Title
81359
    1CHL1    C3    1   1.304   3.220  10.228  0.2520 -0.2004  0.8911
    1CHL1    H3    2   1.403   3.269  10.235 -1.1925  3.0112 -0.1670
    1CHL1    O3    3   1.276   3.183  10.357  0.7964  0.2992 -0.4344
    1CHL1   H3'    4   1.184   3.155  10.351  0.4996  1.2414 -0.2607
    1CHL1    C4    5   1.209   3.333  10.178  0.0775 -0.3471 -0.4485
    1CHL1   H4A    6   1.108   3.305  10.212  0.1906  0.3602  0.4802
    1CHL1   H4B    7   1.235   3.421  10.240 -0.1624 -0.3904 -0.2869
    1CHL1    C5    8   1.224   3.372  10.029 -0.0982 -0.1192 -0.0919
    1CHL1    C6    9   1.245   3.501   9.984  0.3418 -0.1987 -0.1912
    1CHL1    H6   10   1.258   3.585  10.053 -0.0828 -1.0359  0.9170
    1CHL1    C7   11   1.255   3.530   9.833  0.3228 -0.6866  0.1848
    1CHL1   H7A   12   1.180   3.606   9.800  1.3857 -1.3196 -4.0489
    1CHL1   H7B   13   1.352   3.570   9.797 -0.2927  0.1907 -0.5309
    1CHL1    C8   14   1.218   3.413   9.740  0.0108 -0.0052 -0.4723
    1CHL1    H8   15   1.109   3.397   9.739  0.1199 -0.8474  0.4588
    1CHL1   C14   16   1.273   3.446   9.598  0.5711  0.4239  0.4780
    1CHL1   H14   17   1.384   3.447   9.596  0.5802 -0.8139 -0.7057
    1CHL1   C15   18   1.235   3.573   9.523 -0.1850 -0.4961 -0.1581
    1CHL1  H15A   19   1.126   3.594   9.531  0.4586  3.2915 -0.5810
    1CHL1  H15B   20   1.291   3.662   9.557  0.2484 -0.3816 -1.1589
    1CHL1   C16   21   1.274   3.548   9.377  0.3434  0.3176 -0.4105
    1CHL1  H16A   22   1.190   3.585   9.315 -2.0804 -3.0808  0.6624
    1CHL1  H16B   23   1.360   3.602   9.333  0.0289  1.2894  0.1745
    1CHL1   C17   24   1.301   3.399   9.361 -0.7572  0.2108  1.0566
    1CHL1   H17   25   1.408   3.373   9.376 -0.8803 -1.4738 -0.7430
    1CHL1   C13   26   1.250   3.333   9.494  0.7132  0.3640  0.4364
    1CHL1   C18   27   1.096   3.309   9.467 -0.6417  0.0242 -0.0620
    1CHL1  H18A   28   1.077   3.212   9.416  0.0666 -0.8754  1.3268
    1CHL1  H18B   29   1.043   3.297   9.564  0.1943  2.8907  0.7840
    1CHL1  H18C   30   1.046   3.392   9.413  0.9437  0.6627 -0.5681
    1CHL1   C12   31   1.311   3.205   9.557 -0.9173 -0.4814 -0.2720
    1CHL1  H12A   32   1.293   3.120   9.488  0.0020 -0.8182 -0.1010
    1CHL1  H12B   33   1.421   3.219   9.558 -0.9254 -0.4375 -0.0796
    1CHL1   C11   34   1.262   3.156   9.694 -0.0242  0.1716  0.8940
    1CHL1  H11A   35   1.155   3.126   9.696 -0.2676  1.0860  2.8981
    1CHL1  H11B   36   1.330   3.078   9.735 -0.8554 -0.3265  1.3425
    1CHL1    C9   37   1.271   3.279   9.792 -0.5727  0.4588  0.0249
    1CHL1    H9   38   1.381   3.275   9.811 -0.6523  0.2542  0.4474
    1CHL1   C10   39   1.224   3.249   9.933 -0.0857 -0.6421 -0.9530
    1CHL1   C19   40   1.079   3.202   9.922 -0.5001 -0.3400 -0.3812
    1CHL1  H19A   41   1.027   3.201  10.020  1.3058 -1.5865  0.5824
    1CHL1  H19B   42   1.014   3.264   9.856 -1.9175  1.2836  2.4133
    1CHL1  H19C   43   1.069   3.102   9.876  1.3933 -0.3100 -0.9122
    1CHL1    C1   44   1.319   3.141   9.993  0.0783  0.0994  0.2405
    1CHL1   H1A   45   1.314   3.052   9.927 -1.0198  1.9588 -2.2626
    1CHL1   H1B   46   1.419   3.190  10.000  0.5739 -1.2834  4.0646
    1CHL1    C2   47   1.301   3.100  10.138  0.3474 -0.3478 -0.4628
    1CHL1   H2A   48   1.376   3.022  10.163  1.5139  0.4683 -1.3257
    1CHL1   H2B   49   1.199   3.057  10.135 -0.9190  2.4433  0.3454
    1CHL1   C20   50   1.267   3.339   9.221 -0.3498 -0.4526 -0.3613
    1CHL1   H20   51   1.156   3.334   9.217 -0.3988 -1.3407  1.2553
    1CHL1   C21   52   1.319   3.188   9.207 -0.2868 -0.0036 -0.0125
    1CHL1  H21A   53   1.428   3.188   9.229 -0.2188  0.0292 -0.3450
    1CHL1  H21B   54   1.292   3.138   9.111  0.6884  0.3955 -0.4982
    1CHL1  H21C   55   1.272   3.131   9.290 -0.5995 -0.6081 -0.5984
    1CHL1   C22   56   1.306   3.427   9.098  0.4029 -0.3003  0.3130
    1CHL1  H22A   57   1.244   3.518   9.117  1.3944  0.5012 -0.2552
    1CHL1  H22B   58   1.413   3.446   9.117  0.4808  1.1626 -1.4424
    1CHL1   C23   59   1.283   3.380   8.955  0.6891  0.4803 -0.1304
    1CHL1  H23A   60   1.367   3.311   8.934 -0.3711 -0.9242  0.1639
    1CHL1  H23B   61   1.187   3.323   8.957 -0.4744  2.3297 -0.9567
    1CHL1   C24   62   1.281   3.492   8.853  0.0907  0.0017  0.7280
    1CHL1  H24A   63   1.197   3.561   8.876  1.0375  0.8270  1.7967
    1CHL1  H24B   64   1.372   3.553   8.870 -0.5666  0.6577  1.9567
    1CHL1   C25   65   1.284   3.445   8.708 -0.4539 -0.6624 -0.1216
    1CHL1   H25   66   1.373   3.379   8.698 -1.8045 -2.3361 -1.2145
    1CHL1   C26   67   1.159   3.369   8.662 -0.7193 -0.0711 -0.4513
    1CHL1  H26A   68   1.163   3.277   8.725  3.5717  0.0577 -0.4138
    1CHL1  H26B   69   1.068   3.425   8.694 -1.4218 -2.3986  1.7752
    1CHL1  H26C   70   1.170   3.360   8.552 -0.4606 -0.7193 -0.3779
    1CHL1   C27   71   1.307   3.572   8.621  0.0585 -0.5021  0.4945
    1CHL1  H27A   72   1.412   3.608   8.630  0.6047 -1.5696 -1.2950
    1CHL1  H27B   73   1.298   3.542   8.515 -1.3559 -1.3604  0.8507
    1CHL1  H27C   74   1.227   3.645   8.646  0.0030 -0.9949  1.8328
    2CHL1    C3   75   1.952   1.564   9.938  0.4222 -0.2871 -0.1388
    2CHL1    H3   76   1.990   1.666   9.919 -0.7235  0.0790 -0.4528
    2CHL1    O3   77   1.979   1.527  10.075 -0.1964 -0.0057 -0.7097
    2CHL1   H3'   78   1.903   1.481  10.111 -0.1858  0.9184  0.5325
    2CHL1    C4   79   1.804   1.572   9.908 -1.2242  0.3167  0.3209
    2CHL1   H4A   80   1.759   1.476   9.942  1.3961 -0.8761  0.5522
    2CHL1   H4B   81   1.774   1.662   9.965 -2.2040  0.2927 -0.1516
    2CHL1    C5   82   1.769   1.593   9.762  0.0581 -0.0361 -0.6988
    2CHL1    C6   83   1.692   1.696   9.724  0.1495 -0.4547 -0.8051
    2CHL1    H6   84   1.656   1.760   9.806  3.4980  0.2305  0.2008
    2CHL1    C7   85   1.657   1.739   9.587  0.2360 -0.2944 -0.4922
    2CHL1   H7A   86   1.551   1.766   9.571  0.5865  1.8450  0.6016
    2CHL1   H7B   87   1.711   1.834   9.565  0.9737 -0.3441  1.0372
    2CHL1    C8   88   1.688   1.617   9.486 -0.1822  0.1821  0.1700
    2CHL1    H8   89   1.608   1.543   9.506 -0.0323 -0.0599 -0.1106
    2CHL1   C14   90   1.680   1.662   9.339 -0.0804 -0.0585 -0.3407
    2CHL1   H14   91   1.766   1.733   9.339  0.8894 -1.2026  0.4932
    2CHL1   C15   92   1.551   1.731   9.287 -0.1361 -0.7472 -0.7151
    2CHL1  H15A   93   1.467   1.687   9.344 -1.5152  2.5531 -0.0910
    2CHL1  H15B   94   1.545   1.840   9.306  1.3931 -0.6618 -0.6479
    2CHL1   C16   95   1.551   1.707   9.135 -0.2761 -0.5849  0.8687
    2CHL1  H16A   96   1.466   1.640   9.108 -1.4806  1.1418  0.3472
    2CHL1  H16B   97   1.530   1.801   9.081 -0.3315 -1.2344 -0.2558
    2CHL1   C17   98   1.688   1.631   9.106  0.0981 -0.0383  0.4845
    2CHL1   H17   99   1.767   1.710   9.100  0.6513 -0.6831 -0.7481
    2CHL1   C13  100   1.714   1.557   9.235  0.2064  0.1026 -0.1725
    2CHL1   C18  101   1.611   1.444   9.246  0.5086 -0.5022  0.4477
    2CHL1  H18A  102   1.624   1.382   9.155 -3.5086 -0.0103 -0.5426
    2CHL1  H18B  103   1.627   1.392   9.343  2.5416  0.1458  0.4909
    2CHL1  H18C  104   1.506   1.478   9.244  0.6894 -0.0189 -1.4799
    2CHL1   C12  105   1.857   1.508   9.263 -0.4324  0.3739  0.5569
    2CHL1  H12A  106   1.879   1.426   9.191 -1.3667  0.0143  0.6649
    2CHL1  H12B  107   1.923   1.596   9.244  2.8283 -1.9409  0.8580
    2CHL1   C11  108   1.890   1.459   9.409  0.9945  0.1118  0.6521
    2CHL1  H11A  109   1.841   1.359   9.414  1.8981 -0.5529 -2.8121
    2CHL1  H11B  110   1.999   1.455   9.425  1.2468  2.9036 -0.1640
    2CHL1    C9  111   1.829   1.559   9.515  0.0833  0.0955 -0.3766
    2CHL1    H9  112   1.903   1.640   9.499 -0.5737  0.6480 -0.6755
    2CHL1   C10  113   1.842   1.511   9.652  0.1752  0.4432  0.1141
    2CHL1   C19  114   1.768   1.371   9.666  0.2631  0.2994  0.1070
    2CHL1  H19A  115   1.659   1.375   9.647  0.1852 -1.7636  0.0267
    2CHL1  H19B  116   1.808   1.291   9.602  1.8828  1.5901 -0.5351
    2CHL1  H19C  117   1.762   1.333   9.770  2.0392  1.8793  0.8232
    2CHL1    C1  118   1.987   1.502   9.696 -0.8865  0.0234 -0.0588
    2CHL1   H1A  119   2.048   1.433   9.634  1.4885  1.4196  0.6705
    2CHL1   H1B  120   2.024   1.604   9.669 -0.2337 -0.7676 -2.2649
    2CHL1    C2  121   2.012   1.464   9.843  0.4160 -0.3454 -0.7689
    2CHL1   H2A  122   2.121   1.460   9.864  0.5296 -0.5107 -1.3584
    2CHL1   H2B  123   1.964   1.365   9.858  1.0516 -0.1693  2.7999
    2CHL1   C20  124   1.686   1.556   8.970 -0.5520 -0.7982 -0.1564
    2CHL1   H20  125   1.638   1.456   8.980  0.4319 -1.2600  0.0599
    2CHL1   C21  126   1.837   1.520   8.936  0.4784  0.0163 -0.6568
    2CHL1  H21A  127   1.847   1.483   8.832  0.0824  3.3315 -1.9435
    2CHL1  H21B  128   1.880   1.444   9.005  0.2955  1.2141  0.8240
    2CHL1  H21C  129   1.892   1.617   8.939  0.6400 -0.0912 -0.0844
    2CHL1   C22  130   1.621   1.644   8.855 -0.1163  0.0472  0.2891
    2CHL1  H22A  131   1.515   1.665   8.882  0.0454  0.7644  0.3775
    2CHL1  H22B  132   1.671   1.743   8.854  0.9755 -0.4973  0.2749
    2CHL1   C23  133   1.606   1.600   8.706  0.5852 -0.7927 -0.0829
    2CHL1  H23A  134   1.710   1.581   8.671  0.2319  0.8042 -2.0805
    2CHL1  H23B  135   1.549   1.506   8.691  1.8019 -1.7981  1.3004
    2CHL1   C24  136   1.544   1.705   8.606 -0.0135  0.8985  0.9319
    2CHL1  H24A  137   1.446   1.730   8.651  0.2406  0.8767  1.5055
    2CHL1  H24B  138   1.611   1.793   8.604  0.3198  0.6265 -0.3302
    2CHL1   C25  139   1.512   1.639   8.470  0.1097 -0.6492 -0.4735
    2CHL1   H25  140   1.464   1.542   8.493 -0.7212 -0.6377 -2.1015
    2CHL1   C26  141   1.427   1.730   8.385 -0.2374 -0.0626 -0.3630
    2CHL1  H26A  142   1.345   1.780   8.439 -0.0512 -2.0215  1.8208
    2CHL1  H26B  143   1.485   1.811   8.336 -0.4548 -0.9993 -2.2313
    2CHL1  H26C  144   1.385   1.683   8.294 -0.2526  0.2283 -0.5063
    2CHL1   C27  145   1.634   1.615   8.388 -0.4334  0.7519  0.0795
    2CHL1  H27A  146   1.617   1.547   8.302  1.8755  0.4553 -0.1695
    2CHL1  H27B  147   1.676   1.702   8.334 -0.0852  0.5305 -0.0066
    2CHL1  H27C  148   1.703   1.561   8.457  0.6055 -0.2512 -1.7223
    3CHL1    C3  149   2.832   1.097  10.287  0.4427  1.2661  0.1369
    3CHL1    H3  150   2.930   1.066  10.245  0.3912  2.7150 -1.0666
    3CHL1    O3  151   2.844   1.113  10.433  0.0095  0.1832 -0.3021
    3CHL1   H3'  152   2.754   1.099  10.462 -0.0765  0.2134 -0.5519
    3CHL1    C4  153   2.793   1.229  10.225 -0.1436 -0.4496  0.7928
    3CHL1   H4A  154   2.699   1.265  10.272  0.1831 -2.1519  2.8375
    3CHL1   H4B  155   2.876   1.298  10.253 -1.0569  0.8115  0.4268
    3CHL1    C5  156   2.778   1.208  10.072  0.2500  0.4619 -0.3933
    3CHL1    C6  157   2.837   1.280   9.980 -0.2473 -0.1288  0.1263
    3CHL1    H6  158   2.896   1.364  10.018 -1.6539  0.5324  0.9176
    3CHL1    C7  159   2.828   1.277   9.827 -0.1622 -0.2615  0.0536
    3CHL1   H7A  160   2.816   1.381   9.789 -0.3668 -0.6405 -0.9236
    3CHL1   H7B  161   2.928   1.241   9.795 -0.1352 -1.0162  0.9774
    3CHL1    C8  162   2.703   1.191   9.780  0.4090 -0.3631 -0.5662
    3CHL1    H8  163   2.626   1.265   9.812 -0.3065 -1.0404 -0.6899
    3CHL1   C14  164   2.696   1.165   9.632 -0.1109  0.3624  0.6642
    3CHL1   H14  165   2.780   1.100   9.600  0.6531  2.4544 -1.7210
    3CHL1   C15  166   2.712   1.286   9.546  0.3524 -0.0941  0.3010
    3CHL1  H15A  167   2.659   1.379   9.574  1.8813  0.0734  2.7705
    3CHL1  H15B  168   2.817   1.304   9.512 -0.6010  1.4479 -2.0105
    3CHL1   C16  169   2.646   1.244   9.413  0.7036  0.5032  0.3026
    3CHL1  H16A  170   2.564   1.311   9.379  1.2832  1.1117  0.0903
    3CHL1  H16B  171   2.723   1.232   9.335 -0.3194 -0.7484 -0.5277
    3CHL1   C17  172   2.582   1.105   9.443 -0.4338  0.3305  0.4628
    3CHL1   H17  173   2.656   1.026   9.416  0.2701  1.3934 -0.7647
    3CHL1   C13  174   2.560   1.096   9.590 -0.3412 -0.1817  0.4009
    3CHL1   C18  175   2.436   1.189   9.624  0.1434  0.7369 -0.5700
    3CHL1  H18A  176   2.442   1.294   9.590 -1.2085  1.2701  0.8073
    3CHL1  H18B  177   2.348   1.148   9.569  0.3578 -0.4084 -0.0778
    3CHL1  H18C  178   2.418   1.173   9.732  1.0207 -3.1367 -0.9070
    3CHL1   C12  179   2.560   0.958   9.670  0.2728 -0.4055  0.0842
    3CHL1  H12A  180   2.463   0.911   9.642  0.0899 -1.8639  3.0797
    3CHL1  H12B  181   2.652   0.902   9.644  0.3346 -1.5186  2.5577
    3CHL1   C11  182   2.567   0.976   9.821 -0.7115 -0.1003 -0.2134
    3CHL1  H11A  183   2.472   1.025   9.852 -1.4587 -2.1236  0.8422
    3CHL1  H11B  184   2.580   0.876   9.868 -1.3537  0.5060  1.2900
    3CHL1    C9  185   2.679   1.068   9.871 -0.3561  0.3661 -0.4225
    3CHL1    H9  186   2.778   1.018   9.861 -1.4585 -1.3015 -3.8186
    3CHL1   C10  187   2.678   1.093  10.028  0.1407  0.7971  0.3202
    3CHL1   C19  188   2.529   1.136  10.065 -0.5625  0.4703 -0.6089
    3CHL1  H19A  189   2.498   1.212   9.990 -0.6631  1.7021  0.6676
    3CHL1  H19B  190   2.452   1.056  10.067 -1.0753  0.9706  0.0340
    3CHL1  H19C  191   2.526   1.173  10.170 -2.4412 -1.0986 -0.0805
    3CHL1    C1  192   2.707   0.958  10.103  0.5195 -0.4964 -0.4364
    3CHL1   H1A  193   2.616   0.895  10.101 -1.1715  1.7948  0.8599
    3CHL1   H1B  194   2.797   0.911  10.057  1.7042  1.1281  0.1462
    3CHL1    C2  195   2.729   0.982  10.256  0.3783  0.2496 -0.4358
    3CHL1   H2A  196   2.762   0.888  10.305 -0.3103 -0.4998 -1.3794
    3CHL1   H2B  197   2.629   1.017  10.289 -0.1286  1.2489 -2.9388
    3CHL1   C20  198   2.458   1.083   9.348 -0.2527 -0.8717 -1.0684
    3CHL1   H20  199   2.386   1.166   9.362 -0.3873 -1.0965 -0.4296
    3CHL1   C21  200   2.403   0.945   9.376  0.0157  0.3488 -0.1793
    3CHL1  H21A  201   2.347   0.949   9.472  1.1276 -1.1327  0.5565
    3CHL1  H21B  202   2.474   0.861   9.387  0.1885  0.7162  1.8542
    3CHL1  H21C  203   2.327   0.910   9.304 -0.1790  0.9861 -0.2898
    3CHL1   C22  204   2.488   1.110   9.195  0.7116  0.1975 -1.8204
    3CHL1  H22A  205   2.401   1.071   9.138 -0.7744 -0.8408  1.0196
    3CHL1  H22B  206   2.493   1.218   9.173 -1.1815  0.4390 -1.2215
    3CHL1   C23  207   2.610   1.032   9.144  0.4459  0.1721 -1.1214
    3CHL1  H23A  208   2.699   1.086   9.182 -0.1686  0.4307  0.0056
    3CHL1  H23B  209   2.613   0.932   9.193 -1.0966  1.4398  1.7055
    3CHL1   C24  210   2.613   1.015   8.991  0.1295 -0.4575  0.9450
    3CHL1  H24A  211   2.591   1.112   8.942 -2.7925 -1.2568  0.5689
    3CHL1  H24B  212   2.712   0.992   8.946 -0.4460  0.6994 -0.9885
    3CHL1   C25  213   2.494   0.938   8.925 -0.8006  0.0951  0.0276
    3CHL1   H25  214   2.396   0.990   8.935 -0.4813  0.3786  1.8611
    3CHL1   C26  215   2.517   0.928   8.779  0.0779 -0.1288 -0.8691
    3CHL1  H26A  216   2.507   1.031   8.739 -3.3762 -0.7772 -1.8801
    3CHL1  H26B  217   2.619   0.888   8.763 -0.5603 -1.0300 -2.8194
    3CHL1  H26C  218   2.436   0.866   8.733 -1.1950 -0.8938  2.2537
    3CHL1   C27  219   2.476   0.795   8.979 -0.6466  0.8333 -0.1143
    3CHL1  H27A  220   2.566   0.731   8.971 -0.1960  1.3418  0.9313
    3CHL1  H27B  221   2.448   0.803   9.086  1.6431 -0.1834  0.5910
    3CHL1  H27C  222   2.393   0.744   8.925  0.2339  1.4365 -2.0957
    4CHL1    C3  223   2.181   2.935  10.489 -0.1862 -1.1113 -0.0539
    4CHL1    H3  224   2.225   2.833  10.491  0.1168 -1.0785 -2.5935
    4CHL1    O3  225   2.157   2.974  10.624 -0.0284  0.0389  0.1511
    4CHL1   H3'  226   2.102   3.052  10.624 -0.0775  0.0128 -0.8026
    4CHL1    C4  227   2.287   3.030  10.429  0.2879  0.4589 -0.7059
    4CHL1   H4A  228   2.253   3.135  10.446  0.7915  0.3504  1.0959
    4CHL1   H4B  229   2.369   3.029  10.504  0.7570  1.1888 -1.1996
    4CHL1    C5  230   2.318   3.015  10.277  0.5148  0.5339 -0.7429
    4CHL1    C6  231   2.441   3.015  10.224 -0.3336  0.4016  0.6354
    4CHL1    H6  232   2.531   3.023  10.287 -0.7527 -0.2370  1.3359
    4CHL1    C7  233   2.472   2.987  10.081  0.7174 -1.0599 -0.2348
    4CHL1   H7A  234   2.546   3.059  10.040 -1.2037  1.9053  1.3669
    4CHL1   H7B  235   2.520   2.887  10.071  6.0721  1.3175 -0.0125
    4CHL1    C8  236   2.343   3.008   9.996 -0.2778  0.0664 -0.1208
    4CHL1    H8  237   2.327   3.117   9.990  0.7276  0.2205 -0.0920
    4CHL1   C14  238   2.371   2.950   9.857  0.2103 -0.1038  0.6467
    4CHL1   H14  239   2.383   2.839   9.856 -4.2023 -0.6360 -0.3500
    4CHL1   C15  240   2.491   3.001   9.777  0.2418 -0.2746  0.3400
    4CHL1  H15A  241   2.520   3.106   9.799 -3.2107  0.9373 -0.5565
    4CHL1  H15B  242   2.581   2.943   9.806  0.8287  1.3395  1.8571
    4CHL1   C16  243   2.448   2.982   9.631 -0.1525 -0.9154 -0.3376
    4CHL1  H16A  244   2.465   3.085   9.593 -0.7970 -0.3409  0.9144
    4CHL1  H16B  245   2.517   2.909   9.583 -0.9168 -0.9610 -1.3564
    4CHL1   C17  246   2.302   2.936   9.623  0.4677 -0.6491  0.0164
    4CHL1   H17  247   2.312   2.825   9.628  0.0713 -0.5749  2.8171
    4CHL1   C13  248   2.252   2.975   9.757  0.5986  1.0476 -0.6988
    4CHL1   C18  249   2.204   3.123   9.749  0.6195  0.1888  0.4208
    4CHL1  H18A  250   2.285   3.189   9.711 -0.5125  1.5203  0.2465
    4CHL1  H18B  251   2.125   3.145   9.673  0.6439  0.4953  0.4832
    4CHL1  H18C  252   2.171   3.161   9.848 -2.8261  2.6286 -1.5277
    4CHL1   C12  253   2.142   2.885   9.810  0.3066  0.0985  0.0020
    4CHL1  H12A  254   2.047   2.901   9.756 -0.1256 -2.4106 -0.0561
    4CHL1  H12B  255   2.172   2.780   9.789  1.9997  0.5271  0.2217
    4CHL1   C11  256   2.113   2.917   9.954  0.5052 -0.1378  0.1067
    4CHL1  H11A  257   2.052   3.010   9.955 -0.7536 -0.9584  0.9775
    4CHL1  H11B  258   2.057   2.836  10.005  0.8576  1.5055  3.2353
    4CHL1    C9  259   2.227   2.934  10.053  0.2703  0.0316  0.2829
    4CHL1    H9  260   2.254   2.830  10.080 -0.6471 -0.0079  1.0602
    4CHL1   C10  261   2.188   2.993  10.194  0.2266  0.0604 -0.5175
    4CHL1   C19  262   2.121   3.139  10.176  0.1832 -0.5151 -0.6997
    4CHL1  H19A  263   2.085   3.174  10.275  0.1840  0.5138 -1.0597
    4CHL1  H19B  264   2.192   3.221  10.152  2.7471 -1.7577  2.2488
    4CHL1  H19C  265   2.027   3.146  10.117 -1.7516  0.5541  2.3950
    4CHL1    C1  266   2.088   2.893  10.258  0.2326  0.2713 -0.3477
    4CHL1   H1A  267   1.996   2.876  10.197  1.2607 -0.2439 -1.7947
    4CHL1   H1B  268   2.132   2.791  10.260 -0.1602  0.1103  0.1813
    4CHL1    C2  269   2.056   2.928  10.409 -0.2791 -0.2894  0.2159
    4CHL1   H2A  270   1.987   2.856  10.458  0.0180  1.4187  3.2222
    4CHL1   H2B  271   2.004   3.026  10.415  1.3042  0.5143  1.2045
    4CHL1   C20  272   2.225   2.972   9.492 -0.4318  0.0981  0.9992
    4CHL1   H20  273   2.219   3.083   9.487 -1.4102 -0.0608 -2.0428
    4CHL1   C21  274   2.085   2.908   9.493 -0.1473  0.5168 -0.5770
    4CHL1  H21A  275   2.033   2.927   9.397 -0.7395  1.1623 -0.1282
    4CHL1  H21B  276   2.022   2.965   9.564 -0.1258  0.5271 -0.5669
    4CHL1  H21C  277   2.089   2.799   9.516  2.1665  0.3904 -1.4644
    4CHL1   C22  278   2.306   2.930   9.366  0.1512 -0.4753 -0.0935
    4CHL1  H22A  279   2.415   2.926   9.386  0.2853  1.2882 -0.4500
    4CHL1  H22B  280   2.279   2.827   9.334 -2.1145  0.0445  0.0882
    4CHL1   C23  281   2.282   3.026   9.246  0.3813 -0.3600  0.2839
    4CHL1  H23A  282   2.173   3.039   9.227  0.2963 -0.5396  0.6472
    4CHL1  H23B  283   2.322   3.129   9.260 -0.7450  0.6039 -3.0676
    4CHL1   C24  284   2.340   2.959   9.113  0.6904  0.2042 -0.7797
    4CHL1  H24A  285   2.450   2.971   9.112  0.6992  0.1602 -2.0119
    4CHL1  H24B  286   2.324   2.849   9.113  0.8443  0.1676  1.1797
    4CHL1   C25  287   2.286   3.021   8.992  0.5700 -0.9499  0.4276
    4CHL1   H25  288   2.175   3.014   8.995  0.5781 -2.6279 -1.9184
    4CHL1   C26  289   2.324   3.170   8.974 -0.2615 -0.3754 -1.0217
    4CHL1  H26A  290   2.250   3.224   9.037  1.5867 -1.1293  1.8721
    4CHL1  H26B  291   2.428   3.192   9.006 -0.1287 -0.9996 -1.0232
    4CHL1  H26C  292   2.311   3.204   8.869  1.8556  1.2711 -0.7882
    4CHL1   C27  293   2.307   2.929   8.867  0.5859 -0.3210 -0.0386
    4CHL1  H27A  294   2.258   2.832   8.893  0.0354 -0.1398 -0.4014
    4CHL1  H27B  295   2.249   2.980   8.787 -1.1814 -0.0085  1.4049
    4CHL1  H27C  296   2.413   2.924   8.832  1.3907 -0.7827  2.3972
    5CHL1    C3  297   3.134   0.701  10.184  1.0561  0.4407 -0.8073
    5CHL1    H3  298   3.031   0.740  10.204  1.2795 -0.5125  2.5014
    5CHL1    O3  299   3.181   0.633  10.303 -0.6521  0.4999  0.5320
    5CHL1   H3'  300   3.206   0.700  10.367 -0.8794  0.4960  0.6243
    5CHL1    C4  301   3.133   0.602  10.065 -0.0049 -0.2434 -0.4936
    5CHL1   H4A  302   3.238   0.570  10.049 -1.1459 -3.3024 -2.0916
    5CHL1   H4B  303   3.070   0.513  10.086 -0.0456  0.2206  1.4978
    5CHL1    C5  304   3.089   0.686   9.938 -0.1222  0.1051  0.6270
    5CHL1    C6  305   2.983   0.652   9.866  0.2666  0.3652 -1.1144
    5CHL1    H6  306   2.928   0.562   9.899 -1.2348  1.1724 -1.3957
    5CHL1    C7  307   2.943   0.717   9.739 -0.0942 -0.5513  0.1022
    5CHL1   H7A  308   2.919   0.637   9.665 -0.2344  0.6719 -1.2077
    5CHL1   H7B  309   2.855   0.784   9.752  0.8219  1.0161 -1.5229
    5CHL1    C8  310   3.059   0.794   9.673  0.3662 -1.0243 -0.0835
    5CHL1    H8  311   3.133   0.723   9.632  0.6388 -0.6545 -0.2408
    5CHL1   C14  312   3.016   0.877   9.557  0.4440 -0.3021 -0.0073
    5CHL1   H14  313   2.935   0.945   9.593 -0.5187 -2.2808  1.6321
    5CHL1   C15  314   2.960   0.805   9.437 -0.0383  0.0511  0.3030
    5CHL1  H15A  315   3.009   0.711   9.404 -2.4727 -1.4546  0.8348
    5CHL1  H15B  316   2.861   0.759   9.461 -1.1683  2.2098 -0.0993
    5CHL1   C16  317   2.964   0.910   9.317 -0.1389  0.1378  0.6689
    5CHL1  H16A  318   3.018   0.856   9.236  0.0242  2.3055 -0.6962
    5CHL1  H16B  319   2.861   0.935   9.284  0.5548  0.6791 -1.1196
    5CHL1   C17  320   3.036   1.029   9.378 -0.0098 -0.0442 -0.1998
    5CHL1   H17  321   2.951   1.086   9.423 -2.0162 -3.8481  1.0183
    5CHL1   C13  322   3.115   0.975   9.500  0.0987  0.2427 -0.3698
    5CHL1   C18  323   3.247   0.913   9.450  0.6624  0.9912  0.1270
    5CHL1  H18A  324   3.279   0.839   9.526 -3.2769 -0.7880  0.1581
    5CHL1  H18B  325   3.234   0.839   9.368 -1.8434  0.4751  0.9505
    5CHL1  H18C  326   3.331   0.985   9.437  1.2899  0.3085  0.3233
    5CHL1   C12  327   3.144   1.067   9.617 -0.3059  0.3663 -0.3258
    5CHL1  H12A  328   3.209   1.152   9.590 -0.7423 -0.2331 -3.4285
    5CHL1  H12B  329   3.049   1.116   9.649 -0.3936  0.0832 -0.1428
    5CHL1   C11  330   3.210   0.997   9.731  0.2370 -0.6781  0.3253
    5CHL1  H11A  331   3.313   0.973   9.695  0.8949  1.4970  0.6941
    5CHL1  H11B  332   3.227   1.062   9.819 -0.8390 -1.4256  1.0939
    5CHL1    C9  333   3.127   0.885   9.781 -0.4206 -0.1326 -0.3502
    5CHL1    H9  334   3.043   0.933   9.837  0.0426 -0.1380  0.3561
    5CHL1   C10  335   3.182   0.805   9.901  0.8527  0.2057  0.0203
    5CHL1   C19  336   3.322   0.752   9.855  0.1697  0.1764  0.3856
    5CHL1  H19A  337   3.397   0.833   9.844  0.5457 -0.2348 -0.0894
    5CHL1  H19B  338   3.353   0.680   9.934 -1.9440 -0.1428  0.9511
    5CHL1  H19C  339   3.303   0.693   9.762 -0.0061 -1.5961  1.5162
    5CHL1    C1  340   3.181   0.895  10.025 -0.4485  1.0444 -0.2854
    5CHL1   H1A  341   3.252   0.980  10.013  0.8963  0.1885  1.2895
    5CHL1   H1B  342   3.078   0.931  10.047 -0.8787 -1.3345  1.8480
    5CHL1    C2  343   3.222   0.830  10.155  0.0261  1.0176  0.1769
    5CHL1   H2A  344   3.202   0.907  10.232  0.0642  0.4771  0.7323
    5CHL1   H2B  345   3.326   0.793  10.168  0.3386  1.5785 -0.7068
    5CHL1   C20  346   3.105   1.112   9.271  0.1206 -0.1530 -0.1088
    5CHL1   H20  347   3.193   1.056   9.233  0.6544  1.4246 -1.2614
    5CHL1   C21  348   3.161   1.241   9.336 -0.3799 -1.1866 -0.1107
    5CHL1  H21A  349   3.234   1.213   9.415 -0.0625 -0.5134 -0.1650
    5CHL1  H21B  350   3.076   1.286   9.392 -1.0695 -1.0506 -1.2479
    5CHL1  H21C  351   3.211   1.311   9.266 -1.3871 -0.6625 -0.3161
    5CHL1   C22  352   3.011   1.147   9.156 -0.7066 -0.4256  0.2892
    5CHL1  H22A  353   2.996   1.057   9.093 -3.4098  0.6652 -0.6945
    5CHL1  H22B  354   2.911   1.186   9.184 -0.5293  2.0809 -2.3681
    5CHL1   C23  355   3.073   1.245   9.051  1.0938 -0.1805  1.0126
    5CHL1  H23A  356   3.056   1.349   9.085 -2.7777 -0.3118 -0.2904
    5CHL1  H23B  357   3.183   1.236   9.037  0.5950 -1.6041 -2.5971
    5CHL1   C24  358   3.005   1.225   8.913 -0.6056 -0.0042  0.0562
    5CHL1  H24A  359   2.993   1.118   8.887 -3.3262 -0.5820  3.3763
    5CHL1  H24B  360   2.902   1.265   8.917 -0.5414  0.2734 -0.9979
    5CHL1   C25  361   3.079   1.297   8.796 -0.8283  0.4266 -0.5712
    5CHL1   H25  362   3.096   1.401   8.832  0.0414 -0.0364  0.3822
    5CHL1   C26  363   3.215   1.235   8.751 -0.5646 -0.1865 -0.0741
    5CHL1  H26A  364   3.287   1.238   8.836  0.8259  0.6038 -1.2460
    5CHL1  H26B  365   3.197   1.128   8.727  0.6883 -0.3514 -0.3211
    5CHL1  H26C  366   3.236   1.290   8.657  0.9452  1.6615  1.3208
    5CHL1   C27  367   2.977   1.298   8.683  0.4095 -0.1690 -0.9900
    5CHL1  H27A  368   2.926   1.203   8.655  0.5769  0.0845 -2.1843
    5CHL1  H27B  369   2.893   1.365   8.712  0.9710  0.0778  0.0703
    5CHL1  H27C  370   3.034   1.328   8.593  1.1025  0.6141 -0.3044
    6CHL1    C3  371   6.594   4.930  10.430 -0.4113 -0.8208  1.0433
    6CHL1    H3  372   6.643   4.836  10.464  1.3137 -1.3449 -2.5450
    6CHL1    O3  373   6.470   4.949  10.499  0.0261 -0.3299  0.3593
    6CHL1   H3'  374   6.433   4.860  10.495  0.8403 -0.7747  2.1095
    6CHL1    C4  375   6.696   5.044  10.459 -0.4250 -0.1221 -0.6020
    6CHL1   H4A  376   6.649   5.141  10.432  1.3369  0.1207 -2.9428
    6CHL1   H4B  377   6.713   5.046  10.568  1.8992 -1.4944 -0.9067
    6CHL1    C5  378   6.821   5.022  10.392  0.0898  0.2545  0.5754
    6CHL1    C6  379   6.940   5.013  10.455  0.1694  0.2543 -0.8506
    6CHL1    H6  380   6.958   5.024  10.563  2.1602  1.0490 -1.2494
    6CHL1    C7  381   7.078   5.006  10.389 -0.6441 -1.2031  0.7739
    6CHL1   H7A  382   7.139   5.095  10.417  0.9425 -1.9696 -0.1675
    6CHL1   H7B  383   7.124   4.909  10.419  0.2554 -1.5226 -1.5440
    6CHL1    C8  384   7.071   5.016  10.240 -0.0921  0.5988 -0.1353
    6CHL1    H8  385   7.063   5.124  10.215  1.3818  0.9609  0.8805
    6CHL1   C14  386   7.194   4.945  10.185 -0.4989 -0.1423 -0.0485
    6CHL1   H14  387   7.164   4.840  10.206  2.1646 -0.6266  1.5858
    6CHL1   C15  388   7.334   4.974  10.240 -0.7971 -0.3186  0.1821
    6CHL1  H15A  389   7.349   5.081  10.265  2.7700 -1.0596  1.5602
    6CHL1  H15B  390   7.357   4.915  10.331  1.0221 -0.3583 -0.2905
    6CHL1   C16  391   7.441   4.947  10.122  0.7980 -0.0076 -0.2736
    6CHL1  H16A  392   7.490   5.044  10.100 -0.3721  0.7922  0.5883
    6CHL1  H16B  393   7.530   4.891  10.158  0.7122 -0.3461 -0.5889
    6CHL1   C17  394   7.351   4.882  10.016 -0.1856 -0.6832 -0.7678
    6CHL1   H17  395   7.339   4.773  10.034 -0.9435 -0.2786  1.4186
    6CHL1   C13  396   7.212   4.950  10.033 -0.0859 -0.0371 -0.4449
    6CHL1   C18  397   7.214   5.096   9.984  0.0815  0.0274 -0.4130
    6CHL1  H18A  398   7.119   5.147  10.012  0.0457 -0.0861 -0.3218
    6CHL1  H18B  399   7.292   5.161  10.029  2.9039 -1.5657 -2.8109
    6CHL1  H18C  400   7.221   5.099   9.873 -0.6038 -0.2788 -0.4698
    6CHL1   C12  401   7.086   4.880   9.975 -0.0080  0.4401 -0.3177
    6CHL1  H12A  402   7.093   4.879   9.864 -1.1825 -1.2078 -0.3994
    6CHL1  H12B  403   7.095   4.772  10.002  2.0903  0.5296 -0.5998
    6CHL1   C11  404   6.953   4.935  10.019 -0.1030  0.3748  0.6833
    6CHL1  H11A  405   6.941   5.038   9.979 -0.3130  0.1354  0.1231
    6CHL1  H11B  406   6.866   4.878   9.981  0.9947  0.0204 -1.3872
    6CHL1    C9  407   6.944   4.949  10.176 -0.2808 -0.2349 -0.2815
    6CHL1    H9  408   6.949   4.840  10.197 -0.2136 -0.1087  0.3409
    6CHL1   C10  409   6.810   5.001  10.238 -0.0495 -0.4127 -0.3549
    6CHL1   C19  410   6.772   5.130  10.169  0.3176 -0.3722 -0.2126
    6CHL1  H19A  411   6.753   5.117  10.060  0.2158  1.5529 -0.4303
    6CHL1  H19B  412   6.675   5.165  10.212  1.2407  0.2597  1.3769
    6CHL1  H19C  413   6.854   5.202  10.187  0.6662 -0.2127 -2.2311
    6CHL1    C1  414   6.704   4.892  10.210  0.0377  0.2463 -0.0920
    6CHL1   H1A  415   6.685   4.906  10.101  0.7049  1.6593 -0.0291
    6CHL1   H1B  416   6.743   4.791  10.233  1.3089  0.8917  0.6042
    6CHL1    C2  417   6.567   4.914  10.284 -0.3991  0.2785 -0.1478
    6CHL1   H2A  418   6.511   4.829  10.240 -0.4317  0.5685 -0.6729
    6CHL1   H2B  419   6.526   5.009  10.244  1.1453  0.6505 -0.8915
    6CHL1   C20  420   7.405   4.890   9.870  0.0207 -0.6062  0.0143
    6CHL1   H20  421   7.318   4.892   9.800 -0.8307 -3.0105  0.9791
    6CHL1   C21  422   7.470   4.756   9.848 -0.5035  0.6894 -0.8427
    6CHL1  H21A  423   7.397   4.672   9.852  0.3095  0.0519  1.0966
    6CHL1  H21B  424   7.554   4.742   9.919 -0.1264  1.8725 -1.0634
    6CHL1  H21C  425   7.513   4.744   9.746  3.1376  1.9438  0.4828
    6CHL1   C22  426   7.506   5.000   9.834  0.2468 -0.6535 -0.7824
    6CHL1  H22A  427   7.466   5.102   9.854  2.6267  0.6880 -2.6105
    6CHL1  H22B  428   7.579   4.989   9.917  0.8937  0.8354 -1.1300
    6CHL1   C23  429   7.568   4.998   9.697  0.1060 -0.7713 -0.0701
    6CHL1  H23A  430   7.648   5.075   9.691 -0.5669 -0.0774 -0.1852
    6CHL1  H23B  431   7.636   4.914   9.673  1.2440 -0.2535  1.2497
    6CHL1   C24  432   7.470   5.017   9.585 -0.0950  0.8607  0.6979
    6CHL1  H24A  433   7.380   4.956   9.606  1.1684 -1.0495  0.6866
    6CHL1  H24B  434   7.443   5.125   9.586 -1.4605  0.5401  3.8420
    6CHL1   C25  435   7.532   4.981   9.444  0.0874  0.0851  0.1525
    6CHL1   H25  436   7.626   5.038   9.434 -0.9988  2.0361  0.8137
    6CHL1   C26  437   7.563   4.831   9.424  0.2567 -1.0435 -0.3823
    6CHL1  H26A  438   7.468   4.777   9.408  1.5312 -2.5052 -3.4486
    6CHL1  H26B  439   7.619   4.825   9.328 -2.0438  1.1886 -1.9134
    6CHL1  H26C  440   7.619   4.785   9.509  0.9345  2.0143  0.8936
    6CHL1   C27  441   7.433   5.035   9.339 -0.0738 -0.1495  0.2420
    6CHL1  H27A  442   7.448   4.980   9.244  1.6343  0.6987 -0.0032
    6CHL1  H27B  443   7.328   5.052   9.370 -0.1078  2.1479 -0.9830
    6CHL1  H27C  444   7.459   5.140   9.313 -0.7903 -0.4857 -1.8953
    7CHL1    C3  445   3.752   1.646  10.370  0.8125  0.1303  0.5673
    7CHL1    H3  446   3.857   1.678  10.390  1.5651  0.0151 -2.8386
    7CHL1    O3  447   3.682   1.605  10.484  0.0368  0.2097 -0.2531
    7CHL1   H3'  448   3.618   1.671  10.512 -0.3750  1.6840 -4.2942
    7CHL1    C4  449   3.676   1.764  10.306  0.1313  0.1042 -0.4927
    7CHL1   H4A  450   3.573   1.722  10.309  0.8546 -1.9114 -1.9070
    7CHL1   H4B  451   3.695   1.850  10.373  2.0615 -0.0933 -0.7536
    7CHL1    C5  452   3.708   1.802  10.165 -0.3437  0.2668  0.3283
    7CHL1    C6  453   3.733   1.932  10.131  0.4691 -0.4055 -0.2964
    7CHL1    H6  454   3.724   2.015  10.202  1.8582 -0.6451  0.1817
    7CHL1    C7  455   3.765   1.973   9.987 -0.4200 -0.2194  0.6046
    7CHL1   H7A  456   3.741   2.077   9.959  2.0012  0.0543 -0.5678
    7CHL1   H7B  457   3.875   1.975  10.005 -0.1622 -0.5727 -0.8934
    7CHL1    C8  458   3.745   1.863   9.885  0.0653  0.0728 -0.4292
    7CHL1    H8  459   3.637   1.866   9.861  0.3287 -1.1356 -1.8279
    7CHL1   C14  460   3.834   1.895   9.766 -0.2994  0.0160  0.9057
    7CHL1   H14  461   3.937   1.857   9.781 -1.1866 -1.8591  2.3901
    7CHL1   C15  462   3.841   2.035   9.713 -0.5634 -0.3383  0.8211
    7CHL1  H15A  463   3.738   2.077   9.715  0.1770  1.4871  2.6847
    7CHL1  H15B  464   3.912   2.094   9.774  0.3470  0.2101 -0.7689
    7CHL1   C16  465   3.902   2.014   9.577  0.5392  0.6117 -0.2701
    7CHL1  H16A  466   3.830   2.057   9.504  0.5207  0.7662 -0.1594
    7CHL1  H16B  467   4.000   2.062   9.553  0.7231 -0.6759 -2.2460
    7CHL1   C17  468   3.909   1.859   9.551  0.1012 -0.6744 -0.1760
    7CHL1   H17  469   4.013   1.828   9.575  0.7958 -0.0258 -2.2235
    7CHL1   C13  470   3.810   1.795   9.645 -0.4307 -0.4225 -0.8537
    7CHL1   C18  471   3.673   1.815   9.593 -0.2976  0.8772  0.1854
    7CHL1  H18A  472   3.653   1.916   9.553 -1.4406  0.3331 -0.6292
    7CHL1  H18B  473   3.652   1.742   9.512 -1.8229  1.2711  0.2116
    7CHL1  H18C  474   3.593   1.796   9.667  0.1733  0.6141  0.6256
    7CHL1   C12  475   3.831   1.652   9.694 -0.6127  0.0001  0.2026
    7CHL1  H12A  476   3.805   1.577   9.616 -1.1350  1.0023 -0.5904
    7CHL1  H12B  477   3.941   1.647   9.714 -0.7002 -0.9416  0.5069
    7CHL1   C11  478   3.754   1.619   9.819 -0.0606 -0.0287 -0.6255
    7CHL1  H11A  479   3.646   1.610   9.794 -0.5441  0.9844  1.0413
    7CHL1  H11B  480   3.775   1.516   9.856 -0.5133  0.6130  1.5216
    7CHL1    C9  481   3.781   1.725   9.934  0.7119  0.0367  0.0232
    7CHL1    H9  482   3.892   1.723   9.949  0.5528  0.1566  1.3334
    7CHL1   C10  483   3.718   1.688  10.071 -0.0811  0.3842 -0.2344
    7CHL1   C19  484   3.573   1.641  10.039 -0.1341  0.2698 -0.7352
    7CHL1  H19A  485   3.521   1.703   9.963  1.0582  1.6309 -0.4519
    7CHL1  H19B  486   3.570   1.539   9.996  2.3127  0.9388 -2.6121
    7CHL1  H19C  487   3.502   1.643  10.125  0.3086 -0.7946 -0.3386
    7CHL1    C1  488   3.800   1.571  10.128 -0.2656  0.7681 -1.2904
    7CHL1   H1A  489   3.786   1.485  10.060 -0.7614  1.1474 -1.6739
    7CHL1   H1B  490   3.909   1.591  10.133 -0.4148  1.1948  0.3380
    7CHL1    C2  491   3.752   1.528  10.269  0.0926 -0.3667  0.1565
    7CHL1   H2A  492   3.810   1.438  10.301  0.0977 -0.3041  0.3229
    7CHL1   H2B  493   3.651   1.487  10.249 -0.4727  1.3593 -0.6007
    7CHL1   C20  494   3.892   1.831   9.399  0.4632  1.0100  0.5126
    7CHL1   H20  495   3.785   1.846   9.375 -0.5498 -2.9323  2.2047
    7CHL1   C21  496   3.933   1.685   9.368  0.4014 -0.6556 -0.5250
    7CHL1  H21A  497   3.894   1.636   9.276 -1.6012 -0.0311 -0.0214
    7CHL1  H21B  498   3.894   1.614   9.445  1.0433 -0.5115 -0.0585
    7CHL1  H21C  499   4.043   1.671   9.376  0.5949 -0.0815 -2.0247
    7CHL1   C22  500   3.970   1.931   9.305  0.7850 -0.5161 -0.4753
    7CHL1  H22A  501   3.914   2.027   9.303  2.1909  0.3670  1.1005
    7CHL1  H22B  502   4.069   1.948   9.353  0.8208 -1.3584 -0.2426
    7CHL1   C23  503   3.991   1.892   9.165  0.5609  0.6452  0.0875
    7CHL1  H23A  504   4.059   1.805   9.163  1.8842  1.6913 -1.8713
    7CHL1  H23B  505   3.895   1.850   9.129 -0.8659  3.7923  0.0671
    7CHL1   C24  506   4.019   2.007   9.063  0.4382 -0.0537  0.3551
    7CHL1  H24A  507   3.922   2.059   9.051  0.0014 -0.2859  2.6791
    7CHL1  H24B  508   4.092   2.080   9.103 -0.2494  2.4999 -2.8473
    7CHL1   C25  509   4.056   1.972   8.915  0.3101 -0.2017  0.0637
    7CHL1   H25  510   4.130   1.891   8.932  0.5746  0.1998  0.8370
    7CHL1   C26  511   3.944   1.930   8.823  0.2772  0.7069 -0.6729
    7CHL1  H26A  512   3.887   1.850   8.875  1.2597  0.5317  0.1623
    7CHL1  H26B  513   3.884   2.020   8.799 -0.5039  0.3761  0.0227
    7CHL1  H26C  514   3.979   1.889   8.726 -2.3298 -0.1270 -1.3054
    7CHL1   C27  515   4.140   2.087   8.859  0.4208 -0.5008 -0.2631
    7CHL1  H27A  516   4.096   2.189   8.861  0.6153 -0.4289  1.6285
    7CHL1  H27B  517   4.216   2.100   8.939  1.0336 -0.5845 -0.8245
    7CHL1  H27C  518   4.184   2.064   8.760 -0.1017 -0.8798 -0.4058
    8CHL1    C3  519   4.591   3.267  10.384 -0.2447 -0.2564 -0.9912
    8CHL1    H3  520   4.489   3.304  10.405 -0.5753 -0.5315 -2.0647
    8CHL1    O3  521   4.657   3.226  10.502 -0.4278  0.0161  0.0241
    8CHL1   H3'  522   4.607   3.246  10.581 -1.2880 -1.1339 -0.2097
    8CHL1    C4  523   4.582   3.153  10.289 -0.3025  0.1975  0.1008
    8CHL1   H4A  524   4.683   3.110  10.272 -0.9921 -1.6004  0.4050
    8CHL1   H4B  525   4.530   3.071  10.343  2.2978  0.5805  3.3777
    8CHL1    C5  526   4.516   3.187  10.159  0.2521  0.9719  0.1484
    8CHL1    C6  527   4.403   3.118  10.123  0.1021  0.0800 -0.1045
    8CHL1    H6  528   4.364   3.050  10.200 -2.0808  1.5768  0.1576
    8CHL1    C7  529   4.328   3.138   9.993  0.2815  0.1672  0.1421
    8CHL1   H7A  530   4.304   3.043   9.941 -1.3353 -0.4071  1.8949
    8CHL1   H7B  531   4.226   3.182   9.998 -1.1259 -2.5125 -2.9604
    8CHL1    C8  532   4.418   3.224   9.891  0.0480 -0.1204 -0.6927
    8CHL1    H8  533   4.500   3.168   9.842  1.2853  2.4749 -1.6962
    8CHL1   C14  534   4.329   3.279   9.781 -0.6329  0.2800  0.0382
    8CHL1   H14  535   4.252   3.345   9.825  0.7728  1.4758  0.7830
    8CHL1   C15  536   4.242   3.176   9.706  0.6807  0.3424 -0.3969
    8CHL1  H15A  537   4.282   3.074   9.689  0.4916  0.2823 -0.4849
    8CHL1  H15B  538   4.151   3.160   9.768  0.5532  1.3034 -0.3314
    8CHL1   C16  539   4.209   3.248   9.581  0.5455 -1.0554 -0.2131
    8CHL1  H16A  540   4.246   3.193   9.492  1.2605 -1.5138  0.3572
    8CHL1  H16B  541   4.104   3.282   9.577  0.4413 -1.4393 -0.7252
    8CHL1   C17  542   4.287   3.391   9.584 -0.2556  0.4497 -0.8220
    8CHL1   H17  543   4.220   3.459   9.640  2.0291  1.2329  1.0625
    8CHL1   C13  544   4.408   3.358   9.673  1.4574 -0.0996 -0.2759
    8CHL1   C18  545   4.513   3.270   9.592  0.5315 -0.0328 -0.1757
    8CHL1  H18A  546   4.543   3.335   9.507 -0.5339 -1.5631 -1.7480
    8CHL1  H18B  547   4.592   3.247   9.666  1.4352 -0.6247 -1.3001
    8CHL1  H18C  548   4.460   3.178   9.557 -0.4204  1.1198 -1.8642
    8CHL1   C12  549   4.476   3.479   9.740  0.1248  0.3360 -0.6591
    8CHL1  H12A  550   4.542   3.532   9.668 -1.0979  1.7776 -0.7341
    8CHL1  H12B  551   4.400   3.547   9.783  1.3535  1.5681 -0.3890
    8CHL1   C11  552   4.564   3.438   9.859  0.2588  0.3255 -0.2804
    8CHL1  H11A  553   4.654   3.391   9.813  0.9822  1.5173 -0.1059
    8CHL1  H11B  554   4.592   3.527   9.919 -1.1726  0.5583  0.0475
    8CHL1    C9  555   4.487   3.342   9.962  0.1719 -0.2319  0.3400
    8CHL1    H9  556   4.401   3.403   9.997  1.1197  1.8349 -0.7667
    8CHL1   C10  557   4.576   3.303  10.084  1.1211  0.4039  0.1964
    8CHL1   C19  558   4.719   3.256  10.036 -0.3415 -0.7490 -0.0422
    8CHL1  H19A  559   4.706   3.172   9.964  1.1460 -0.4323 -0.7107
    8CHL1  H19B  560   4.775   3.335   9.981 -0.4771  0.9405  2.1719
    8CHL1  H19C  561   4.786   3.215  10.115 -0.3371  1.5957  1.1989
    8CHL1    C1  562   4.580   3.416  10.192  0.2958  0.2494  0.0866
    8CHL1   H1A  563   4.625   3.510  10.152 -0.3100  0.4069 -0.2350
    8CHL1   H1B  564   4.478   3.448  10.224  0.7125  2.4593 -0.6639
    8CHL1    C2  565   4.659   3.378  10.321  0.9350 -0.3313  0.3304
    8CHL1   H2A  566   4.669   3.476  10.372  0.0673  0.7384 -1.4967
    8CHL1   H2B  567   4.768   3.365  10.301  1.9657  0.5903  4.8910
    8CHL1   C20  568   4.299   3.454   9.448  0.2917  0.2025  0.3279
    8CHL1   H20  569   4.381   3.403   9.394 -0.2133  0.2665 -0.5041
    8CHL1   C21  570   4.331   3.603   9.456 -0.7847 -0.4674  0.9794
    8CHL1  H21A  571   4.268   3.661   9.526  1.2709  0.7739  1.8432
    8CHL1  H21B  572   4.329   3.661   9.361  0.8255 -0.0067  1.2143
    8CHL1  H21C  573   4.434   3.614   9.496  0.6487 -0.5627 -2.5068
    8CHL1   C22  574   4.166   3.441   9.368  0.5351 -0.3813  0.1361
    8CHL1  H22A  575   4.152   3.334   9.341 -0.2317 -0.5710  1.2766
    8CHL1  H22B  576   4.089   3.463   9.445  0.7000 -0.2048  0.2532
    8CHL1   C23  577   4.153   3.511   9.231  0.2632  0.2863  0.2727
    8CHL1  H23A  578   4.119   3.617   9.243 -1.4009 -0.0181 -1.4616
    8CHL1  H23B  579   4.255   3.512   9.188  0.8240 -0.5664  1.5490
    8CHL1   C24  580   4.045   3.436   9.151  0.2309  0.3819 -0.3720
    8CHL1  H24A  581   4.099   3.347   9.112  0.9450  1.3072 -1.5557
    8CHL1  H24B  582   3.961   3.413   9.219  1.5735 -0.4068  1.0535
    8CHL1   C25  583   3.981   3.515   9.036 -0.3449  0.4534  0.0016
    8CHL1   H25  584   3.931   3.596   9.092 -0.3634  0.5072 -0.0920
    8CHL1   C26  585   4.081   3.572   8.930  0.2917  0.0657 -0.4239
    8CHL1  H26A  586   4.136   3.490   8.879 -1.6298 -1.6944  0.2799
    8CHL1  H26B  587   4.023   3.628   8.854 -2.9557 -0.4419  1.6133
    8CHL1  H26C  588   4.148   3.650   8.973  0.8226  0.1204 -1.3414
    8CHL1   C27  589   3.885   3.420   8.973 -0.7493  0.0039 -0.2331
    8CHL1  H27A  590   3.853   3.461   8.875 -0.4263 -3.2770 -1.7928
    8CHL1  H27B  591   3.929   3.318   8.963 -0.6855  0.1393 -1.3800
    8CHL1  H27C  592   3.795   3.412   9.038 -1.6231 -0.1683 -1.4460
    9CHL1    C3  593   6.728   6.407  10.084 -0.2221  0.0577  0.1727
    9CHL1    H3  594   6.648   6.471  10.043  0.4861  0.1696 -1.0454
    9CHL1    O3  595   6.711   6.420  10.226 -0.5351  0.4965 -0.3656
    9CHL1   H3'  596   6.802   6.411  10.256  0.0691  2.5401 -1.4244
    9CHL1    C4  597   6.695   6.263  10.039  0.3561  0.1007 -0.2486
    9CHL1   H4A  598   6.765   6.197  10.093 -0.0946 -1.7855 -1.9356
    9CHL1   H4B  599   6.589   6.240  10.063  0.7361  0.5883  2.0216
    9CHL1    C5  600   6.702   6.243   9.887  0.2595  0.3020 -0.1407
    9CHL1    C6  601   6.604   6.186   9.813  0.2669  0.2619  0.9040
    9CHL1    H6  602   6.508   6.150   9.850  1.2467 -2.2504  1.1010
    9CHL1    C7  603   6.603   6.174   9.663 -0.1202 -0.3041  0.4184
    9CHL1   H7A  604   6.584   6.068   9.636  2.3894 -0.6574 -0.0920
    9CHL1   H7B  605   6.517   6.237   9.631  0.7813  0.9462  0.4238
    9CHL1    C8  606   6.742   6.208   9.596 -0.8511 -0.1909  0.1180
    9CHL1    H8  607   6.818   6.127   9.608  0.0249  0.1551 -2.7750
    9CHL1   C14  608   6.721   6.241   9.447  0.5578  0.1023  0.4850
    9CHL1   H14  609   6.645   6.321   9.461 -0.0108 -0.1772 -0.8893
    9CHL1   C15  610   6.653   6.131   9.356  0.4753  0.1863  0.1998
    9CHL1  H15A  611   6.719   6.043   9.372  0.1500  0.1179  1.2288
    9CHL1  H15B  612   6.548   6.111   9.387  1.0805 -0.3761  1.9526
    9CHL1   C16  613   6.668   6.193   9.221  0.7759  0.0032 -0.2647
    9CHL1  H16A  614   6.707   6.126   9.142  0.1965  0.2394 -0.7543
    9CHL1  H16B  615   6.565   6.225   9.194  0.5997 -1.2455 -1.1318
    9CHL1   C17  616   6.767   6.321   9.233 -0.3665  0.5394  0.4708
    9CHL1   H17  617   6.708   6.415   9.241  1.3606  1.6871 -0.0774
    9CHL1   C13  618   6.839   6.293   9.368  0.1616  0.7950 -1.3287
    9CHL1   C18  619   6.940   6.177   9.354  0.1680  0.7600  0.0160
    9CHL1  H18A  620   6.912   6.094   9.286 -1.2818  0.1581  1.3178
    9CHL1  H18B  621   7.021   6.223   9.292 -0.2530 -0.8661 -1.8000
    9CHL1  H18C  622   6.974   6.145   9.454  0.9711  1.6687  0.0469
    9CHL1   C12  623   6.904   6.409   9.437 -0.2492  0.3236 -0.2152
    9CHL1  H12A  624   6.993   6.448   9.384 -0.0689 -0.4055 -0.4559
    9CHL1  H12B  625   6.836   6.496   9.440  0.5269  1.0060 -2.0869
    9CHL1   C11  626   6.937   6.374   9.587 -0.2626 -0.1873  0.0796
    9CHL1  H11A  627   7.013   6.293   9.591 -1.0673 -1.0085 -0.9482
    9CHL1  H11B  628   6.986   6.460   9.637 -0.5073 -0.0939  0.1583
    9CHL1    C9  629   6.803   6.328   9.670 -0.2857  0.0702  1.1317
    9CHL1    H9  630   6.729   6.409   9.653  1.9696  2.2554  1.4418
    9CHL1   C10  631   6.825   6.314   9.825 -1.3864 -0.2369 -0.0162
    9CHL1   C19  632   6.950   6.222   9.846 -0.0367 -0.7924  0.1269
    9CHL1  H19A  633   7.047   6.277   9.841 -0.1191 -0.6812 -0.2319
    9CHL1  H19B  634   6.944   6.169   9.944 -0.1554 -0.1643  0.4649
    9CHL1  H19C  635   6.948   6.139   9.773  1.7135 -1.5890  0.9456
    9CHL1    C1  636   6.840   6.456   9.883 -0.0479  0.4379  0.6391
    9CHL1   H1A  637   6.922   6.510   9.830 -2.1879 -0.3081 -3.7105
    9CHL1   H1B  638   6.741   6.501   9.860 -0.3350 -0.6853 -0.3498
    9CHL1    C2  639   6.859   6.458  10.035  0.1720  0.2628  0.1573
    9CHL1   H2A  640   6.875   6.562  10.072  0.1390 -0.0335  1.0282
    9CHL1   H2B  641   6.950   6.401  10.062 -0.3150 -0.1124  1.0313
    9CHL1   C20  642   6.850   6.333   9.104 -0.1548  0.3629 -0.3418
    9CHL1   H20  643   6.922   6.249   9.101 -2.2495 -1.4917 -0.5184
    9CHL1   C21  644   6.939   6.462   9.112 -0.0148 -0.2734 -0.2871
    9CHL1  H21A  645   6.988   6.487   9.016 -0.0474 -0.3863 -0.3345
    9CHL1  H21B  646   7.017   6.446   9.190 -0.2059 -0.9958 -0.2384
    9CHL1  H21C  647   6.864   6.541   9.135  1.2824  0.7283  0.5889
    9CHL1   C22  648   6.768   6.331   8.971 -0.3798  0.6334 -0.0519
    9CHL1  H22A  649   6.699   6.245   8.965 -1.1385  1.3975 -3.0074
    9CHL1  H22B  650   6.699   6.417   8.985 -1.9993 -0.2953 -2.1702
    9CHL1   C23  651   6.844   6.340   8.846 -0.7037 -0.6116  0.4201
    9CHL1  H23A  652   6.875   6.447   8.843 -2.0764 -0.2149 -0.2514
    9CHL1  H23B  653   6.927   6.266   8.839 -0.5184 -0.2961 -0.8076
    9CHL1   C24  654   6.768   6.322   8.720  0.2794  0.2222  0.2377
    9CHL1  H24A  655   6.733   6.217   8.718 -0.4790  0.4453  1.4756
    9CHL1  H24B  656   6.672   6.377   8.713  0.6524  1.0099  1.2247
    9CHL1   C25  657   6.840   6.374   8.594  0.3472 -1.1478 -0.2877
    9CHL1   H25  658   6.856   6.483   8.606  0.2411 -1.1097 -0.5046
    9CHL1   C26  659   6.982   6.314   8.583  0.1113 -0.0661  0.1999
    9CHL1  H26A  660   6.978   6.255   8.489 -3.1187  2.3741 -1.3075
    9CHL1  H26B  661   7.062   6.390   8.576 -0.8046  0.8036 -0.8566
    9CHL1  H26C  662   7.005   6.241   8.664  1.6348  0.5295  0.3178
    9CHL1   C27  663   6.755   6.347   8.472 -0.2166  0.3970  0.4255
    9CHL1  H27A  664   6.816   6.394   8.392  0.5245 -3.7525 -1.5620
    9CHL1  H27B  665   6.767   6.238   8.460 -0.5766  0.2521  1.3619
    9CHL1  H27C  666   6.650   6.384   8.468 -0.5135 -0.5093 -0.5803
   10CHL1    C3  667   6.572   3.373  10.147 -0.2115  0.6234  0.7313
   10CHL1    H3  668   6.559   3.263  10.152  0.0290  0.6269  1.5348
   10CHL1    O3  669   6.602   3.415  10.275 -0.4711 -0.3226 -0.7306
   10CHL1   H3'  670   6.608   3.510  10.267  0.9078 -0.3705 -0.4068
   10CHL1    C4  671   6.694   3.407  10.056  0.4447  0.2527  0.5760
   10CHL1   H4A  672   6.712   3.515  10.077 -0.8175  0.2691  1.6601
   10CHL1   H4B  673   6.775   3.339  10.088 -0.1904 -0.2650  1.0825
   10CHL1    C5  674   6.660   3.383   9.909  0.0697 -0.2307 -0.2195
   10CHL1    C6  675   6.728   3.298   9.836  0.6525  0.5733  0.2089
   10CHL1    H6  676   6.808   3.238   9.883 -1.2600 -2.4263 -0.2361
   10CHL1    C7  677   6.703   3.274   9.685 -1.0925 -0.5737  0.6926
   10CHL1   H7A  678   6.802   3.273   9.634 -0.4528 -2.0602  1.9217
   10CHL1   H7B  679   6.668   3.172   9.660 -2.1762 -0.0445  0.0254
   10CHL1    C8  680   6.614   3.385   9.617  0.2198 -0.7005  0.4293
   10CHL1    H8  681   6.681   3.474   9.613 -1.3994  0.5422  0.3848
   10CHL1   C14  682   6.562   3.340   9.481 -0.0208  0.5477  0.5085
   10CHL1   H14  683   6.510   3.249   9.515 -1.4197  0.4244 -1.8413
   10CHL1   C15  684   6.663   3.309   9.369  0.2003  0.2741 -0.7257
   10CHL1  H15A  685   6.742   3.388   9.365  0.6891 -0.1678 -0.0021
   10CHL1  H15B  686   6.708   3.208   9.380  1.4395  0.9259  0.2709
   10CHL1   C16  687   6.581   3.313   9.244 -0.0426 -0.0101  0.0228
   10CHL1  H16A  688   6.641   3.369   9.171 -0.2346 -1.6916 -1.4601
   10CHL1  H16B  689   6.572   3.210   9.202 -1.1458  0.0634  0.0613
   10CHL1   C17  690   6.445   3.383   9.274 -0.2038  0.1882 -0.0665
   10CHL1   H17  691   6.369   3.303   9.288  1.9839 -2.1998 -1.3838
   10CHL1   C13  692   6.462   3.445   9.416 -0.1779 -0.4814 -1.4150
   10CHL1   C18  693   6.540   3.576   9.389 -0.5891 -0.2313 -0.0277
   10CHL1  H18A  694   6.628   3.556   9.324  0.5195  2.1305  0.6753
   10CHL1  H18B  695   6.481   3.665   9.357 -0.2007 -0.2341 -0.7788
   10CHL1  H18C  696   6.584   3.617   9.482 -1.6463  2.5167 -0.6666
   10CHL1   C12  697   6.339   3.458   9.509 -0.0914  0.1013 -0.1269
   10CHL1  H12A  698   6.260   3.526   9.470 -0.6173 -1.5554 -2.0791
   10CHL1  H12B  699   6.291   3.358   9.520  0.6855 -0.2288  0.2962
   10CHL1   C11  700   6.383   3.502   9.650  0.7965  0.0659  0.1046
   10CHL1  H11A  701   6.420   3.606   9.632  0.9225 -0.1245 -0.7710
   10CHL1  H11B  702   6.293   3.496   9.714 -0.0991  3.1000 -0.7681
   10CHL1    C9  703   6.495   3.412   9.710  0.1116  0.1193  0.1308
   10CHL1    H9  704   6.458   3.308   9.725 -1.2835  0.8186  1.6760
   10CHL1   C10  705   6.529   3.453   9.854 -0.2515 -0.4250  0.4690
   10CHL1   C19  706   6.561   3.604   9.854 -0.2509  0.4958  0.7519
   10CHL1  H19A  707   6.609   3.641   9.947  0.4387 -0.8761  0.9573
   10CHL1  H19B  708   6.629   3.621   9.767  0.4207  0.8237  1.3385
   10CHL1  H19C  709   6.462   3.654   9.846 -0.5020 -0.1838 -0.7675
   10CHL1    C1  710   6.413   3.421   9.954  0.5965  0.5449  0.1638
   10CHL1   H1A  711   6.324   3.481   9.927  0.1150  1.0492  2.7391
   10CHL1   H1B  712   6.382   3.316   9.933 -0.3535  0.1697  3.1863
   10CHL1    C2  713   6.445   3.446  10.102 -0.8796 -0.1873 -0.7885
   10CHL1   H2A  714   6.361   3.401  10.160 -1.0353  0.9830 -0.0951
   10CHL1   H2B  715   6.447   3.553  10.131  3.7554 -0.6931  1.1941
   10CHL1   C20  716   6.392   3.469   9.154 -0.7030 -0.6211 -0.5649
   10CHL1   H20  717   6.451   3.563   9.148 -1.8949  0.0414 -2.3981
   10CHL1   C21  718   6.243   3.503   9.187 -0.1499 -0.6438  0.1556
   10CHL1  H21A  719   6.184   3.415   9.221 -1.6440  0.1264 -0.4174
   10CHL1  H21B  720   6.196   3.546   9.096 -1.2092  0.0751  1.0265
   10CHL1  H21C  721   6.232   3.593   9.251  1.6064 -0.7158  0.5815
   10CHL1   C22  722   6.393   3.389   9.023  0.4307 -0.0329 -0.3377
   10CHL1  H22A  723   6.489   3.337   9.002  1.1204  0.1758  2.1919
   10CHL1  H22B  724   6.319   3.306   9.026  0.8100 -0.5009 -2.7978
   10CHL1   C23  725   6.366   3.461   8.893 -1.1646  0.2282  0.0721
   10CHL1  H23A  726   6.272   3.518   8.907 -1.7446 -0.4649 -0.9357
   10CHL1  H23B  727   6.458   3.521   8.882  0.6075 -2.2853  0.5871
   10CHL1   C24  728   6.361   3.364   8.776 -0.3226 -0.5141 -0.9341
   10CHL1  H24A  729   6.456   3.307   8.788 -0.7102 -0.6819  1.5783
   10CHL1  H24B  730   6.270   3.302   8.788 -1.8784  1.6164 -1.4220
   10CHL1   C25  731   6.342   3.437   8.643 -1.5615  0.6252  0.3593
   10CHL1   H25  732   6.243   3.485   8.626 -2.3347 -1.5108 -1.5623
   10CHL1   C26  733   6.461   3.539   8.607  0.6117  0.4979 -0.4690
   10CHL1  H26A  734   6.440   3.627   8.671 -0.2908 -0.0994  0.0861
   10CHL1  H26B  735   6.558   3.489   8.625  2.2872  3.4099 -1.1625
   10CHL1  H26C  736   6.451   3.561   8.499  1.0069  1.5271 -0.2959
   10CHL1   C27  737   6.346   3.336   8.527 -0.7028  0.3078 -0.2451
   10CHL1  H27A  738   6.441   3.280   8.525 -2.4733 -2.8131 -0.0735
   10CHL1  H27B  739   6.271   3.257   8.552  0.8024 -0.3858  2.2029
   10CHL1  H27C  740   6.332   3.375   8.423  2.6501  4.5757  0.7678
   11CHL1    C3  741   1.489   6.688   9.939  1.3351 -0.3509  0.0596
   11CHL1    H3  742   1.569   6.764   9.956  0.5112  0.4838  0.2816
   11CHL1    O3  743   1.427   6.642  10.059 -0.4291  0.4506  0.0849
   11CHL1   H3'  744   1.500   6.625  10.119 -0.5113 -3.0816 -0.7165
   11CHL1    C4  745   1.366   6.719   9.845  0.5327  0.2707  0.1742
   11CHL1   H4A  746   1.303   6.628   9.849 -0.8499  1.1841 -0.1202
   11CHL1   H4B  747   1.307   6.806   9.883  1.3222  2.5800 -3.6309
   11CHL1    C5  748   1.424   6.766   9.710  0.8238 -0.5095 -0.2738
   11CHL1    C6  749   1.418   6.891   9.658  1.0958 -0.6393 -0.5264
   11CHL1    H6  750   1.363   6.968   9.714  2.4454 -0.7455  1.0060
   11CHL1    C7  751   1.461   6.929   9.520  0.4804  0.2308 -0.7763
   11CHL1   H7A  752   1.371   6.975   9.475  1.4387  3.0168  0.0338
   11CHL1   H7B  753   1.539   7.008   9.529 -0.3504  1.0448 -0.6287
   11CHL1    C8  754   1.498   6.807   9.429  0.2078  0.5068 -0.3734
   11CHL1    H8  755   1.411   6.754   9.385 -1.2090  1.4515  1.2184
   11CHL1   C14  756   1.582   6.858   9.314 -0.4748 -0.6583 -0.3352
   11CHL1   H14  757   1.679   6.875   9.364 -0.8611 -1.4957  0.7147
   11CHL1   C15  758   1.530   6.978   9.237  0.0173 -0.4525  1.0796
   11CHL1  H15A  759   1.424   6.963   9.206  0.0832  0.2451  0.4958
   11CHL1  H15B  760   1.537   7.075   9.291  1.1247 -0.4511  0.9467
   11CHL1   C16  761   1.616   6.974   9.108 -0.0036  0.0138  0.1235
   11CHL1  H16A  762   1.554   6.992   9.018 -2.1086  1.9991  1.8991
   11CHL1  H16B  763   1.691   7.056   9.110  0.2153 -0.1861  2.4439
   11CHL1   C17  764   1.692   6.834   9.103  0.1504  0.1249 -0.2557
   11CHL1   H17  765   1.794   6.855   9.143  0.2024  0.9978 -0.8254
   11CHL1   C13  766   1.621   6.749   9.205 -0.2133 -0.2281  0.0991
   11CHL1   C18  767   1.507   6.672   9.138  0.2318  0.3807 -0.1146
   11CHL1  H18A  768   1.464   6.730   9.053  1.1269 -1.4517 -1.8662
   11CHL1  H18B  769   1.542   6.577   9.093 -2.9883 -1.2634  0.6839
   11CHL1  H18C  770   1.432   6.646   9.216  0.1695 -1.4118 -0.7464
   11CHL1   C12  771   1.706   6.642   9.289 -0.2027  0.7063  0.0172
   11CHL1  H12A  772   1.746   6.566   9.220  1.1096  1.7987 -0.4537
   11CHL1  H12B  773   1.800   6.690   9.325 -2.0165  2.8138  2.1896
   11CHL1   C11  774   1.631   6.588   9.413  0.1310  0.0083  0.2809
   11CHL1  H11A  775   1.545   6.523   9.385  0.2990  0.1848 -0.6808
   11CHL1  H11B  776   1.699   6.524   9.472  0.7979  0.8603  0.4397
   11CHL1    C9  777   1.578   6.707   9.507  0.4788  0.0391 -0.4470
   11CHL1    H9  778   1.667   6.767   9.537 -0.4372  2.2433 -1.9983
   11CHL1   C10  779   1.506   6.660   9.641 -0.1278 -0.1433  0.1807
   11CHL1   C19  780   1.408   6.546   9.594 -0.2011 -0.7744 -0.2116
   11CHL1  H19A  781   1.338   6.515   9.674 -0.9535 -0.1978 -0.6456
   11CHL1  H19B  782   1.351   6.575   9.503 -1.1949 -1.0093  0.3376
   11CHL1  H19C  783   1.465   6.455   9.563  0.0762 -0.1220 -1.6712
   11CHL1    C1  784   1.614   6.607   9.734  0.4311  0.2116 -0.5787
   11CHL1   H1A  785   1.665   6.522   9.683  0.5638  1.7007 -3.0320
   11CHL1   H1B  786   1.680   6.694   9.752  1.5717 -0.5606 -0.9564
   11CHL1    C2  787   1.559   6.565   9.876 -0.2446 -0.9789 -0.0054
   11CHL1   H2A  788   1.640   6.524   9.941  0.0022  0.8991  0.9159
   11CHL1   H2B  789   1.482   6.486   9.862 -2.0373  0.4895  1.3406
   11CHL1   C20  790   1.727   6.780   8.966  0.1719 -0.2507 -0.1621
   11CHL1   H20  791   1.729   6.669   8.972  1.5405 -0.2690 -0.6207
   11CHL1   C21  792   1.872   6.817   8.934 -0.2164 -0.5596  0.7273
   11CHL1  H21A  793   1.940   6.790   9.018 -0.8376 -0.4971  1.2558
   11CHL1  H21B  794   1.876   6.925   8.912  1.1175 -0.4402  1.4639
   11CHL1  H21C  795   1.916   6.771   8.843 -0.3270  1.0190 -0.1257
   11CHL1   C22  796   1.640   6.819   8.849  0.1091 -0.3718 -0.0951
   11CHL1  H22A  797   1.535   6.792   8.876 -0.2834  0.8169 -0.3942
   11CHL1  H22B  798   1.645   6.930   8.840 -0.1291 -0.4505 -1.4096
   11CHL1   C23  799   1.660   6.746   8.716 -0.9057  0.6608 -0.1763
   11CHL1  H23A  800   1.763   6.755   8.675 -0.3439  0.2239  1.1167
   11CHL1  H23B  801   1.646   6.638   8.740 -1.4608  0.8470  0.3773
   11CHL1   C24  802   1.565   6.782   8.601 -0.9531  0.3798 -0.6326
   11CHL1  H24A  803   1.461   6.781   8.641 -0.4580 -2.7209  0.7563
   11CHL1  H24B  804   1.588   6.883   8.561 -1.5863  0.0474 -1.8800
   11CHL1   C25  805   1.569   6.682   8.486 -0.1307  0.4881 -0.1871
   11CHL1   H25  806   1.545   6.582   8.528  1.6273  1.4408  3.2769
   11CHL1   C26  807   1.446   6.714   8.397  0.8549 -0.3381 -0.2196
   11CHL1  H26A  808   1.433   6.636   8.320 -0.3709 -0.8404  0.4769
   11CHL1  H26B  809   1.353   6.717   8.458  1.3751 -1.9386  0.6804
   11CHL1  H26C  810   1.470   6.814   8.354  1.7673 -1.1449 -1.6024
   11CHL1   C27  811   1.702   6.692   8.404 -0.6581  0.4080 -0.7823
   11CHL1  H27A  812   1.791   6.697   8.470  0.8021  1.7420 -2.8053
   11CHL1  H27B  813   1.717   6.610   8.330  0.4093 -0.2508  0.1519
   11CHL1  H27C  814   1.719   6.792   8.360 -1.6257  1.4815  1.2295
   12CHL1    C3  815   5.158   2.675  10.281 -0.6777  0.1682  0.1242
   12CHL1    H3  816   5.238   2.751  10.272  0.8439 -1.1529  2.1271
   12CHL1    O3  817   5.154   2.642  10.417 -0.4828  0.1975 -0.5015
   12CHL1   H3'  818   5.066   2.605  10.427 -0.7080  0.5863 -1.0271
   12CHL1    C4  819   5.024   2.739  10.233  0.7882 -0.7953  0.0326
   12CHL1   H4A  820   4.951   2.669  10.279  0.4642 -1.1091 -0.9621
   12CHL1   H4B  821   5.016   2.831  10.295  0.7391 -1.6133  1.2560
   12CHL1    C5  822   5.011   2.764  10.087 -0.2602 -0.2278 -0.0529
   12CHL1    C6  823   4.978   2.880  10.022 -0.1683  0.4286  0.0624
   12CHL1    H6  824   4.956   2.972  10.080  1.8306  1.7955 -1.2563
   12CHL1    C7  825   4.976   2.908   9.875  0.1457  0.4814 -0.5709
   12CHL1   H7A  826   4.882   2.961   9.850  0.5006  0.9578 -0.9253
   12CHL1   H7B  827   5.050   2.988   9.850  0.3645  0.3682 -0.2811
   12CHL1    C8  828   4.995   2.782   9.790  0.4161  0.6495 -0.4324
   12CHL1    H8  829   4.904   2.719   9.779  1.7896 -0.9559 -3.3466
   12CHL1   C14  830   5.037   2.821   9.645  0.3756 -0.2941 -1.0469
   12CHL1   H14  831   5.132   2.877   9.650 -0.0077  0.4264 -1.7989
   12CHL1   C15  832   4.953   2.919   9.567  0.1065  0.0442  0.1261
   12CHL1  H15A  833   4.843   2.905   9.575  0.1930 -1.3780 -1.0219
   12CHL1  H15B  834   4.983   3.019   9.605  0.7574 -0.2778  0.4666
   12CHL1   C16  835   4.998   2.894   9.423  0.2013 -0.5816 -0.1601
   12CHL1  H16A  836   4.910   2.865   9.362 -0.2470 -1.2980  0.8086
   12CHL1  H16B  837   5.036   2.990   9.382 -0.7652 -0.4630 -0.7874
   12CHL1   C17  838   5.102   2.783   9.422  0.5707 -0.0887  0.1043
   12CHL1   H17  839   5.198   2.837   9.432  1.1188 -0.8079 -1.1112
   12CHL1   C13  840   5.070   2.709   9.551  0.8185 -0.7026  0.8203
   12CHL1   C18  841   4.944   2.619   9.523  0.0863 -0.0456  0.0568
   12CHL1  H18A  842   4.861   2.686   9.494  2.3064  2.2409 -1.1865
   12CHL1  H18B  843   4.949   2.538   9.447 -1.2530  1.9693 -2.2268
   12CHL1  H18C  844   4.909   2.582   9.622  1.4457 -0.2516  0.4766
   12CHL1   C12  845   5.180   2.620   9.622 -0.1830 -1.2949  0.7438
   12CHL1  H12A  846   5.190   2.533   9.554 -1.1487 -1.7985  1.2410
   12CHL1  H12B  847   5.277   2.674   9.627 -0.6142 -0.5540  1.2734
   12CHL1   C11  848   5.137   2.571   9.762 -0.2604 -0.5059 -0.5829
   12CHL1  H11A  849   5.047   2.509   9.743  0.1322 -0.4818 -2.6405
   12CHL1  H11B  850   5.222   2.508   9.795 -0.5493  0.6152  2.3596
   12CHL1    C9  851   5.104   2.692   9.850 -0.1910  0.5705 -0.2612
   12CHL1    H9  852   5.196   2.754   9.849  1.0830 -1.2736 -1.7861
   12CHL1   C10  853   5.071   2.647   9.999 -0.2204 -0.1829 -0.3679
   12CHL1   C19  854   4.960   2.539  10.002 -0.7319  0.2598  0.5008
   12CHL1  H19A  855   4.954   2.486  10.100 -0.6542 -0.6011  0.0434
   12CHL1  H19B  856   4.856   2.576   9.987 -0.8669 -0.3846 -0.1930
   12CHL1  H19C  857   4.979   2.468   9.919 -0.7951 -1.5164  1.9645
   12CHL1    C1  858   5.208   2.579  10.059  0.6155 -0.3293  0.2758
   12CHL1   H1A  859   5.230   2.485  10.005 -2.8069 -1.4166  0.6283
   12CHL1   H1B  860   5.291   2.652  10.046  0.7323 -0.4658  0.2507
   12CHL1    C2  861   5.202   2.548  10.208  0.3922 -0.0012  0.0114
   12CHL1   H2A  862   5.305   2.521  10.241 -0.3108 -0.6442  1.7423
   12CHL1   H2B  863   5.133   2.461  10.214 -0.6659  0.7937 -0.4250
   12CHL1   C20  864   5.105   2.711   9.283  0.0295 -0.5324  0.5933
   12CHL1   H20  865   5.012   2.652   9.269  0.1013 -1.2226  2.9225
   12CHL1   C21  866   5.224   2.618   9.284  0.4357 -0.6655 -0.4653
   12CHL1  H21A  867   5.241   2.572   9.185 -0.5279 -1.2984 -0.3397
   12CHL1  H21B  868   5.210   2.535   9.356  0.9997 -0.3159  0.0636
   12CHL1  H21C  869   5.316   2.676   9.309  0.9718 -1.2848 -0.9898
   12CHL1   C22  870   5.118   2.823   9.168 -0.4215  0.4827  0.0665
   12CHL1  H22A  871   5.036   2.898   9.174  0.7656  1.7105  1.3047
   12CHL1  H22B  872   5.202   2.890   9.195 -0.7070 -0.0911  2.5663
   12CHL1   C23  873   5.112   2.768   9.027  0.7101  0.2343  0.8550
   12CHL1  H23A  874   5.130   2.845   8.949 -2.0997  0.5796  0.4838
   12CHL1  H23B  875   5.203   2.706   9.010  0.4984  0.3396 -0.8121
   12CHL1   C24  876   4.982   2.695   8.980  0.5843  0.4434 -0.2276
   12CHL1  H24A  877   4.949   2.621   9.056  2.7619  0.5931  0.9064
   12CHL1  H24B  878   4.909   2.776   8.963  0.7255  0.2099 -2.1576
   12CHL1   C25  879   4.984   2.634   8.840 -0.1250  0.0313 -0.0258
   12CHL1   H25  880   5.003   2.709   8.761  3.0219 -0.0846  0.5479
   12CHL1   C26  881   5.084   2.522   8.818 -0.3014  0.6650 -0.3153
   12CHL1  H26A  882   5.083   2.503   8.709 -0.0367 -0.6544 -0.1021
   12CHL1  H26B  883   5.185   2.545   8.858  0.1151  0.6463 -1.3490
   12CHL1  H26C  884   5.059   2.430   8.875  3.4370  1.1347  2.2782
   12CHL1   C27  885   4.845   2.577   8.816  0.2898 -0.0328 -0.1227
   12CHL1  H27A  886   4.762   2.647   8.843  2.2779  2.0852  0.7029
   12CHL1  H27B  887   4.827   2.544   8.712 -3.3989  0.0955  0.4209
   12CHL1  H27C  888   4.825   2.494   8.887 -1.5416  0.2089 -0.3256
   13CHL1    C3  889   4.331   4.613   9.946 -0.1560 -0.6267 -0.2656
   13CHL1    H3  890   4.239   4.573   9.993  0.5753 -0.4450  1.3244
   13CHL1    O3  891   4.440   4.623  10.038  0.3025  0.0943  0.4153
   13CHL1   H3'  892   4.417   4.693  10.099 -1.7863  1.0081 -1.3290
   13CHL1    C4  893   4.376   4.516   9.836  0.1919  0.0223 -0.3389
   13CHL1   H4A  894   4.467   4.559   9.791 -0.6797  1.3345 -0.8696
   13CHL1   H4B  895   4.407   4.418   9.879  1.0901 -0.0801 -1.2218
   13CHL1    C5  896   4.270   4.497   9.732  0.1062 -0.0223 -0.0771
   13CHL1    C6  897   4.205   4.381   9.720 -0.1738  0.0822  0.0104
   13CHL1    H6  898   4.246   4.303   9.785 -1.1689 -0.8352 -0.4454
   13CHL1    C7  899   4.093   4.364   9.624 -0.3544  0.2960 -0.7943
   13CHL1   H7A  900   4.093   4.269   9.566  1.7333  0.6938 -1.4866
   13CHL1   H7B  901   3.995   4.375   9.675  0.1530  0.1597  0.2279
   13CHL1    C8  902   4.094   4.469   9.509  0.2132  0.0231 -0.3929
   13CHL1    H8  903   4.184   4.455   9.446  0.2549  0.6986 -0.4879
   13CHL1   C14  904   3.968   4.461   9.429  0.2404  0.4699 -0.1851
   13CHL1   H14  905   3.886   4.479   9.502  1.8200  0.3153  1.6947
   13CHL1   C15  906   3.926   4.326   9.376  0.1857 -0.3673 -0.1011
   13CHL1  H15A  907   4.018   4.281   9.333  0.3406  0.9260 -1.1560
   13CHL1  H15B  908   3.886   4.261   9.457  0.6029 -2.2289 -1.3629
   13CHL1   C16  909   3.822   4.362   9.269  0.6136 -0.0521 -0.4112
   13CHL1  H16A  910   3.876   4.330   9.177  3.2362 -0.2399  1.1364
   13CHL1  H16B  911   3.729   4.310   9.299  0.9665  0.4883  1.6606
   13CHL1   C17  912   3.815   4.522   9.256 -0.0428  0.3922 -0.0777
   13CHL1   H17  913   3.736   4.558   9.326  0.4905  2.3172 -0.4410
   13CHL1   C13  914   3.947   4.564   9.318 -0.1365 -0.0144 -0.6337
   13CHL1   C18  915   4.053   4.543   9.207  0.0477 -1.2657 -0.2596
   13CHL1  H18A  916   4.057   4.634   9.144  1.1175 -1.3682 -0.3400
   13CHL1  H18B  917   4.155   4.538   9.250  0.8382 -0.3949 -2.0088
   13CHL1  H18C  918   4.037   4.447   9.153 -0.2530 -1.6567  0.5068
   13CHL1   C12  919   3.958   4.707   9.375  0.2104  0.4011 -1.0155
   13CHL1  H12A  920   3.964   4.778   9.290  0.6451 -0.1654 -1.4638
   13CHL1  H12B  921   3.867   4.724   9.436  0.3640 -2.4420  0.1264
   13CHL1   C11  922   4.084   4.720   9.466  0.1686  0.0259 -0.0684
   13CHL1  H11A  923   4.167   4.718   9.391  1.1301  1.1426  0.9571
   13CHL1  H11B  924   4.076   4.819   9.514 -2.5022 -0.4576  0.5678
   13CHL1    C9  925   4.102   4.605   9.566 -0.6603 -0.1279 -0.1004
   13CHL1    H9  926   4.018   4.608   9.640 -1.9084  3.0783 -1.5522
   13CHL1   C10  927   4.233   4.625   9.657 -0.7326 -0.3972  0.0383
   13CHL1   C19  928   4.351   4.666   9.561 -0.5292  0.8964  0.1480
   13CHL1  H19A  929   4.448   4.668   9.615  0.4393  0.4507 -1.5616
   13CHL1  H19B  930   4.352   4.601   9.472 -0.3168 -1.2797  1.7079
   13CHL1  H19C  931   4.331   4.773   9.538 -3.2497  0.7335  1.5186
   13CHL1    C1  932   4.198   4.736   9.763 -0.3868 -0.2473  0.2000
   13CHL1   H1A  933   4.188   4.829   9.703 -1.5452 -0.9288 -0.6859
   13CHL1   H1B  934   4.096   4.711   9.798 -0.7501  0.1733 -0.5568
   13CHL1    C2  935   4.296   4.747   9.889 -0.0026 -0.0610 -0.3586
   13CHL1   H2A  936   4.253   4.812   9.968  0.3652  0.2288 -0.3962
   13CHL1   H2B  937   4.395   4.790   9.863  0.8613 -1.4496  0.5920
   13CHL1   C20  938   3.778   4.570   9.118 -0.1520  0.7683  0.7141
   13CHL1   H20  939   3.862   4.542   9.051 -0.0776  0.0923  1.0799
   13CHL1   C21  940   3.775   4.726   9.112 -0.7489  0.1642  0.7033
   13CHL1  H21A  941   3.878   4.766   9.116 -1.1499  1.4916 -1.4331
   13CHL1  H21B  942   3.716   4.765   9.198  0.3911  0.2401  1.4563
   13CHL1  H21C  943   3.735   4.761   9.014  0.6764  1.3697  0.5337
   13CHL1   C22  944   3.650   4.499   9.061  0.0114 -0.4147  0.4284
   13CHL1  H22A  945   3.615   4.533   8.961  0.2899 -1.3508  0.0018
   13CHL1  H22B  946   3.661   4.389   9.046 -1.6581 -0.3422 -1.6481
   13CHL1   C23  947   3.524   4.537   9.136 -0.6183 -0.5933 -0.2305
   13CHL1  H23A  948   3.530   4.531   9.247  0.9494  0.6406 -0.2239
   13CHL1  H23B  949   3.512   4.647   9.125  1.2197 -0.4739 -1.2072
   13CHL1   C24  950   3.392   4.476   9.095  0.4974 -0.1875 -0.3220
   13CHL1  H24A  951   3.383   4.461   8.985  1.8872  0.0693 -0.4872
   13CHL1  H24B  952   3.382   4.377   9.145 -3.1821  0.9857  1.4604
   13CHL1   C25  953   3.256   4.552   9.147 -0.2834 -0.3317  0.3320
   13CHL1   H25  954   3.259   4.660   9.120  1.4751 -0.1839  1.0366
   13CHL1   C26  955   3.125   4.504   9.073  0.0041  0.4234  0.6667
   13CHL1  H26A  956   3.149   4.479   8.968  1.5520  2.2282  0.5424
   13CHL1  H26B  957   3.094   4.417   9.134  1.1948 -1.6291 -1.5944
   13CHL1  H26C  958   3.051   4.585   9.058 -0.0023  0.0986 -1.1146
   13CHL1   C27  959   3.241   4.525   9.297  0.2137  0.8774  0.2491
   13CHL1  H27A  960   3.242   4.417   9.322  0.8305  0.1898 -2.6475
   13CHL1  H27B  961   3.328   4.567   9.352  0.7055  0.7798 -0.4599
   13CHL1  H27C  962   3.151   4.569   9.345  0.6426  0.9150  1.0227
   14CHL1    C3  963   3.824   0.936  10.331 -0.3319  0.1239  0.3172
   14CHL1    H3  964   3.931   0.963  10.324  0.7252 -4.2854 -2.3010
   14CHL1    O3  965   3.804   0.909  10.469 -0.0408  0.3371  0.4078
   14CHL1   H3'  966   3.723   0.859  10.468  0.7473 -0.9764  0.6448
   14CHL1    C4  967   3.736   1.051  10.274 -0.0130 -0.6174  0.5601
   14CHL1   H4A  968   3.628   1.034  10.292 -0.6513  1.8195 -0.8063
   14CHL1   H4B  969   3.758   1.141  10.335  0.5868 -0.2493 -0.1945
   14CHL1    C5  970   3.753   1.075  10.128 -0.2578 -0.2760  0.2136
   14CHL1    C6  971   3.754   1.196  10.070 -0.4187  0.6014  0.1402
   14CHL1    H6  972   3.741   1.279  10.140  0.1721  0.9802 -0.1938
   14CHL1    C7  973   3.738   1.221   9.922  0.0243  0.3759 -0.4106
   14CHL1   H7A  974   3.654   1.293   9.917  1.5519  2.1825 -0.8282
   14CHL1   H7B  975   3.828   1.281   9.895  0.2655  1.6208  2.8386
   14CHL1    C8  976   3.741   1.090   9.837  0.4922 -0.3613  0.1386
   14CHL1    H8  977   3.635   1.057   9.829  0.5472 -1.0286  2.0166
   14CHL1   C14  978   3.785   1.112   9.694 -0.4689  0.0988  0.0704
   14CHL1   H14  979   3.893   1.123   9.718 -0.6452  1.9496  0.0853
   14CHL1   C15  980   3.728   1.232   9.620 -0.2073  0.8924 -0.6347
   14CHL1  H15A  981   3.617   1.234   9.628 -0.2529  1.0385 -1.2655
   14CHL1  H15B  982   3.771   1.328   9.655  1.1020  0.2566 -0.4568
   14CHL1   C16  983   3.767   1.201   9.473 -0.3163  0.2205  0.0282
   14CHL1  H16A  984   3.675   1.218   9.413 -0.4601 -0.5983  0.0127
   14CHL1  H16B  985   3.838   1.281   9.443  0.4819 -0.7706 -0.7686
   14CHL1   C17  986   3.822   1.049   9.476  0.5135 -0.0714 -0.3428
   14CHL1   H17  987   3.930   1.047   9.503  0.3755 -1.2046  0.1393
   14CHL1   C13  988   3.770   0.994   9.604  0.0922 -0.2236  0.0785
   14CHL1   C18  989   3.625   0.958   9.592 -0.7898  0.1629 -0.4179
   14CHL1  H18A  990   3.563   1.045   9.563 -1.7698 -0.8009 -1.2533
   14CHL1  H18B  991   3.616   0.870   9.523 -1.7200  0.0825 -0.2048
   14CHL1  H18C  992   3.584   0.917   9.687  0.9402  0.0877  0.3243
   14CHL1   C12  993   3.849   0.875   9.662  0.3163  0.0899 -0.1980
   14CHL1  H12A  994   3.822   0.774   9.623 -3.2265  0.0549  2.0415
   14CHL1  H12B  995   3.956   0.895   9.642 -0.0588  1.2327 -1.1114
   14CHL1   C11  996   3.828   0.852   9.811 -0.4445 -0.4142 -0.3443
   14CHL1  H11A  997   3.739   0.788   9.825 -0.1988 -0.2555  2.1930
   14CHL1  H11B  998   3.917   0.798   9.852 -0.1717  0.7256  0.5974
   14CHL1    C9  999   3.808   0.978   9.900  1.1095  0.0949 -0.7937
   14CHL1    H9 1000   3.911   1.005   9.928  1.0315 -1.2864  0.9122
   14CHL1   C10 1001   3.748   0.948  10.033 -0.0330  0.2534 -0.3089
   14CHL1   C19 1002   3.598   0.904  10.020 -0.6201 -0.1215 -0.3074
   14CHL1  H19A 1003   3.586   0.822   9.945 -0.1433 -0.4773  0.0010
   14CHL1  H19B 1004   3.571   0.857  10.117 -2.3323  3.5831  1.0866
   14CHL1  H19C 1005   3.535   0.990   9.989  1.3481  1.2337 -0.5816
   14CHL1    C1 1006   3.832   0.833  10.105  0.2109  0.2069  0.1376
   14CHL1   H1A 1007   3.832   0.739  10.046  0.7931  0.5104 -0.3558
   14CHL1   H1B 1008   3.936   0.869  10.093 -0.6693  2.7171 -0.4553
   14CHL1    C2 1009   3.805   0.806  10.254  0.0338 -0.8280  0.6572
   14CHL1   H2A 1010   3.866   0.724  10.297  2.9542  0.5634 -0.6582
   14CHL1   H2B 1011   3.700   0.770  10.254 -0.5577  0.8618  0.3575
   14CHL1   C20 1012   3.809   0.960   9.351 -0.0765  0.5096  0.4522
   14CHL1   H20 1013   3.815   0.854   9.384  1.0431  0.4454  0.0688
   14CHL1   C21 1014   3.929   0.994   9.258  0.8213 -0.7024 -0.4049
   14CHL1  H21A 1015   3.918   0.962   9.153 -1.6496  0.3522 -0.4908
   14CHL1  H21B 1016   4.022   0.941   9.289  0.7263 -1.3617 -1.2519
   14CHL1  H21C 1017   3.952   1.103   9.255 -1.7550 -0.0847  0.4450
   14CHL1   C22 1018   3.675   0.986   9.269 -0.3271  0.5178  0.3241
   14CHL1  H22A 1019   3.585   0.991   9.334 -0.5964  0.4767 -0.0478
   14CHL1  H22B 1020   3.682   1.090   9.232 -0.2396 -0.3116 -2.0681
   14CHL1   C23 1021   3.639   0.869   9.171 -0.2657  0.1076 -0.1174
   14CHL1  H23A 1022   3.717   0.855   9.093  1.2538 -1.0039  1.5634
   14CHL1  H23B 1023   3.639   0.774   9.229  1.0707 -0.4157 -0.9524
   14CHL1   C24 1024   3.499   0.890   9.102 -0.3634  0.3703 -0.0018
   14CHL1  H24A 1025   3.423   0.907   9.181 -0.2060 -0.9285  0.4451
   14CHL1  H24B 1026   3.513   0.986   9.049  3.1253 -0.3646 -0.5370
   14CHL1   C25 1027   3.450   0.767   9.021 -0.5153 -0.3463 -0.2310
   14CHL1   H25 1028   3.534   0.729   8.959  1.8961  2.2504  1.3282
   14CHL1   C26 1029   3.399   0.641   9.104 -0.4072  0.1102  0.4792
   14CHL1  H26A 1030   3.391   0.545   9.048 -2.5447  1.2297 -1.2279
   14CHL1  H26B 1031   3.465   0.623   9.191 -0.0259  2.9028  0.8156
   14CHL1  H26C 1032   3.301   0.669   9.148  0.1977  0.4534  1.6091
   14CHL1   C27 1033   3.336   0.807   8.927  0.0157 -0.5130  0.3269
   14CHL1  H27A 1034   3.357   0.903   8.875 -0.7991 -0.4538  0.1040
   14CHL1  H27B 1035   3.314   0.723   8.857 -2.0458 -0.7364  1.2170
   14CHL1  H27C 1036   3.244   0.828   8.984  0.4542 -0.0786  0.8769
   15CHL1    C3 1037   3.497   6.650  10.161 -0.4753 -0.0697 -0.7338
   15CHL1    H3 1038   3.603   6.618  10.157 -0.1561  0.8334  0.3769
   15CHL1    O3 1039   3.447   6.647  10.298 -0.4457 -0.1503  0.0514
   15CHL1   H3' 1040   3.357   6.679  10.295 -0.7125 -1.0109 -2.3855
   15CHL1    C4 1041   3.485   6.786  10.103 -1.0308 -0.5318 -0.6693
   15CHL1   H4A 1042   3.379   6.820  10.100 -0.7289  0.4628 -0.1728
   15CHL1   H4B 1043   3.542   6.865  10.157 -0.1190 -2.7186  1.6863
   15CHL1    C5 1044   3.536   6.776   9.961  0.4451 -0.0704  0.0872
   15CHL1    C6 1045   3.639   6.853   9.917  0.0869 -0.1156 -0.0011
   15CHL1    H6 1046   3.682   6.932   9.980 -2.5240  2.3354 -1.2091
   15CHL1    C7 1047   3.691   6.849   9.774 -0.2449 -0.5827  0.1968
   15CHL1   H7A 1048   3.709   6.948   9.727  0.7833 -2.3679 -3.3255
   15CHL1   H7B 1049   3.795   6.808   9.769  0.2120  0.2994  1.9874
   15CHL1    C8 1050   3.596   6.771   9.683 -0.2832 -0.0746  0.0786
   15CHL1    H8 1051   3.516   6.845   9.658  0.6563  0.0676 -2.6801
   15CHL1   C14 1052   3.666   6.746   9.556  0.0331 -0.0404  0.4876
   15CHL1   H14 1053   3.757   6.685   9.576  0.2246 -0.3921 -1.3061
   15CHL1   C15 1054   3.721   6.868   9.477 -0.0133 -1.3493 -0.3935
   15CHL1  H15A 1055   3.632   6.934   9.464  0.1673 -1.0305 -0.0152
   15CHL1  H15B 1056   3.807   6.918   9.527 -1.3995  0.7783 -0.0438
   15CHL1   C16 1057   3.744   6.814   9.334  0.0565 -0.0957  0.5542
   15CHL1  H16A 1058   3.688   6.875   9.260  3.1396 -0.5875 -2.3152
   15CHL1  H16B 1059   3.850   6.827   9.305  0.1915 -1.7167  0.2391
   15CHL1   C17 1060   3.694   6.668   9.335  0.2451 -0.2266  0.0037
   15CHL1   H17 1061   3.777   6.602   9.367  1.1921  1.2852  0.7345
   15CHL1   C13 1062   3.597   6.655   9.454  0.4722  0.0079  0.4655
   15CHL1   C18 1063   3.463   6.721   9.415 -0.4327  0.7516 -0.7497
   15CHL1  H18A 1064   3.475   6.824   9.373  1.0824  0.6645 -0.5383
   15CHL1  H18B 1065   3.406   6.668   9.336  0.7771 -1.9111  0.1354
   15CHL1  H18C 1066   3.389   6.737   9.497  0.5385 -1.7498  0.6342
   15CHL1   C12 1067   3.582   6.512   9.520 -0.0502 -0.0357  0.6793
   15CHL1  H12A 1068   3.547   6.437   9.447 -0.8323 -1.4686  2.4932
   15CHL1  H12B 1069   3.681   6.480   9.559 -0.2869 -0.1221  1.2161
   15CHL1   C11 1070   3.487   6.539   9.639 -0.0369 -0.6826  0.9769
   15CHL1  H11A 1071   3.386   6.562   9.599 -1.3279 -1.7890  3.4758
   15CHL1  H11B 1072   3.477   6.446   9.699  1.1573 -0.1049  2.0884
   15CHL1    C9 1073   3.546   6.640   9.740  0.4726  0.5213  0.2131
   15CHL1    H9 1074   3.646   6.600   9.771  0.6153 -0.0194 -0.9375
   15CHL1   C10 1075   3.472   6.671   9.865  0.4265  0.9715  1.1630
   15CHL1   C19 1076   3.332   6.722   9.832 -0.2376 -0.1688  0.4232
   15CHL1  H19A 1077   3.282   6.748   9.927  0.1850  0.7156  0.4172
   15CHL1  H19B 1078   3.337   6.808   9.761  0.1856  1.9647  2.9834
   15CHL1  H19C 1079   3.271   6.649   9.774  0.0073  0.9923 -1.3508
   15CHL1    C1 1080   3.463   6.537   9.940 -0.4821  0.6284  0.6140
   15CHL1   H1A 1081   3.389   6.467   9.894 -1.0080  1.8583 -0.4303
   15CHL1   H1B 1082   3.560   6.486   9.923 -0.7604  0.2906  0.0165
   15CHL1    C2 1083   3.420   6.547  10.083  0.2719  0.4866 -0.1223
   15CHL1   H2A 1084   3.421   6.451  10.140  0.9564  1.9540  2.4163
   15CHL1   H2B 1085   3.311   6.570  10.091  0.2569  0.5821 -0.5755
   15CHL1   C20 1086   3.654   6.618   9.189  0.0988 -1.1276 -0.1000
   15CHL1   H20 1087   3.582   6.687   9.140 -0.2099 -0.3952  1.3724
   15CHL1   C21 1088   3.593   6.478   9.200 -0.2774  1.4068  0.1376
   15CHL1  H21A 1089   3.583   6.418   9.107 -0.7686 -0.3824  1.3167
   15CHL1  H21B 1090   3.492   6.481   9.246 -0.6251  3.5226 -0.6881
   15CHL1  H21C 1091   3.679   6.438   9.258  0.5250  0.4995 -1.6543
   15CHL1   C22 1092   3.777   6.608   9.085 -0.2904  0.4508 -0.4938
   15CHL1  H22A 1093   3.869   6.572   9.135 -1.0667  0.2163  0.8074
   15CHL1  H22B 1094   3.731   6.537   9.013 -0.5371 -0.1551  0.2531
   15CHL1   C23 1095   3.797   6.732   9.003 -0.2626 -0.0774  0.4084
   15CHL1  H23A 1096   3.703   6.753   8.949  0.1458 -0.7673 -0.5750
   15CHL1  H23B 1097   3.826   6.821   9.063  1.3012 -0.7381  0.6535
   15CHL1   C24 1098   3.899   6.708   8.900 -0.0667  0.0313 -1.0540
   15CHL1  H24A 1099   3.999   6.750   8.927  0.5469 -1.0119 -1.6710
   15CHL1  H24B 1100   3.914   6.599   8.894  0.1924 -0.0285  0.4107
   15CHL1   C25 1101   3.873   6.766   8.765 -0.6603 -0.6019  1.0964
   15CHL1   H25 1102   3.777   6.721   8.731 -1.4589  1.5098  0.4496
   15CHL1   C26 1103   3.868   6.914   8.786 -0.3566 -0.3241  0.9265
   15CHL1  H26A 1104   3.976   6.941   8.798 -0.4172 -0.6693  2.4098
   15CHL1  H26B 1105   3.840   6.966   8.692 -0.3405 -1.5507  0.2430
   15CHL1  H26C 1106   3.802   6.956   8.865 -0.0361  1.4808  0.2702
   15CHL1   C27 1107   3.983   6.717   8.670 -0.4449 -0.2695 -0.4989
   15CHL1  H27A 1108   3.961   6.620   8.621 -2.2227 -0.0023 -0.2856
   15CHL1  H27B 1109   3.992   6.787   8.583  1.1483 -0.9924 -0.9330
   15CHL1  H27C 1110   4.077   6.703   8.726  1.2840  1.7057 -2.7848
   16CHL1    C3 1111   4.222   0.516  10.179 -0.2003 -0.6963 -0.3394
   16CHL1    H3 1112   4.325   0.556  10.187 -0.1244 -1.4995  3.4592
   16CHL1    O3 1113   4.177   0.485  10.313  0.0606  0.4583 -0.3349
   16CHL1   H3' 1114   4.085   0.460  10.304 -1.1527  3.6113  2.4387
   16CHL1    C4 1115   4.138   0.634  10.125 -0.0975  0.0457  0.3459
   16CHL1   H4A 1116   4.033   0.603  10.111 -0.2639  2.0183 -3.5598
   16CHL1   H4B 1117   4.158   0.723  10.189  0.3654 -1.5573  2.5058
   16CHL1    C5 1118   4.182   0.675   9.982 -0.2706 -0.3063 -0.4364
   16CHL1    C6 1119   4.227   0.796   9.953  0.5195  0.8952 -0.0229
   16CHL1    H6 1120   4.220   0.871  10.033  1.3015 -1.3677  2.2209
   16CHL1    C7 1121   4.280   0.834   9.813 -0.0418 -0.2536 -0.3205
   16CHL1   H7A 1122   4.257   0.941   9.794 -0.5175  0.0966  2.1013
   16CHL1   H7B 1123   4.389   0.820   9.796  0.0112 -0.7276  0.3639
   16CHL1    C8 1124   4.219   0.734   9.703  0.1961  0.7987 -0.3049
   16CHL1    H8 1125   4.109   0.748   9.709  0.0750 -0.6973  1.1494
   16CHL1   C14 1126   4.270   0.767   9.563 -0.2542 -0.3541 -0.7283
   16CHL1   H14 1127   4.381   0.762   9.567 -0.3555 -1.7969  0.7600
   16CHL1   C15 1128   4.243   0.901   9.494  0.4073  0.4164  0.0814
   16CHL1  H15A 1129   4.133   0.910   9.482  0.4936 -0.5931 -1.5918
   16CHL1  H15B 1130   4.287   0.993   9.539 -1.4732  0.0991  2.6830
   16CHL1   C16 1131   4.294   0.867   9.350  0.1227 -0.3066 -0.7792
   16CHL1  H16A 1132   4.233   0.910   9.267  0.7442  0.7145 -0.7114
   16CHL1  H16B 1133   4.389   0.922   9.336 -0.4472  0.6364 -0.9641
   16CHL1   C17 1134   4.300   0.713   9.332  0.2994  0.0410 -0.2455
   16CHL1   H17 1135   4.409   0.692   9.339 -0.0018 -2.2113 -1.8297
   16CHL1   C13 1136   4.232   0.661   9.457  0.3717 -0.2116  0.2845
   16CHL1   C18 1137   4.082   0.653   9.427 -0.2381 -0.0161  0.7393
   16CHL1  H18A 1138   4.019   0.654   9.519 -1.3871 -2.3515  0.0402
   16CHL1  H18B 1139   4.054   0.743   9.368  4.8795  0.7874 -0.6792
   16CHL1  H18C 1140   4.047   0.571   9.360 -1.7480  0.1686  1.2763
   16CHL1   C12 1141   4.287   0.523   9.503  0.1713 -0.3420  0.7536
   16CHL1  H12A 1142   4.260   0.449   9.425 -1.1060  3.1744 -2.2593
   16CHL1  H12B 1143   4.398   0.529   9.512  0.3162 -1.1943 -0.3204
   16CHL1   C11 1144   4.219   0.480   9.635 -0.1202  0.6784  0.0818
   16CHL1  H11A 1145   4.116   0.453   9.605  0.3050 -0.7657 -0.1098
   16CHL1  H11B 1146   4.261   0.383   9.670 -0.2454  0.8405  0.6957
   16CHL1    C9 1147   4.249   0.586   9.746 -0.4530 -0.3501 -0.1577
   16CHL1    H9 1148   4.359   0.590   9.761 -0.4512 -1.5673  0.2152
   16CHL1   C10 1149   4.174   0.556   9.882 -0.2938 -0.5212  0.2388
   16CHL1   C19 1150   4.029   0.508   9.856 -0.5747  0.7576 -0.6125
   16CHL1  H19A 1151   4.021   0.413   9.799 -0.8971  1.3432 -1.5591
   16CHL1  H19B 1152   3.982   0.489   9.955 -0.1647 -0.8278 -0.7215
   16CHL1  H19C 1153   3.970   0.588   9.805 -1.0222 -0.6254 -2.3266
   16CHL1    C1 1154   4.253   0.441   9.949  0.4190 -0.5636 -0.0303
   16CHL1   H1A 1155   4.239   0.354   9.881  1.2793 -0.1255 -0.7869
   16CHL1   H1B 1156   4.362   0.463   9.941 -0.0823  1.8141 -0.7612
   16CHL1    C2 1157   4.208   0.401  10.090  0.7311  0.5371  0.2806
   16CHL1   H2A 1158   4.273   0.316  10.118  1.2680  1.0263  0.5378
   16CHL1   H2B 1159   4.108   0.355  10.095  1.0927 -0.4628 -1.2662
   16CHL1   C20 1160   4.256   0.686   9.194 -0.3980 -0.4136 -0.0102
   16CHL1   H20 1161   4.149   0.708   9.172  0.3089 -0.9468 -4.4079
   16CHL1   C21 1162   4.267   0.535   9.165  0.5356 -0.2427 -0.4790
   16CHL1  H21A 1163   4.181   0.483   9.212 -0.0846  1.8825  0.8021
   16CHL1  H21B 1164   4.363   0.500   9.209  0.1101  0.7492  1.2825
   16CHL1  H21C 1165   4.256   0.511   9.057  2.9112 -0.3494 -0.7266
   16CHL1   C22 1166   4.336   0.760   9.083  0.5302 -0.2830  0.1943
   16CHL1  H22A 1167   4.415   0.822   9.129 -1.3499  1.2663  1.4124
   16CHL1  H22B 1168   4.385   0.689   9.013  1.4324  0.2899  0.2388
   16CHL1   C23 1169   4.237   0.844   9.000  0.2899  0.2887  0.0061
   16CHL1  H23A 1170   4.151   0.786   8.961 -0.1055  0.7637  0.1785
   16CHL1  H23B 1171   4.195   0.919   9.070 -1.5278 -0.6688 -0.0247
   16CHL1   C24 1172   4.303   0.925   8.891  0.0856 -0.4201  0.3211
   16CHL1  H24A 1173   4.337   1.027   8.919  1.3539 -0.7678  0.0922
   16CHL1  H24B 1174   4.401   0.879   8.864 -0.1024 -0.1217 -0.8644
   16CHL1   C25 1175   4.222   0.932   8.751  0.4915  0.6175  0.2460
   16CHL1   H25 1176   4.225   0.826   8.719 -0.2115  0.8857 -0.7443
   16CHL1   C26 1177   4.071   0.966   8.761 -0.3907 -0.5797  0.5327
   16CHL1  H26A 1178   4.027   0.993   8.663  1.2223  0.9581  0.2283
   16CHL1  H26B 1179   4.020   0.875   8.799 -0.8925  0.3039  2.0079
   16CHL1  H26C 1180   4.053   1.059   8.819 -2.2932  0.3271 -1.4560
   16CHL1   C27 1181   4.288   1.006   8.639  0.4032 -0.2843  0.4793
   16CHL1  H27A 1182   4.390   0.964   8.627  0.3536 -0.8007  1.7662
   16CHL1  H27B 1183   4.242   0.991   8.539  0.6383 -0.3763  0.3834
   16CHL1  H27C 1184   4.313   1.112   8.662  0.5647 -0.3566  0.6396
   17CHL1    C3 1185   0.173   3.935  10.296 -0.7278 -0.4600 -0.4214
   17CHL1    H3 1186   0.237   4.026  10.297 -1.7012  0.2242  1.4862
   17CHL1    O3 1187   0.168   3.874  10.418 -0.1049 -0.5653 -0.6259
   17CHL1   H3' 1188   0.128   3.789  10.396  0.5445 -1.1517  0.4144
   17CHL1    C4 1189   0.027   3.976  10.247  1.4522 -0.5650 -0.3082
   17CHL1   H4A 1190  -0.052   3.898  10.256 -0.0753  1.1307  1.4952
   17CHL1   H4B 1191  -0.012   4.052  10.317  1.5076  0.1850 -1.0936
   17CHL1    C5 1192   0.029   4.031  10.109  0.0954  0.3364 -0.6881
   17CHL1    C6 1193  -0.023   4.149  10.079 -0.7957 -0.8885  0.7459
   17CHL1    H6 1194  -0.068   4.216  10.155  0.8769  2.7440 -1.3282
   17CHL1    C7 1195  -0.031   4.207   9.937  0.1377  0.5635 -0.2004
   17CHL1   H7A 1196  -0.113   4.278   9.916  0.9916  1.4983 -0.4474
   17CHL1   H7B 1197   0.059   4.271   9.928 -0.1781  0.9858 -0.3582
   17CHL1    C8 1198  -0.026   4.097   9.829  0.4990  0.2405  0.1401
   17CHL1    H8 1199  -0.126   4.049   9.830  0.0812  1.0895  1.6225
   17CHL1   C14 1200  -0.016   4.158   9.689 -0.1373  0.6325  0.0156
   17CHL1   H14 1201   0.080   4.212   9.693 -0.7741  1.9535 -1.8398
   17CHL1   C15 1202  -0.124   4.254   9.645 -0.1115  0.2552 -0.0628
   17CHL1  H15A 1203  -0.224   4.208   9.661  0.1619 -0.0489  0.7807
   17CHL1  H15B 1204  -0.128   4.356   9.689  0.5329  1.0622 -1.8272
   17CHL1   C16 1205  -0.105   4.264   9.494  0.2959 -0.3852  0.9562
   17CHL1  H16A 1206  -0.205   4.241   9.450 -0.5028  1.0862  1.9459
   17CHL1  H16B 1207  -0.070   4.366   9.467 -0.0393 -0.7752 -1.0169
   17CHL1   C17 1208  -0.002   4.158   9.461  0.0284 -0.0220 -0.0606
   17CHL1   H17 1209   0.092   4.216   9.469  0.2848 -0.2601 -1.1840
   17CHL1   C13 1210   0.004   4.058   9.584 -0.5346 -0.0476 -0.2294
   17CHL1   C18 1211  -0.115   3.961   9.563 -0.0690 -0.1378 -0.4419
   17CHL1  H18A 1212  -0.156   3.928   9.661  2.1311 -0.9581  0.2530
   17CHL1  H18B 1213  -0.200   4.002   9.505 -0.6129  0.5698  0.8366
   17CHL1  H18C 1214  -0.082   3.869   9.509  0.1462  0.7699 -1.8680
   17CHL1   C12 1215   0.135   3.978   9.602 -0.5636  0.0785  0.4611
   17CHL1  H12A 1216   0.154   3.903   9.522  4.4979  0.5703  1.0831
   17CHL1  H12B 1217   0.225   4.042   9.597 -1.4491  1.3567  0.7785
   17CHL1   C11 1218   0.133   3.910   9.739 -0.6016 -0.4337  0.7220
   17CHL1  H11A 1219   0.074   3.816   9.744  1.4029 -1.6569  2.4872
   17CHL1  H11B 1220   0.238   3.876   9.751  0.3556  2.4108  0.6629
   17CHL1    C9 1221   0.098   4.004   9.858 -0.5732 -0.0220 -0.4886
   17CHL1    H9 1222   0.176   4.082   9.875 -2.9878  1.9629  2.1571
   17CHL1   C10 1223   0.080   3.937   9.995  0.1086 -0.2060 -0.6493
   17CHL1   C19 1224  -0.035   3.835   9.992  0.0842 -0.1322  0.0922
   17CHL1  H19A 1225  -0.004   3.750   9.928  0.3541 -0.2880  0.4272
   17CHL1  H19B 1226  -0.064   3.792  10.090 -1.2932  0.6498  0.0374
   17CHL1  H19C 1227  -0.134   3.869   9.955 -0.7080  0.1915  2.4086
   17CHL1    C1 1228   0.213   3.875  10.048  0.6135  0.5819  0.2764
   17CHL1   H1A 1229   0.241   3.790   9.982 -1.4491 -0.2140  0.3761
   17CHL1   H1B 1230   0.291   3.952  10.031 -1.0605  2.2061 -0.1933
   17CHL1    C2 1231   0.215   3.831  10.192 -0.4570 -0.1442 -0.2079
   17CHL1   H2A 1232   0.320   3.802  10.216 -0.6973 -0.9344 -0.0955
   17CHL1   H2B 1233   0.164   3.732  10.189  1.0160 -0.8844 -1.6282
   17CHL1   C20 1234  -0.005   4.108   9.312 -1.2418 -0.5826  0.1060
   17CHL1   H20 1235  -0.092   4.039   9.303 -0.3715 -1.2952 -4.3731
   17CHL1   C21 1236   0.120   4.025   9.287 -0.6641  0.4494 -0.3427
   17CHL1  H21A 1237   0.204   4.077   9.338 -0.1421 -0.3894 -0.3405
   17CHL1  H21B 1238   0.137   4.008   9.179  1.2732 -1.1604  0.1711
   17CHL1  H21C 1239   0.120   3.917   9.315 -1.1006  1.0059  1.9052
   17CHL1   C22 1240  -0.011   4.210   9.204 -0.0914  0.0984  0.0008
   17CHL1  H22A 1241  -0.083   4.291   9.229 -1.0565 -1.1305  1.3769
   17CHL1  H22B 1242   0.090   4.253   9.192 -0.0657  0.3618  1.0405
   17CHL1   C23 1243  -0.053   4.160   9.062 -0.0838 -0.3418 -0.5768
   17CHL1  H23A 1244  -0.014   4.058   9.042 -2.0823 -1.2532  0.0723
   17CHL1  H23B 1245  -0.162   4.145   9.076  0.1362 -0.3532  1.2893
   17CHL1   C24 1246  -0.032   4.262   8.938  1.7004  0.3709  0.0623
   17CHL1  H24A 1247  -0.074   4.362   8.965 -1.5199 -1.7581  3.4352
   17CHL1  H24B 1248   0.076   4.279   8.921  1.9872  0.3421  1.8448
   17CHL1   C25 1249  -0.107   4.227   8.809 -0.1992  0.1569 -0.2328
   17CHL1   H25 1250  -0.061   4.287   8.728  0.7082  0.0743  0.2073
   17CHL1   C26 1251  -0.072   4.078   8.785 -0.0650 -0.0471  0.0202
   17CHL1  H26A 1252  -0.088   4.052   8.678 -1.5196  1.7427 -0.2336
   17CHL1  H26B 1253   0.031   4.049   8.814 -0.5712 -0.1266  1.8228
   17CHL1  H26C 1254  -0.142   4.008   8.835 -0.3187 -0.1192 -0.4271
   17CHL1   C27 1255  -0.259   4.257   8.805  0.1761 -0.0568  0.6757
   17CHL1  H27A 1256  -0.295   4.198   8.892  1.2061  1.3562  2.0904
   17CHL1  H27B 1257  -0.288   4.363   8.820 -0.4518  0.0703 -1.3258
   17CHL1  H27C 1258  -0.307   4.249   8.705  0.3748 -1.3376  0.6799
   18CHL1    C3 1259   6.388   2.878  10.270  0.0983 -0.1456  0.2150
   18CHL1    H3 1260   6.285   2.835  10.279  0.1592 -0.0381  1.6362
   18CHL1    O3 1261   6.417   2.892  10.410 -0.4299 -0.4209 -0.4118
   18CHL1   H3' 1262   6.369   2.820  10.450 -0.1051  1.5792  3.7728
   18CHL1    C4 1263   6.482   2.785  10.206 -0.2894 -0.1483  0.9009
   18CHL1   H4A 1264   6.587   2.820  10.211 -0.8442  1.3827  2.5851
   18CHL1   H4B 1265   6.467   2.691  10.264 -2.9718 -0.4684 -0.2553
   18CHL1    C5 1266   6.451   2.765  10.061  0.4626 -0.1604  0.5582
   18CHL1    C6 1267   6.428   2.641  10.015  0.1676 -0.0670  0.1176
   18CHL1    H6 1268   6.434   2.557  10.085 -2.3708  1.3589  2.1406
   18CHL1    C7 1269   6.404   2.612   9.871  0.4037  0.0234  0.6217
   18CHL1   H7A 1270   6.442   2.513   9.840 -0.9314 -1.0295  2.2203
   18CHL1   H7B 1271   6.295   2.592   9.864  0.6674 -0.9473 -0.9968
   18CHL1    C8 1272   6.440   2.728   9.774 -0.2307 -0.6065 -0.3479
   18CHL1    H8 1273   6.551   2.732   9.763 -0.0771 -1.8635  0.5177
   18CHL1   C14 1274   6.387   2.712   9.631  0.0226 -0.3294  0.3368
   18CHL1   H14 1275   6.276   2.712   9.636 -0.0040  0.1131 -0.2225
   18CHL1   C15 1276   6.424   2.581   9.551 -0.1973  0.5129 -0.0974
   18CHL1  H15A 1277   6.531   2.557   9.563 -0.1698 -0.4023 -2.1082
   18CHL1  H15B 1278   6.359   2.498   9.586  0.5268  0.2728  0.6990
   18CHL1   C16 1279   6.395   2.612   9.407  0.2077  0.3699  0.4712
   18CHL1  H16A 1280   6.485   2.576   9.353 -1.1254 -3.4486  0.5956
   18CHL1  H16B 1281   6.309   2.560   9.358 -0.6298  0.0589  2.2405
   18CHL1   C17 1282   6.380   2.769   9.401  0.4580  0.0292  0.6567
   18CHL1   H17 1283   6.269   2.780   9.401  0.3828 -0.7032 -1.0073
   18CHL1   C13 1284   6.425   2.823   9.538  0.3441 -0.1268 -0.2722
   18CHL1   C18 1285   6.583   2.833   9.519  0.7089 -0.4344  0.1969
   18CHL1  H18A 1286   6.639   2.839   9.615 -1.6684  2.3282  1.4984
   18CHL1  H18B 1287   6.623   2.749   9.458 -0.9669 -2.5033  1.8777
   18CHL1  H18C 1288   6.612   2.925   9.462 -0.3211 -1.0549 -1.3553
   18CHL1   C12 1289   6.379   2.957   9.584  0.0528 -0.6309  0.4500
   18CHL1  H12A 1290   6.415   3.030   9.508  0.1428  0.7833  1.8376
   18CHL1  H12B 1291   6.269   2.951   9.581 -0.1623  0.0447  4.4831
   18CHL1   C11 1292   6.427   2.983   9.731 -0.5197  0.1390  0.3353
   18CHL1  H11A 1293   6.532   3.019   9.734 -0.1691 -0.7308 -0.9390
   18CHL1  H11B 1294   6.360   3.065   9.763  1.1127  0.5176  2.9718
   18CHL1    C9 1295   6.405   2.868   9.826  0.0083  0.1552  0.2752
   18CHL1    H9 1296   6.295   2.863   9.840  0.1250 -0.8062  0.8978
   18CHL1   C10 1297   6.456   2.892   9.969 -0.3313 -0.3078  0.2057
   18CHL1   C19 1298   6.602   2.941   9.967  0.1838 -0.0425 -0.8377
   18CHL1  H19A 1299   6.659   2.885   9.889 -0.2592 -1.0891 -0.4165
   18CHL1  H19B 1300   6.603   3.047   9.933 -0.4910  0.3635  0.4037
   18CHL1  H19C 1301   6.655   2.944  10.064  0.1689  1.7302 -0.8762
   18CHL1    C1 1302   6.368   3.000  10.040 -0.0197  0.3376 -1.2868
   18CHL1   H1A 1303   6.375   3.098   9.989  3.0060  0.8392  0.0209
   18CHL1   H1B 1304   6.261   2.970  10.043  0.5319 -1.5931  0.7519
   18CHL1    C2 1305   6.395   3.015  10.202  1.3012  0.8194 -0.5395
   18CHL1   H2A 1306   6.322   3.083  10.250  1.0111 -0.4829  0.8953
   18CHL1   H2B 1307   6.499   3.049  10.222 -0.2804  5.5454  0.2640
   18CHL1   C20 1308   6.426   2.829   9.267  0.0936  0.8135  0.0505
   18CHL1   H20 1309   6.531   2.865   9.272  0.2379  0.1764  1.7743
   18CHL1   C21 1310   6.352   2.959   9.238  0.0088  0.8083 -0.3748
   18CHL1  H21A 1311   6.336   2.986   9.131 -1.9689 -3.0506 -1.1299
   18CHL1  H21B 1312   6.407   3.044   9.284  2.3209 -0.9441  0.1918
   18CHL1  H21C 1313   6.252   2.957   9.285  0.6630  0.6154  1.0125
   18CHL1   C22 1314   6.406   2.741   9.146 -0.3886  0.0582 -0.5139
   18CHL1  H22A 1315   6.445   2.787   9.053 -0.7106  3.0054  0.7511
   18CHL1  H22B 1316   6.475   2.654   9.154  1.1114  1.3010  0.3873
   18CHL1   C23 1317   6.261   2.694   9.114 -0.2276  0.2666 -0.1231
   18CHL1  H23A 1318   6.216   2.626   9.189 -0.2820 -0.5153 -0.8654
   18CHL1  H23B 1319   6.208   2.791   9.103  0.5426  0.5601 -1.3308
   18CHL1   C24 1320   6.259   2.613   8.987  0.7058 -0.4965 -0.0404
   18CHL1  H24A 1321   6.283   2.677   8.899 -0.4972  0.4873  0.3255
   18CHL1  H24B 1322   6.342   2.539   8.995  0.8805 -0.1126  1.7531
   18CHL1   C25 1323   6.124   2.539   8.954  0.7646  0.4490  0.6847
   18CHL1   H25 1324   6.121   2.453   9.024 -0.2764  0.3125  0.4802
   18CHL1   C26 1325   5.993   2.620   8.980 -0.5784  0.0097 -0.5848
   18CHL1  H26A 1326   5.903   2.555   8.969 -1.1997  0.4219  1.7927
   18CHL1  H26B 1327   5.978   2.646   9.087  0.0738 -0.4729 -0.3681
   18CHL1  H26C 1328   5.988   2.706   8.911  3.3146 -0.5154 -1.6576
   18CHL1   C27 1329   6.121   2.473   8.811 -0.3911  0.3539 -0.5727
   18CHL1  H27A 1330   6.146   2.558   8.743  4.6786  2.6271  3.6862
   18CHL1  H27B 1331   6.204   2.399   8.803 -2.1062 -1.5400 -1.0576
   18CHL1  H27C 1332   6.027   2.423   8.781  0.2591 -1.7130  0.7208
   19CHL1    C3 1333   3.208   5.867  10.144  0.8519  0.2762  0.1507
   19CHL1    H3 1334   3.193   5.977  10.142 -0.7165  0.0571 -0.4835
   19CHL1    O3 1335   3.239   5.833  10.273 -0.2866 -0.1481 -0.7820
   19CHL1   H3' 1336   3.253   5.738  10.267  1.3160  0.0699 -0.8064
   19CHL1    C4 1337   3.080   5.783  10.099 -0.2656  0.1868  0.6241
   19CHL1   H4A 1338   3.107   5.678  10.122 -0.9052  0.0904  0.9502
   19CHL1   H4B 1339   3.003   5.811  10.174  0.7154  3.4021  0.4994
   19CHL1    C5 1340   3.048   5.813   9.950  0.0081 -0.2038 -0.6091
   19CHL1    C6 1341   2.929   5.872   9.918 -0.3654 -0.8950 -0.0736
   19CHL1    H6 1342   2.849   5.882   9.993  1.1150 -1.0830  1.5632
   19CHL1    C7 1343   2.905   5.922   9.777  0.0655 -0.2011  0.6763
   19CHL1   H7A 1344   2.796   5.917   9.758  0.1410  0.1604  0.1221
   19CHL1   H7B 1345   2.946   6.023   9.754  0.4111 -0.3923  0.4385
   19CHL1    C8 1346   2.975   5.834   9.674 -1.0986  0.7504  0.3177
   19CHL1    H8 1347   2.943   5.728   9.673  0.0483  0.4006  1.2939
   19CHL1   C14 1348   2.959   5.893   9.528  0.5598 -0.1127  0.0786
   19CHL1   H14 1349   2.982   6.001   9.541 -2.7657  0.3942  2.5692
   19CHL1   C15 1350   2.814   5.886   9.473  0.5302  0.4623 -0.1403
   19CHL1  H15A 1351   2.799   5.776   9.463 -1.0638  0.8490 -2.2220
   19CHL1  H15B 1352   2.738   5.946   9.527 -0.1294 -0.4539 -0.0383
   19CHL1   C16 1353   2.835   5.927   9.326 -0.0894 -0.1655 -0.1319
   19CHL1  H16A 1354   2.772   5.853   9.273  1.8167 -2.7173  1.0011
   19CHL1  H16B 1355   2.815   6.032   9.296  2.9768 -0.2199 -2.6173
   19CHL1   C17 1356   2.985   5.912   9.291 -0.5117  1.0524 -0.7968
   19CHL1   H17 1357   3.023   6.016   9.294  1.2052  0.4799 -1.8531
   19CHL1   C13 1358   3.045   5.833   9.414  0.4241  0.3189 -0.3593
   19CHL1   C18 1359   3.018   5.685   9.390  0.1146  0.4448 -0.5345
   19CHL1  H18A 1360   3.092   5.638   9.322 -0.1470  1.2471 -1.3892
   19CHL1  H18B 1361   3.037   5.622   9.479  0.1559  1.5305  0.2371
   19CHL1  H18C 1362   2.918   5.644   9.362 -0.3467  1.5370 -0.5156
   19CHL1   C12 1363   3.189   5.851   9.465 -0.2940  0.6371  0.2811
   19CHL1  H12A 1364   3.253   5.790   9.398 -2.5108 -1.6188  0.1640
   19CHL1  H12B 1365   3.201   5.962   9.460 -0.8381  0.6079 -2.5276
   19CHL1   C11 1366   3.221   5.796   9.603  0.6248 -0.3810  0.3276
   19CHL1  H11A 1367   3.208   5.690   9.573 -0.0605  0.3110 -2.0089
   19CHL1  H11B 1368   3.329   5.810   9.622  0.5589  1.2036 -0.3235
   19CHL1    C9 1369   3.125   5.851   9.711  0.6221  0.9354  0.0787
   19CHL1    H9 1370   3.154   5.958   9.714  1.4571  0.6864  1.5452
   19CHL1   C10 1371   3.160   5.792   9.848 -0.8445 -0.0957 -0.2750
   19CHL1   C19 1372   3.183   5.636   9.842  0.1488  0.0885  0.5049
   19CHL1  H19A 1373   3.094   5.574   9.817  0.9841 -0.3740 -1.4191
   19CHL1  H19B 1374   3.264   5.620   9.768  0.7755  0.1451  1.1720
   19CHL1  H19C 1375   3.220   5.591   9.936  0.9159  2.1986  1.2443
   19CHL1    C1 1376   3.287   5.863   9.902 -0.4408 -0.1259 -0.1529
   19CHL1   H1A 1377   3.378   5.857   9.839 -1.0322  1.2576 -1.1829
   19CHL1   H1B 1378   3.269   5.973   9.910 -1.3255 -0.3359  0.8413
   19CHL1    C2 1379   3.327   5.833  10.057 -0.9690 -0.0872  0.2929
   19CHL1   H2A 1380   3.409   5.899  10.092 -1.2700  0.9917 -0.9643
   19CHL1   H2B 1381   3.350   5.724  10.062 -1.0244 -0.0789  0.7353
   19CHL1   C20 1382   3.017   5.865   9.150 -0.2420  0.1493  0.4750
   19CHL1   H20 1383   2.975   5.763   9.135 -2.1120  1.0954 -1.0719
   19CHL1   C21 1384   3.170   5.851   9.112  0.3388 -0.1042 -0.2598
   19CHL1  H21A 1385   3.219   5.784   9.186 -1.4652  0.9315  1.9137
   19CHL1  H21B 1386   3.229   5.944   9.126 -0.4630  0.1904  1.2825
   19CHL1  H21C 1387   3.181   5.810   9.009  1.4588  3.2806 -1.5749
   19CHL1   C22 1388   2.942   5.959   9.050  0.0439  0.3756  0.4345
   19CHL1  H22A 1389   2.838   5.971   9.085  0.9399  1.7962  2.6756
   19CHL1  H22B 1390   2.988   6.060   9.043  1.6519 -0.3711 -0.0192
   19CHL1   C23 1391   2.933   5.893   8.907  0.1071 -0.4128 -0.0729
   19CHL1  H23A 1392   3.030   5.905   8.854  0.7341 -2.0199  0.6732
   19CHL1  H23B 1393   2.917   5.784   8.923  1.9073 -1.1887 -3.0385
   19CHL1   C24 1394   2.819   5.952   8.821  0.5033 -0.1529  0.3992
   19CHL1  H24A 1395   2.735   5.986   8.885 -0.8586  0.0773 -1.4838
   19CHL1  H24B 1396   2.869   6.041   8.779  1.8532 -0.8844  0.4176
   19CHL1   C25 1397   2.757   5.862   8.717 -0.4630 -0.0775  0.2235
   19CHL1   H25 1398   2.725   5.764   8.759  2.5495 -0.2797  2.1675
   19CHL1   C26 1399   2.644   5.920   8.633  0.3673  0.0518 -0.0994
   19CHL1  H26A 1400   2.579   5.859   8.567 -0.8950  2.1900 -0.8639
   19CHL1  H26B 1401   2.571   5.963   8.704 -1.1448 -2.9383  0.2578
   19CHL1  H26C 1402   2.685   6.005   8.575  1.4705  0.4384  1.2068
   19CHL1   C27 1403   2.855   5.827   8.604  0.4514 -0.2019  0.1288
   19CHL1  H27A 1404   2.947   5.787   8.651 -0.8380 -1.2276  1.8396
   19CHL1  H27B 1405   2.811   5.751   8.536 -1.9627 -0.3116  1.7450
   19CHL1  H27C 1406   2.894   5.913   8.545 -0.3259 -0.4553 -0.7678
   20CHL1    C3 1407   4.790   0.167  10.487  0.4176 -0.0030  0.1057
   20CHL1    H3 1408   4.700   0.176  10.423  0.7217 -0.2200 -0.3568
   20CHL1    O3 1409   4.761   0.189  10.623 -0.0423 -0.0442 -0.6132
   20CHL1   H3' 1410   4.728   0.108  10.662 -2.2595  1.0377 -0.1385
   20CHL1    C4 1411   4.848   0.028  10.471  0.3575  1.2370  0.4021
   20CHL1   H4A 1412   4.948   0.035  10.520  0.6534  2.5330 -0.3752
   20CHL1   H4B 1413   4.784  -0.047  10.522 -0.0241  0.6675 -0.9049
   20CHL1    C5 1414   4.878   0.006  10.323 -0.5730 -0.8122 -0.2989
   20CHL1    C6 1415   4.826  -0.090  10.250  0.0801  0.3832  0.0170
   20CHL1    H6 1416   4.749  -0.156  10.292  0.7058 -0.9659 -0.9435
   20CHL1    C7 1417   4.854  -0.113  10.104 -0.0018 -0.3134  0.3876
   20CHL1   H7A 1418   4.880  -0.221  10.099 -0.3138 -0.3774  0.1276
   20CHL1   H7B 1419   4.756  -0.109  10.052 -0.9458  1.4121  2.2273
   20CHL1    C8 1420   4.965  -0.028  10.045  0.6056  0.1878 -0.2471
   20CHL1    H8 1421   5.067  -0.067  10.063 -0.4108 -2.5985 -0.3393
   20CHL1   C14 1422   4.940  -0.028   9.896 -0.0691 -0.1721 -0.0041
   20CHL1   H14 1423   4.845   0.028   9.883 -1.9034 -2.9395  1.2706
   20CHL1   C15 1424   4.911  -0.162   9.818 -0.1689 -0.5958  0.5972
   20CHL1  H15A 1425   4.989  -0.236   9.844  0.7296 -0.3834 -1.3608
   20CHL1  H15B 1426   4.819  -0.223   9.833  0.4850 -0.9662  3.4190
   20CHL1   C16 1427   4.935  -0.113   9.672  0.1687  0.1739 -0.0368
   20CHL1  H16A 1428   4.995  -0.195   9.627  0.5655  1.0318 -1.1022
   20CHL1  H16B 1429   4.835  -0.103   9.626 -0.5050  2.4445  1.8334
   20CHL1   C17 1430   5.013   0.025   9.669 -0.2795  0.3671 -0.5012
   20CHL1   H17 1431   4.934   0.099   9.645  1.0327  1.1091 -2.5851
   20CHL1   C13 1432   5.052   0.047   9.816  0.0580  0.6894 -0.3056
   20CHL1   C18 1433   5.195  -0.022   9.846  0.0224  0.1300 -0.2110
   20CHL1  H18A 1434   5.283   0.010   9.787  0.5546 -2.3245 -0.8129
   20CHL1  H18B 1435   5.221   0.007   9.950  1.0101 -2.3212  0.2680
   20CHL1  H18C 1436   5.187  -0.133   9.839 -0.3950 -0.1302  3.3116
   20CHL1   C12 1437   5.046   0.194   9.861  0.1097 -0.4660 -0.1115
   20CHL1  H12A 1438   5.139   0.246   9.829  1.4364 -1.2455  2.3430
   20CHL1  H12B 1439   4.953   0.245   9.830  1.1603  1.4518 -0.2467
   20CHL1   C11 1440   5.047   0.210  10.016  0.2647  0.3385 -0.3787
   20CHL1  H11A 1441   5.150   0.193  10.056 -0.2984 -0.6422  0.7011
   20CHL1  H11B 1442   5.017   0.315  10.034  0.4129  0.5957 -1.6446
   20CHL1    C9 1443   4.955   0.115  10.096 -0.2387 -0.2657 -0.4296
   20CHL1    H9 1444   4.850   0.145  10.075  0.2631  0.4008 -2.0243
   20CHL1   C10 1445   4.962   0.113  10.250 -0.0022  0.1343 -0.6487
   20CHL1   C19 1446   5.109   0.072  10.295 -0.0537 -0.2909 -0.4542
   20CHL1  H19A 1447   5.132  -0.035  10.274 -1.5318 -0.7810  0.3418
   20CHL1  H19B 1448   5.182   0.139  10.244 -0.6586 -0.0518 -1.0231
   20CHL1  H19C 1449   5.133   0.094  10.401  0.5546  1.6331 -0.9625
   20CHL1    C1 1450   4.922   0.260  10.299  0.0301 -0.5397  0.0340
   20CHL1   H1A 1451   4.993   0.337  10.262 -0.0268 -0.0999  0.8330
   20CHL1   H1B 1452   4.827   0.284  10.245  0.2081 -0.4887 -0.2577
   20CHL1    C2 1453   4.886   0.278  10.442  0.0577 -0.4771  0.2889
   20CHL1   H2A 1454   4.844   0.379  10.463 -0.0852 -0.1401 -1.5128
   20CHL1   H2B 1455   4.979   0.274  10.503 -0.0060  2.7486  0.7065
   20CHL1   C20 1456   5.119   0.046   9.558  0.1449 -0.4542 -0.1879
   20CHL1   H20 1457   5.206  -0.017   9.588  0.6694 -0.1367 -1.0344
   20CHL1   C21 1458   5.166   0.194   9.553 -0.0037 -0.1847  0.3075
   20CHL1  H21A 1459   5.221   0.230   9.643 -0.8644 -1.2734  1.2915
   20CHL1  H21B 1460   5.086   0.270   9.545  1.3837  1.4578  1.5666
   20CHL1  H21C 1461   5.244   0.213   9.477 -0.5460  2.4458  0.3777
   20CHL1   C22 1462   5.061  -0.000   9.426  0.1514 -0.5329 -0.7169
   20CHL1  H22A 1463   5.042  -0.109   9.442  1.4478 -0.9687 -1.9120
   20CHL1  H22B 1464   4.965   0.043   9.391  0.3583 -0.0040 -0.6356
   20CHL1   C23 1465   5.164   0.006   9.316 -0.0478 -0.5467 -0.1156
   20CHL1  H23A 1466   5.204   0.109   9.304 -0.1253 -0.5732 -0.6007
   20CHL1  H23B 1467   5.258  -0.045   9.347 -0.1761 -0.3520  0.5979
   20CHL1   C24 1468   5.121  -0.065   9.189  0.2632  0.1197 -0.1124
   20CHL1  H24A 1469   5.131  -0.173   9.216 -0.8913  0.2573  0.8838
   20CHL1  H24B 1470   5.015  -0.047   9.164 -0.3051 -1.1012  1.3282
   20CHL1   C25 1471   5.208  -0.049   9.064  0.2728 -0.9196 -0.1271
   20CHL1   H25 1472   5.310  -0.086   9.086 -0.0732 -0.0984  3.0197
   20CHL1   C26 1473   5.159  -0.135   8.953 -0.3135  0.1423 -0.1610
   20CHL1  H26A 1474   5.173  -0.245   8.962  2.5058  0.3845 -1.1525
   20CHL1  H26B 1475   5.050  -0.116   8.949 -0.1356  1.2195  0.0684
   20CHL1  H26C 1476   5.197  -0.105   8.853  0.6244 -0.5604 -0.0272
   20CHL1   C27 1477   5.213   0.107   9.016  0.1602  0.6332 -0.7273
   20CHL1  H27A 1478   5.264   0.123   8.919  0.0897  0.2872 -0.8204
   20CHL1  H27B 1479   5.109   0.146   9.005 -0.3567 -0.4864  0.0645
   20CHL1  H27C 1480   5.267   0.164   9.095 -1.7243  0.8851  0.4127
   21CHL1    C3 1481   5.467   3.115  10.432 -0.0436 -0.7309  0.0325
   21CHL1    H3 1482   5.576   3.124  10.452 -0.6016  0.7541  2.8053
   21CHL1    O3 1483   5.384   3.129  10.548 -0.3131 -0.9526 -0.0859
   21CHL1   H3' 1484   5.312   3.074  10.516 -0.6685 -0.5995  0.1014
   21CHL1    C4 1485   5.418   3.225  10.332  0.3050  0.1480  0.3126
   21CHL1   H4A 1486   5.311   3.216  10.303  0.5900  0.5200 -0.9144
   21CHL1   H4B 1487   5.444   3.327  10.366 -3.0754  1.2214 -0.1613
   21CHL1    C5 1488   5.475   3.211  10.193 -1.0982  0.2860  0.4710
   21CHL1    C6 1489   5.539   3.312  10.127  0.2648 -0.8565  0.1703
   21CHL1    H6 1490   5.553   3.408  10.180 -1.8166 -1.0301  1.0937
   21CHL1    C7 1491   5.582   3.307   9.979  0.1642  0.0237  0.3702
   21CHL1   H7A 1492   5.540   3.399   9.932 -0.6094 -0.4944  0.0326
   21CHL1   H7B 1493   5.691   3.298   9.960 -0.4620 -0.8178 -3.0817
   21CHL1    C8 1494   5.516   3.184   9.906 -0.6495  0.0318 -0.2910
   21CHL1    H8 1495   5.408   3.209   9.898 -0.3122  1.2455 -1.2715
   21CHL1   C14 1496   5.581   3.165   9.773  0.2948 -0.7143  0.0768
   21CHL1   H14 1497   5.688   3.145   9.795  0.1298  0.0676  1.5981
   21CHL1   C15 1498   5.571   3.290   9.675 -0.3477  0.2839 -0.2392
   21CHL1  H15A 1499   5.466   3.322   9.691 -0.4593 -0.0613 -0.2723
   21CHL1  H15B 1500   5.643   3.366   9.711  0.7332 -0.6779 -0.3509
   21CHL1   C16 1501   5.592   3.226   9.539 -0.1641 -0.4960 -0.4078
   21CHL1  H16A 1502   5.511   3.265   9.473 -0.6173 -0.7408 -0.0059
   21CHL1  H16B 1503   5.680   3.261   9.481 -0.6306  1.3432 -0.0652
   21CHL1   C17 1504   5.588   3.071   9.554 -0.4141  0.4472 -0.8649
   21CHL1   H17 1505   5.693   3.038   9.567 -0.7242 -0.8600 -1.5745
   21CHL1   C13 1506   5.530   3.043   9.695  0.2097  0.7295 -1.4624
   21CHL1   C18 1507   5.375   3.049   9.686  0.4905  0.4222 -0.9573
   21CHL1  H18A 1508   5.313   3.037   9.778  1.5976  2.1764  0.0629
   21CHL1  H18B 1509   5.338   3.141   9.636 -2.8579 -0.7340 -0.7541
   21CHL1  H18C 1510   5.338   2.959   9.633 -1.2231  0.5778 -0.0765
   21CHL1   C12 1511   5.584   2.919   9.773 -0.3314  0.4445  0.6789
   21CHL1  H12A 1512   5.566   2.822   9.722  0.9883  0.5953 -0.1060
   21CHL1  H12B 1513   5.695   2.924   9.778 -0.2729  0.1785 -0.2258
   21CHL1   C11 1514   5.519   2.919   9.914 -0.3856  0.6543 -0.4563
   21CHL1  H11A 1515   5.415   2.885   9.897 -0.2615  1.6987 -3.5779
   21CHL1  H11B 1516   5.557   2.828   9.965  0.4279  0.8383 -0.7314
   21CHL1    C9 1517   5.533   3.057   9.993  0.2495  0.1520 -0.7757
   21CHL1    H9 1518   5.642   3.059  10.013  0.5366 -1.7281 -2.0940
   21CHL1   C10 1519   5.457   3.067  10.128  0.6542 -0.3822 -0.1682
   21CHL1   C19 1520   5.309   3.025  10.102  0.2145  0.0498  0.2990
   21CHL1  H19A 1521   5.247   3.051  10.191  1.4252  1.0257  0.8562
   21CHL1  H19B 1522   5.264   3.089  10.023  1.4854 -1.3125 -1.5617
   21CHL1  H19C 1523   5.287   2.918  10.080 -0.5879  0.3861 -0.5479
   21CHL1    C1 1524   5.515   2.966  10.233  0.4876 -0.1648 -0.1957
   21CHL1   H1A 1525   5.489   2.862  10.201 -1.8151  1.1652 -2.8752
   21CHL1   H1B 1526   5.620   2.997  10.250  0.0010  0.2058  2.2904
   21CHL1    C2 1527   5.450   2.979  10.371 -0.0643 -0.2658  0.0506
   21CHL1   H2A 1528   5.494   2.901  10.437  1.8108  0.2628 -0.5298
   21CHL1   H2B 1529   5.342   2.954  10.361 -0.4146  0.1508  2.4608
   21CHL1   C20 1530   5.528   2.989   9.439  0.2008  0.3264 -0.0551
   21CHL1   H20 1531   5.423   3.023   9.434 -0.2172 -0.3321  3.1150
   21CHL1   C21 1532   5.559   2.838   9.460 -0.5493  0.2262 -0.0373
   21CHL1  H21A 1533   5.529   2.776   9.373  1.0729  0.3569 -0.7175
   21CHL1  H21B 1534   5.497   2.805   9.546  1.1697 -1.0775  0.7238
   21CHL1  H21C 1535   5.666   2.821   9.482 -0.3659 -0.7115 -1.6287
   21CHL1   C22 1536   5.583   3.036   9.304  0.2576 -0.3808  0.6300
   21CHL1  H22A 1537   5.552   3.142   9.293 -0.7790 -0.4504  2.5545
   21CHL1  H22B 1538   5.691   3.007   9.299  0.3648  0.2998 -1.5877
   21CHL1   C23 1539   5.508   2.970   9.187 -0.4415  0.4536  0.0117
   21CHL1  H23A 1540   5.508   2.860   9.195 -0.8427  0.4688  0.2379
   21CHL1  H23B 1541   5.402   3.001   9.197 -0.7237  0.0466 -1.5443
   21CHL1   C24 1542   5.547   3.027   9.046  0.5462 -0.4215 -0.3242
   21CHL1  H24A 1543   5.505   3.130   9.045 -0.9181 -0.9876  0.6154
   21CHL1  H24B 1544   5.656   3.049   9.044  0.2951  0.9359  0.1075
   21CHL1   C25 1545   5.493   2.946   8.915  0.5775 -0.3433  0.7780
   21CHL1   H25 1546   5.385   2.939   8.938  0.6889 -1.2472  1.0771
   21CHL1   C26 1547   5.523   3.018   8.779  0.3676 -0.1734 -0.2144
   21CHL1  H26A 1548   5.504   2.954   8.690 -0.7116 -0.6422  0.3422
   21CHL1  H26B 1549   5.463   3.111   8.768 -2.1136 -1.5417  1.2694
   21CHL1  H26C 1550   5.632   3.032   8.763  0.3380  1.2290  0.7830
   21CHL1   C27 1551   5.571   2.819   8.906 -0.0134 -0.2616  0.0214
   21CHL1  H27A 1552   5.549   2.764   8.812  0.3463 -0.5293  0.0965
   21CHL1  H27B 1553   5.680   2.840   8.905 -0.3517  1.5477 -0.6304
   21CHL1  H27C 1554   5.554   2.745   8.988  1.5670 -2.2801 -1.4237
   22CHL1    C3 1555   4.763   4.208   9.996 -0.1528  0.3732  0.2404
   22CHL1    H3 1556   4.764   4.097   9.997  0.9510  0.3416 -1.8707
   22CHL1    O3 1557   4.737   4.240  10.133  0.4913 -0.1558  0.3995
   22CHL1   H3' 1558   4.727   4.335  10.132 -1.9894 -0.3627  0.6551
   22CHL1    C4 1559   4.897   4.282   9.969 -0.4449 -0.0693 -0.5730
   22CHL1   H4A 1560   4.898   4.389   9.996 -0.8991 -0.4644  1.0636
   22CHL1   H4B 1561   4.984   4.237  10.021 -0.9095  0.4980  0.6990
   22CHL1    C5 1562   4.923   4.260   9.827 -0.0748 -0.2909  0.1247
   22CHL1    C6 1563   5.041   4.209   9.780  0.0530 -0.0257  0.1426
   22CHL1    H6 1564   5.117   4.174   9.852 -0.4677  0.3979  0.9099
   22CHL1    C7 1565   5.072   4.184   9.639  0.6836  0.5311 -0.5124
   22CHL1   H7A 1566   5.179   4.216   9.637  0.7805  0.1915 -1.0152
   22CHL1   H7B 1567   5.053   4.078   9.612 -0.3814  0.9290 -1.3250
   22CHL1    C8 1568   4.993   4.274   9.548  0.5723  0.0504  0.2340
   22CHL1    H8 1569   5.023   4.381   9.553 -0.0603  0.2907 -0.9782
   22CHL1   C14 1570   5.006   4.228   9.406  0.0952  0.2005  0.6223
   22CHL1   H14 1571   4.971   4.124   9.419  0.5402  0.0219  0.4206
   22CHL1   C15 1572   5.149   4.211   9.347  0.1031  0.0828  0.1742
   22CHL1  H15A 1573   5.214   4.298   9.368 -0.1125  0.1552  0.5381
   22CHL1  H15B 1574   5.205   4.129   9.396  1.2410  1.2838  0.9064
   22CHL1   C16 1575   5.131   4.193   9.199  0.3781  0.1825  0.4944
   22CHL1  H16A 1576   5.189   4.272   9.145 -0.3060 -0.1931 -0.8277
   22CHL1  H16B 1577   5.175   4.095   9.169 -1.0741 -0.5032  0.5967
   22CHL1   C17 1578   4.981   4.210   9.178  0.1068 -0.6264 -0.2081
   22CHL1   H17 1579   4.931   4.112   9.192 -0.3442 -0.4951 -0.8460
   22CHL1   C13 1580   4.930   4.291   9.298  0.3739 -0.3918 -0.5680
   22CHL1   C18 1581   4.963   4.441   9.301  0.2363 -0.5544  0.4292
   22CHL1  H18A 1582   4.919   4.490   9.390  0.6358  0.7143 -0.0695
   22CHL1  H18B 1583   5.074   4.444   9.311  0.4065 -2.2600 -0.5686
   22CHL1  H18C 1584   4.943   4.490   9.203 -1.9199  0.1726  1.2026
   22CHL1   C12 1585   4.781   4.262   9.325  0.1310 -0.0649 -0.0313
   22CHL1  H12A 1586   4.725   4.327   9.254  1.0123  1.5154  0.6866
   22CHL1  H12B 1587   4.760   4.156   9.299 -1.2518 -0.1032  1.1895
   22CHL1   C11 1588   4.742   4.293   9.474 -0.7131 -0.2257  0.0590
   22CHL1  H11A 1589   4.712   4.400   9.477 -0.3458 -0.1016 -0.4963
   22CHL1  H11B 1590   4.643   4.246   9.493  0.0475 -1.6516  0.5838
   22CHL1    C9 1591   4.841   4.249   9.583 -0.4041  0.2724 -0.0628
   22CHL1    H9 1592   4.831   4.138   9.577 -0.1795  0.1213  2.1183
   22CHL1   C10 1593   4.809   4.301   9.725 -0.1806  0.1961 -0.0013
   22CHL1   C19 1594   4.804   4.455   9.729 -0.3190  0.2031  0.5999
   22CHL1  H19A 1595   4.896   4.501   9.687  0.1904 -2.0938 -0.8633
   22CHL1  H19B 1596   4.719   4.491   9.667  0.0134 -0.1933 -0.0791
   22CHL1  H19C 1597   4.768   4.494   9.827 -0.1970  1.8350  0.0202
   22CHL1    C1 1598   4.669   4.239   9.765 -0.1009  0.6075  0.0322
   22CHL1   H1A 1599   4.586   4.285   9.707 -1.1627  0.8747  1.7484
   22CHL1   H1B 1600   4.679   4.134   9.731  0.4250  0.3200  1.0500
   22CHL1    C2 1601   4.644   4.253   9.911  0.5911  0.2536 -0.0409
   22CHL1   H2A 1602   4.550   4.200   9.939  1.6218 -0.0883  2.9887
   22CHL1   H2B 1603   4.614   4.359   9.928 -2.0215 -0.8506  2.7872
   22CHL1   C20 1604   4.938   4.249   9.031 -0.0261 -0.2030  0.5489
   22CHL1   H20 1605   4.832   4.284   9.034  0.0567  0.0739  0.2144
   22CHL1   C21 1606   4.937   4.130   8.931  0.4809  0.1412  0.5015
   22CHL1  H21A 1607   4.887   4.159   8.837 -0.8101 -0.6647  0.9198
   22CHL1  H21B 1608   4.871   4.049   8.969  0.7825 -0.3866 -0.1001
   22CHL1  H21C 1609   5.036   4.085   8.907 -0.2547 -0.9499 -0.5293
   22CHL1   C22 1610   5.013   4.368   8.959 -0.0091  0.9464  0.2216
   22CHL1  H22A 1611   5.016   4.463   9.017 -0.1372 -0.1036  1.9839
   22CHL1  H22B 1612   5.120   4.345   8.940  0.1762  1.8943  0.1055
   22CHL1   C23 1613   4.958   4.389   8.817 -0.5611 -0.6283  0.7266
   22CHL1  H23A 1614   5.019   4.341   8.738 -0.5260  3.5590 -1.9845
   22CHL1  H23B 1615   4.853   4.353   8.821 -0.3857 -1.1780  0.3733
   22CHL1   C24 1616   4.975   4.538   8.772 -0.5275  0.0650 -0.6016
   22CHL1  H24A 1617   4.926   4.596   8.853 -0.1948  2.0922 -1.8253
   22CHL1  H24B 1618   5.083   4.564   8.773 -0.2441 -0.7497 -3.8229
   22CHL1   C25 1619   4.907   4.579   8.641  0.6124 -0.3096  0.5346
   22CHL1   H25 1620   4.930   4.502   8.564 -0.9991  0.3334 -0.6085
   22CHL1   C26 1621   4.752   4.581   8.642 -0.0820 -0.5567  0.0810
   22CHL1  H26A 1622   4.715   4.487   8.688  1.7175 -0.7207  1.2568
   22CHL1  H26B 1623   4.713   4.670   8.696 -0.7474 -0.5734 -0.3715
   22CHL1  H26C 1624   4.704   4.567   8.544 -2.2768  2.9346  0.5657
   22CHL1   C27 1625   4.944   4.723   8.596 -0.7433 -0.4701  0.4239
   22CHL1  H27A 1626   4.888   4.752   8.505  0.4767 -2.3800 -0.9830
   22CHL1  H27B 1627   4.925   4.793   8.680  0.3207 -2.6592  2.5610
   22CHL1  H27C 1628   5.051   4.732   8.566 -0.9869  3.1619  0.5195
   23CHL1    C3 1629   1.304   5.602  10.073 -0.0337  0.7714  0.8538
   23CHL1    H3 1630   1.208   5.552  10.049  1.2756 -1.2899 -0.3409
   23CHL1    O3 1631   1.303   5.657  10.205 -0.0730  0.3933  0.0389
   23CHL1   H3' 1632   1.236   5.603  10.247 -1.0166  1.8318  0.3936
   23CHL1    C4 1633   1.420   5.509  10.049 -0.1116  0.4686  0.1962
   23CHL1   H4A 1634   1.513   5.567  10.069  0.4645 -0.1987 -0.5823
   23CHL1   H4B 1635   1.415   5.437  10.134  0.2250 -2.3174 -2.1043
   23CHL1    C5 1636   1.421   5.452   9.911 -0.0298 -0.4886  0.8560
   23CHL1    C6 1637   1.415   5.322   9.894  0.3193  0.1562 -0.3767
   23CHL1    H6 1638   1.406   5.255   9.981  5.4162 -0.3737 -0.0725
   23CHL1    C7 1639   1.417   5.257   9.755  0.3099  0.0286  0.8246
   23CHL1   H7A 1640   1.478   5.165   9.753  1.3199  0.7102 -1.2237
   23CHL1   H7B 1641   1.313   5.226   9.732  0.9061  0.0277 -2.0426
   23CHL1    C8 1642   1.471   5.353   9.645  0.0723  0.0573  0.3348
   23CHL1    H8 1643   1.581   5.354   9.657 -0.0567 -0.4754  1.6993
   23CHL1   C14 1644   1.444   5.305   9.504 -0.4566 -0.3349 -0.3706
   23CHL1   H14 1645   1.333   5.299   9.506 -0.4996  0.5665  0.3252
   23CHL1   C15 1646   1.508   5.171   9.465 -0.1581  0.0178 -0.1636
   23CHL1  H15A 1647   1.617   5.157   9.475 -0.2696 -1.0510 -0.4020
   23CHL1  H15B 1648   1.462   5.082   9.513  1.1337  0.2551  1.5478
   23CHL1   C16 1649   1.486   5.168   9.314 -0.2705 -0.8010  0.1733
   23CHL1  H16A 1650   1.587   5.144   9.275 -0.0274 -0.1833  0.4326
   23CHL1  H16B 1651   1.402   5.100   9.285  0.3561 -2.4807  2.1376
   23CHL1   C17 1652   1.441   5.307   9.266  0.5839 -0.1673  0.1923
   23CHL1   H17 1653   1.331   5.300   9.253  0.5860  0.7710 -0.3441
   23CHL1   C13 1654   1.475   5.397   9.385  0.4189  0.0853 -0.4050
   23CHL1   C18 1655   1.630   5.417   9.384 -0.1145 -0.2171 -0.4301
   23CHL1  H18A 1656   1.654   5.512   9.332 -0.4232  0.6575  0.9898
   23CHL1  H18B 1657   1.670   5.417   9.488  0.2241 -0.6441 -0.5560
   23CHL1  H18C 1658   1.692   5.337   9.338 -0.1446  0.1852 -1.1816
   23CHL1   C12 1659   1.402   5.536   9.406  0.3878  0.4970  0.7226
   23CHL1  H12A 1660   1.426   5.603   9.321  0.5918 -0.2358  0.1874
   23CHL1  H12B 1661   1.294   5.514   9.400 -0.0785  2.6437  0.8993
   23CHL1   C11 1662   1.427   5.597   9.543 -0.0808 -0.0777  0.5136
   23CHL1  H11A 1663   1.534   5.626   9.543 -0.6072  1.9083  0.7975
   23CHL1  H11B 1664   1.370   5.692   9.550  1.0891  0.6945 -0.2119
   23CHL1    C9 1665   1.401   5.497   9.662 -0.0505  0.9361 -0.5577
   23CHL1    H9 1666   1.293   5.472   9.653 -0.1751  0.8422  1.0893
   23CHL1   C10 1667   1.426   5.561   9.804  0.0376 -0.0477  0.5653
   23CHL1   C19 1668   1.576   5.601   9.812  0.3560 -0.0907  0.0582
   23CHL1  H19A 1669   1.605   5.678   9.737  0.2689 -0.1788 -0.0675
   23CHL1  H19B 1670   1.592   5.670   9.897  3.1631 -2.6959  1.6983
   23CHL1  H19C 1671   1.648   5.521   9.787 -0.6009 -0.1707 -2.6356
   23CHL1    C1 1672   1.335   5.681   9.823  0.5628 -0.2215 -0.2013
   23CHL1   H1A 1673   1.365   5.770   9.763 -0.7877  0.4222  0.0550
   23CHL1   H1B 1674   1.232   5.650   9.795  0.4853  0.0924 -0.2765
   23CHL1    C2 1675   1.333   5.726   9.971  0.6437 -0.1889 -0.6919
   23CHL1   H2A 1676   1.254   5.801   9.988  0.4406 -0.5504 -0.0219
   23CHL1   H2B 1677   1.429   5.781   9.984  0.4484 -0.1792  0.7385
   23CHL1   C20 1678   1.499   5.332   9.126 -0.1817  0.1755 -0.2351
   23CHL1   H20 1679   1.608   5.312   9.122 -0.4349 -1.4461  0.4572
   23CHL1   C21 1680   1.475   5.474   9.079 -0.2913 -0.1337  0.9740
   23CHL1  H21A 1681   1.540   5.551   9.125 -2.3342  1.9268  0.4863
   23CHL1  H21B 1682   1.366   5.494   9.083 -0.0996  0.8291  1.6594
   23CHL1  H21C 1683   1.505   5.472   8.972 -0.9935  1.2634  0.7338
   23CHL1   C22 1684   1.426   5.238   9.020 -0.2818  0.3225 -0.3625
   23CHL1  H22A 1685   1.459   5.139   9.060 -3.0259  0.3063  2.0468
   23CHL1  H22B 1686   1.316   5.250   9.022 -0.0301  2.6928  1.0794
   23CHL1   C23 1687   1.471   5.243   8.873  0.2298 -0.2719 -0.0430
   23CHL1  H23A 1688   1.419   5.171   8.807 -0.2491  0.8702 -0.9212
   23CHL1  H23B 1689   1.454   5.348   8.841  1.8538 -0.2943 -1.0137
   23CHL1   C24 1690   1.623   5.239   8.851  0.2067  0.2801 -0.7732
   23CHL1  H24A 1691   1.672   5.325   8.902 -1.7269  0.5587  0.6839
   23CHL1  H24B 1692   1.662   5.144   8.893 -2.1302 -0.7860 -0.9446
   23CHL1   C25 1693   1.667   5.236   8.704  0.0220  0.9860  0.0879
   23CHL1   H25 1694   1.616   5.153   8.652  2.4389  0.3219 -1.2775
   23CHL1   C26 1695   1.627   5.375   8.628  0.1545  0.1150 -0.3893
   23CHL1  H26A 1696   1.518   5.387   8.612  0.1018 -0.9463 -0.8327
   23CHL1  H26B 1697   1.661   5.461   8.689  0.0148 -1.0656  1.3786
   23CHL1  H26C 1698   1.672   5.382   8.527  0.8544  2.1209  0.0311
   23CHL1   C27 1699   1.818   5.217   8.695 -0.3373  0.1135 -0.7520
   23CHL1  H27A 1700   1.843   5.216   8.587 -1.3493  1.5866 -1.0233
   23CHL1  H27B 1701   1.865   5.311   8.731  2.7552 -1.6769  0.1188
   23CHL1  H27C 1702   1.863   5.128   8.744  2.8761  1.5316 -1.0337
   24CHL1    C3 1703   1.930   0.267  10.229 -0.7006  0.2489  0.2132
   24CHL1    H3 1704   1.909   0.365  10.182  1.2027  0.7105  0.2962
   24CHL1    O3 1705   1.870   0.263  10.363 -0.3664 -0.0829  0.4169
   24CHL1   H3' 1706   1.906   0.191  10.416  0.4745  0.8200  1.0972
   24CHL1    C4 1707   1.861   0.158  10.149  1.2093 -0.1352 -0.5180
   24CHL1   H4A 1708   1.887   0.063  10.199  4.5856  0.9412 -0.1007
   24CHL1   H4B 1709   1.750   0.169  10.150  1.3264  1.2276 -0.8798
   24CHL1    C5 1710   1.909   0.167  10.005  0.0433 -0.9641 -0.1799
   24CHL1    C6 1711   1.818   0.198   9.910 -0.9289 -0.1454  0.3602
   24CHL1    H6 1712   1.714   0.213   9.939 -1.5517 -0.8726 -1.4010
   24CHL1    C7 1713   1.863   0.201   9.768  0.4110 -0.6251  1.1271
   24CHL1   H7A 1714   1.789   0.153   9.700 -1.0669  1.3537  1.2898
   24CHL1   H7B 1715   1.883   0.304   9.730 -1.3032 -0.0497  1.7411
   24CHL1    C8 1716   1.993   0.122   9.745  0.2017 -0.4814 -1.0778
   24CHL1    H8 1717   1.980   0.013   9.763 -1.0696 -0.1342  0.2254
   24CHL1   C14 1718   2.037   0.148   9.602 -0.1996  0.8388 -0.0286
   24CHL1   H14 1719   2.066   0.254   9.593  0.5464  0.4815 -1.9777
   24CHL1   C15 1720   1.948   0.102   9.488 -0.5382 -0.5668 -0.2484
   24CHL1  H15A 1721   1.897   0.008   9.518 -0.7087 -0.0284  1.2138
   24CHL1  H15B 1722   1.866   0.176   9.479 -0.7866 -0.8051  0.0656
   24CHL1   C16 1723   2.038   0.088   9.367 -0.4026 -0.4599 -0.1242
   24CHL1  H16A 1724   2.016  -0.009   9.316  0.0162 -0.4373 -0.3498
   24CHL1  H16B 1725   2.025   0.170   9.293  2.1277  1.2117  1.2448
   24CHL1   C17 1726   2.187   0.106   9.418  0.0561 -0.6569 -0.1433
   24CHL1   H17 1727   2.216   0.213   9.416 -1.9091 -0.1425 -2.2191
   24CHL1   C13 1728   2.172   0.078   9.570  0.4302  0.9920  1.2409
   24CHL1   C18 1729   2.159  -0.075   9.581  0.0960 -0.2806  0.0544
   24CHL1  H18A 1730   2.263  -0.109   9.558  0.2568  0.1445  0.1449
   24CHL1  H18B 1731   2.155  -0.101   9.689 -0.0785 -1.6446 -0.2771
   24CHL1  H18C 1732   2.078  -0.123   9.523 -2.2044  1.2107  1.9543
   24CHL1   C12 1733   2.278   0.144   9.656 -0.3552  0.9884  0.5355
   24CHL1  H12A 1734   2.383   0.115   9.635 -1.0158 -0.7428 -0.5071
   24CHL1  H12B 1735   2.264   0.254   9.646 -1.3703  0.7659 -0.5730
   24CHL1   C11 1736   2.243   0.136   9.808 -0.6180 -0.2164 -0.4831
   24CHL1  H11A 1737   2.266   0.032   9.841  2.2298  0.3573 -0.5123
   24CHL1  H11B 1738   2.318   0.197   9.863 -0.1977  0.2308 -1.5361
   24CHL1    C9 1739   2.099   0.177   9.845  0.4114 -0.7685  0.1265
   24CHL1    H9 1740   2.103   0.286   9.825  2.0681 -0.7055  0.7550
   24CHL1   C10 1741   2.061   0.145   9.987  0.5778  0.2648  0.3369
   24CHL1   C19 1742   2.092   0.001  10.034 -0.7025  1.0073 -0.9450
   24CHL1  H19A 1743   2.054  -0.067   9.955 -2.6313 -0.3468  1.0702
   24CHL1  H19B 1744   2.199  -0.021  10.052 -1.3532 -1.6679  0.0129
   24CHL1  H19C 1745   2.036  -0.027  10.126  1.5312  1.0198  0.4588
   24CHL1    C1 1746   2.144   0.236  10.082  0.3002  0.5342  0.1597
   24CHL1   H1A 1747   2.251   0.207  10.084  0.0237 -0.5271 -0.4602
   24CHL1   H1B 1748   2.130   0.343  10.055  0.5128  0.2436 -1.1222
   24CHL1    C2 1749   2.086   0.233  10.231  0.3481 -0.0907  0.0712
   24CHL1   H2A 1750   2.118   0.311  10.303 -1.5515  0.2985  0.5143
   24CHL1   H2B 1751   2.098   0.134  10.281 -1.2329 -0.2608  0.1538
   24CHL1   C20 1752   2.284   0.019   9.333  0.4050  0.0598  0.4740
   24CHL1   H20 1753   2.261  -0.089   9.349 -1.8479  0.1299 -1.9710
   24CHL1   C21 1754   2.435   0.044   9.363  0.3301 -0.1836  0.4607
   24CHL1  H21A 1755   2.512   0.002   9.294  0.4078 -0.5462  0.7715
   24CHL1  H21B 1756   2.459  -0.002   9.461  2.1406 -0.3182 -0.0320
   24CHL1  H21C 1757   2.449   0.153   9.381 -1.8438 -0.0291  1.3863
   24CHL1   C22 1758   2.274   0.039   9.174 -1.1005 -0.8631  0.9447
   24CHL1  H22A 1759   2.172   0.071   9.145 -0.0319  0.3929 -1.6215
   24CHL1  H22B 1760   2.346   0.121   9.150 -0.7881 -1.3737  0.1071
   24CHL1   C23 1761   2.296  -0.082   9.090  0.0654  0.1611  0.1214
   24CHL1  H23A 1762   2.400  -0.118   9.107 -0.8050 -1.7213  1.5320
   24CHL1  H23B 1763   2.223  -0.162   9.111 -0.2672  0.6669  0.9138
   24CHL1   C24 1764   2.304  -0.049   8.944  0.7930 -0.5079 -0.4827
   24CHL1  H24A 1765   2.208   0.003   8.923  1.6414  0.5689 -1.7196
   24CHL1  H24B 1766   2.383   0.028   8.937  1.0987 -0.8162 -0.4272
   24CHL1   C25 1767   2.343  -0.168   8.860  0.3641  0.0221 -0.8175
   24CHL1   H25 1768   2.434  -0.207   8.910 -1.4123 -2.5780  0.5067
   24CHL1   C26 1769   2.226  -0.271   8.859 -0.6002 -0.9637  0.8807
   24CHL1  H26A 1770   2.221  -0.337   8.770  0.6515  2.1873 -1.6580
   24CHL1  H26B 1771   2.219  -0.319   8.958 -2.5810 -2.0185  0.2474
   24CHL1  H26C 1772   2.135  -0.207   8.852 -0.1398 -0.1387  2.2311
   24CHL1   C27 1773   2.389  -0.128   8.721  0.2142  0.0195  0.0569
   24CHL1  H27A 1774   2.498  -0.107   8.731 -0.1361  1.5407  0.8724
   24CHL1  H27B 1775   2.364  -0.203   8.643  1.0944 -0.5038  0.2759
   24CHL1  H27C 1776   2.343  -0.035   8.680 -1.7163  0.1379  2.4147
   25CHL1    C3 1777   4.309   1.181  10.362  0.7388  0.1024 -0.3448
   25CHL1    H3 1778   4.388   1.110  10.331 -1.4983 -2.9740  0.7939
   25CHL1    O3 1779   4.292   1.166  10.504  0.2129  0.1097  0.0173
   25CHL1   H3' 1780   4.336   1.081  10.514  0.3185 -0.1864 -2.6315
   25CHL1    C4 1781   4.338   1.324  10.325  0.4462  0.2497  0.3804
   25CHL1   H4A 1782   4.262   1.393  10.368  1.5311  1.1400  0.9075
   25CHL1   H4B 1783   4.435   1.354  10.371  0.0531 -0.2302  1.5392
   25CHL1    C5 1784   4.350   1.352  10.175 -0.2981 -0.3340  0.0864
   25CHL1    C6 1785   4.455   1.402  10.119 -0.3864  1.0276  0.1370
   25CHL1    H6 1786   4.542   1.437  10.177  0.6058 -1.2300  0.0657
   25CHL1    C7 1787   4.461   1.437   9.976 -0.0951  0.1606  0.0017
   25CHL1   H7A 1788   4.491   1.544   9.969 -1.1950  0.4613 -0.3233
   25CHL1   H7B 1789   4.542   1.379   9.927 -0.8927 -1.1657  0.2241
   25CHL1    C8 1790   4.334   1.414   9.889 -0.2901  0.1570  0.0727
   25CHL1    H8 1791   4.266   1.501   9.903 -0.8157 -0.4668  1.5366
   25CHL1   C14 1792   4.368   1.389   9.741  0.0463 -0.1536 -0.4430
   25CHL1   H14 1793   4.432   1.298   9.736  0.5003  0.1338  0.1557
   25CHL1   C15 1794   4.461   1.492   9.662 -0.1960 -0.2661 -0.2456
   25CHL1  H15A 1795   4.421   1.593   9.687 -1.1900 -0.3761 -1.3319
   25CHL1  H15B 1796   4.567   1.479   9.691  0.1066 -0.8423 -1.5967
   25CHL1   C16 1797   4.447   1.456   9.517  0.2102  0.1196 -0.5821
   25CHL1  H16A 1798   4.418   1.551   9.468 -2.0517 -0.2922 -0.1164
   25CHL1  H16B 1799   4.535   1.414   9.463  0.1990 -0.6542 -0.0101
   25CHL1   C17 1800   4.322   1.356   9.511  0.0875 -0.1793 -0.7785
   25CHL1   H17 1801   4.367   1.255   9.499 -1.6488 -0.9951 -0.6026
   25CHL1   C13 1802   4.248   1.376   9.655 -0.0132  0.5449  0.3797
   25CHL1   C18 1803   4.159   1.500   9.647 -0.4356 -0.3255  0.1733
   25CHL1  H18A 1804   4.058   1.478   9.607 -0.2249 -2.5673  0.8530
   25CHL1  H18B 1805   4.149   1.535   9.752 -0.4687 -0.1991  0.1287
   25CHL1  H18C 1806   4.205   1.591   9.603  0.2350  0.4466  2.3835
   25CHL1   C12 1807   4.164   1.248   9.695 -0.6441 -0.1976  0.2280
   25CHL1  H12A 1808   4.072   1.241   9.633 -0.9513 -0.2989  0.6846
   25CHL1  H12B 1809   4.217   1.152   9.682 -0.0934  0.2126 -0.5844
   25CHL1   C11 1810   4.128   1.260   9.849  0.5603 -0.3094 -0.3882
   25CHL1  H11A 1811   4.058   1.345   9.862  0.5557 -0.1974 -1.1257
   25CHL1  H11B 1812   4.079   1.165   9.879  0.1179  0.2054  0.5129
   25CHL1    C9 1813   4.253   1.296   9.938 -0.2801 -0.0970  0.3906
   25CHL1    H9 1814   4.330   1.217   9.919  1.3023  1.4178  0.3789
   25CHL1   C10 1815   4.228   1.297  10.088  0.1852 -0.6784  0.1466
   25CHL1   C19 1816   4.116   1.396  10.114 -0.0434  0.1217  0.2021
   25CHL1  H19A 1817   4.141   1.501  10.087  1.2529 -0.5862 -1.4110
   25CHL1  H19B 1818   4.021   1.366  10.064  0.7553  0.0511 -1.2810
   25CHL1  H19C 1819   4.090   1.402  10.222 -2.7887  0.3586 -0.4344
   25CHL1    C1 1820   4.189   1.156  10.140  0.0630  0.1144 -0.9718
   25CHL1   H1A 1821   4.089   1.125  10.103  0.1681 -0.1636 -1.0294
   25CHL1   H1B 1822   4.264   1.080  10.108 -0.1263 -1.1753  1.4936
   25CHL1    C2 1823   4.177   1.134  10.298  0.4632  0.4350  0.3895
   25CHL1   H2A 1824   4.171   1.026  10.321  1.2190  0.3392  0.1761
   25CHL1   H2B 1825   4.093   1.192  10.342  1.3071  2.7530 -0.9390
   25CHL1   C20 1826   4.236   1.386   9.393 -0.2502 -0.2452  0.3337
   25CHL1   H20 1827   4.188   1.486   9.401 -0.4532 -0.0357 -2.8865
   25CHL1   C21 1828   4.120   1.281   9.377  0.4470 -0.1553 -0.5967
   25CHL1  H21A 1829   4.162   1.179   9.394 -0.3714 -0.4654 -0.4357
   25CHL1  H21B 1830   4.073   1.303   9.279 -0.6600  0.0201 -0.0359
   25CHL1  H21C 1831   4.034   1.300   9.445  1.4054  1.1114  0.2817
   25CHL1   C22 1832   4.317   1.385   9.256  0.1553 -0.7165  0.0017
   25CHL1  H22A 1833   4.248   1.413   9.173  1.1386 -0.2964 -0.6777
   25CHL1  H22B 1834   4.398   1.460   9.265  0.3420 -0.8405 -0.6716
   25CHL1   C23 1835   4.401   1.256   9.217 -0.4289  0.1124 -0.0269
   25CHL1  H23A 1836   4.502   1.250   9.264 -0.4249 -0.2744 -0.0877
   25CHL1  H23B 1837   4.341   1.169   9.253 -0.0758  0.3782  1.2433
   25CHL1   C24 1838   4.418   1.240   9.067 -0.0589 -0.4146  0.2850
   25CHL1  H24A 1839   4.471   1.143   9.057  1.9421  0.6153  0.6764
   25CHL1  H24B 1840   4.319   1.222   9.020  1.0735  0.7278 -2.6124
   25CHL1   C25 1841   4.500   1.346   8.984  0.2305 -0.0003  0.2225
   25CHL1   H25 1842   4.432   1.435   8.980 -0.7925 -0.7839 -0.0988
   25CHL1   C26 1843   4.635   1.376   9.044 -0.1736 -0.3361 -0.0463
   25CHL1  H26A 1844   4.686   1.284   9.082 -0.9699  0.2457  2.5230
   25CHL1  H26B 1845   4.701   1.427   8.971 -0.4515  0.6771  0.4142
   25CHL1  H26C 1846   4.620   1.452   9.124  2.6683 -0.4331  0.6367
   25CHL1   C27 1847   4.512   1.308   8.842 -0.3118  0.0118 -0.3389
   25CHL1  H27A 1848   4.548   1.394   8.781  1.2464 -0.9996 -0.8904
   25CHL1  H27B 1849   4.588   1.227   8.829  3.6914  3.7251 -1.0791
   25CHL1  H27C 1850   4.409   1.282   8.807 -0.3458 -3.1155  1.8110
   26CHL1    C3 1851   5.676   4.113  10.074  0.9587 -0.1900 -0.6200
   26CHL1    H3 1852   5.651   4.007  10.054 -0.3864  0.5365 -3.0217
   26CHL1    O3 1853   5.692   4.116  10.220 -0.2109 -0.9499  0.2478
   26CHL1   H3' 1854   5.612   4.141  10.267  1.4971  1.4297  2.0628
   26CHL1    C4 1855   5.807   4.141  10.005 -0.7525 -0.0299  0.0213
   26CHL1   H4A 1856   5.861   4.227  10.048  0.0187 -2.6288  4.6079
   26CHL1   H4B 1857   5.878   4.060  10.031 -0.1398  0.6260  0.3994
   26CHL1    C5 1858   5.789   4.145   9.856  0.3025  0.3317 -0.3281
   26CHL1    C6 1859   5.866   4.066   9.774 -0.2055 -0.5493 -0.2178
   26CHL1    H6 1860   5.952   4.010   9.815 -0.3049 -0.3142  0.3150
   26CHL1    C7 1861   5.855   4.070   9.623  0.5468 -0.5369  0.0378
   26CHL1   H7A 1862   5.953   4.083   9.572  1.0664  0.6871  1.3378
   26CHL1   H7B 1863   5.826   3.971   9.580  1.6795 -0.0366 -1.9561
   26CHL1    C8 1864   5.775   4.183   9.564  0.3452 -0.1088  0.3565
   26CHL1    H8 1865   5.843   4.270   9.559  1.1924 -0.7392  0.7405
   26CHL1   C14 1866   5.731   4.151   9.418  0.7237  0.2385 -0.3566
   26CHL1   H14 1867   5.657   4.068   9.429 -0.3111  1.3863  1.6206
   26CHL1   C15 1868   5.844   4.091   9.327  0.1666 -0.1127 -0.5566
   26CHL1  H15A 1869   5.937   4.145   9.355 -0.3813  1.2686 -1.3461
   26CHL1  H15B 1870   5.858   3.981   9.327  1.3773  0.0318 -1.0467
   26CHL1   C16 1871   5.797   4.135   9.185  0.6415 -0.8813  0.3132
   26CHL1  H16A 1872   5.864   4.219   9.157 -0.4346 -0.0200  0.2802
   26CHL1  H16B 1873   5.794   4.056   9.108  0.6898 -0.3509 -0.2349
   26CHL1   C17 1874   5.656   4.193   9.203  0.0581 -0.1791  0.8266
   26CHL1   H17 1875   5.594   4.102   9.219 -1.1049  0.3521 -0.6213
   26CHL1   C13 1876   5.663   4.266   9.345 -0.5500 -0.0027  0.3693
   26CHL1   C18 1877   5.757   4.393   9.343 -0.3430  0.1925 -0.1424
   26CHL1  H18A 1878   5.859   4.372   9.306  0.0147  1.0170  0.3618
   26CHL1  H18B 1879   5.722   4.455   9.257 -2.7265  0.3490  0.9013
   26CHL1  H18C 1880   5.752   4.448   9.439  1.7378  0.5381 -0.2281
   26CHL1   C12 1881   5.532   4.289   9.419  0.2873 -0.4716 -0.4834
   26CHL1  H12A 1882   5.485   4.381   9.378 -0.5186 -0.9222 -0.5705
   26CHL1  H12B 1883   5.466   4.201   9.407 -0.5160 -0.4324  2.9182
   26CHL1   C11 1884   5.549   4.309   9.577  0.0364  0.9050 -0.0021
   26CHL1  H11A 1885   5.568   4.417   9.593 -1.8301  1.2773 -0.2308
   26CHL1  H11B 1886   5.458   4.292   9.638  0.5200 -4.3541 -0.5026
   26CHL1    C9 1887   5.653   4.210   9.649  0.7068 -0.0704  0.6827
   26CHL1    H9 1888   5.592   4.117   9.646  2.0599 -0.9580 -0.2444
   26CHL1   C10 1889   5.679   4.235   9.797 -0.4678 -0.4751 -0.4042
   26CHL1   C19 1890   5.733   4.381   9.810 -0.1802 -0.8221 -0.9089
   26CHL1  H19A 1891   5.811   4.404   9.735  0.0161 -2.8032 -1.3373
   26CHL1  H19B 1892   5.652   4.451   9.778 -2.1242 -1.6130  2.0718
   26CHL1  H19C 1893   5.771   4.401   9.912 -0.8548 -0.0976 -0.7898
   26CHL1    C1 1894   5.549   4.213   9.877  0.0140 -0.2295  0.4272
   26CHL1   H1A 1895   5.460   4.278   9.862  1.3811  1.8962  1.4086
   26CHL1   H1B 1896   5.499   4.114   9.864 -0.2740 -0.2300  1.4742
   26CHL1    C2 1897   5.570   4.214  10.030  0.1702  0.2154  0.5924
   26CHL1   H2A 1898   5.469   4.195  10.073  0.2280  1.1258  1.1418
   26CHL1   H2B 1899   5.602   4.315  10.063 -0.3376  0.9810 -1.1960
   26CHL1   C20 1900   5.603   4.263   9.078  0.8525 -0.4385 -0.1139
   26CHL1   H20 1901   5.681   4.330   9.035 -0.3147 -0.4274 -2.2870
   26CHL1   C21 1902   5.480   4.356   9.116  0.0988 -0.4856 -0.1746
   26CHL1  H21A 1903   5.443   4.399   9.020  0.4649  0.1208 -0.0503
   26CHL1  H21B 1904   5.516   4.439   9.181 -0.8846 -0.1191 -0.0851
   26CHL1  H21C 1905   5.406   4.292   9.168  0.3022 -0.3363  0.3030
   26CHL1   C22 1906   5.559   4.166   8.956 -0.0283 -0.3991 -0.0167
   26CHL1  H22A 1907   5.654   4.118   8.924  0.2518 -0.0074  0.2176
   26CHL1  H22B 1908   5.493   4.086   8.996 -0.3274  0.1246  0.5566
   26CHL1   C23 1909   5.511   4.235   8.822 -0.4099 -0.1952  0.1703
   26CHL1  H23A 1910   5.419   4.295   8.835  0.8244  1.7550  0.0227
   26CHL1  H23B 1911   5.590   4.297   8.775 -0.9046 -0.1466 -0.5883
   26CHL1   C24 1912   5.478   4.118   8.723 -0.0851 -0.1942 -0.0439
   26CHL1  H24A 1913   5.577   4.072   8.703  0.0247 -0.9366  2.0949
   26CHL1  H24B 1914   5.407   4.037   8.749 -0.5216  0.5405  1.1055
   26CHL1   C25 1915   5.406   4.168   8.587  0.2345 -0.2829 -0.2043
   26CHL1   H25 1916   5.447   4.271   8.580 -3.0097  0.9373 -2.5294
   26CHL1   C26 1917   5.456   4.089   8.468  0.1882 -0.4574  0.6152
   26CHL1  H26A 1918   5.420   3.985   8.477 -0.2069 -0.4750 -1.1517
   26CHL1  H26B 1919   5.410   4.130   8.376 -1.0282 -0.1926  1.3266
   26CHL1  H26C 1920   5.565   4.102   8.447 -0.2450  0.0342 -1.3944
   26CHL1   C27 1921   5.253   4.161   8.595 -0.3573  0.5193  0.4983
   26CHL1  H27A 1922   5.230   4.235   8.675 -1.0274  0.9607 -0.0969
   26CHL1  H27B 1923   5.219   4.206   8.500  1.8802 -0.2323 -0.6997
   26CHL1  H27C 1924   5.215   4.057   8.607  1.0441 -0.0289  0.2609
   27CHL1    C3 1925   4.910   1.217  10.365 -0.4806 -0.3714  0.1930
   27CHL1    H3 1926   5.011   1.262  10.354 -1.8671  2.3276 -1.9692
   27CHL1    O3 1927   4.883   1.239  10.502 -0.6745 -0.1210  0.3289
   27CHL1   H3' 1928   4.800   1.191  10.515 -1.8795  2.5350  3.0487
   27CHL1    C4 1929   4.809   1.291  10.274 -0.5195 -0.0157  0.1942
   27CHL1   H4A 1930   4.704   1.262  10.298 -1.0053  1.5168  0.0060
   27CHL1   H4B 1931   4.808   1.395  10.313 -1.1287 -0.0983  0.4042
   27CHL1    C5 1932   4.831   1.264  10.128  0.2779  0.3980  0.0364
   27CHL1    C6 1933   4.858   1.360  10.044  0.3285  0.4836  0.3064
   27CHL1    H6 1934   4.873   1.463  10.079 -2.9538  1.5142 -1.0622
   27CHL1    C7 1935   4.873   1.333   9.898  0.3896  0.3592  0.1689
   27CHL1   H7A 1936   4.827   1.418   9.842 -0.7352  0.1710  0.8002
   27CHL1   H7B 1937   4.979   1.328   9.862  0.9300  2.5957  1.3478
   27CHL1    C8 1938   4.802   1.207   9.848 -0.7144 -0.4139 -0.0820
   27CHL1    H8 1939   4.693   1.226   9.857 -0.3357  1.8725  0.0324
   27CHL1   C14 1940   4.836   1.183   9.702 -0.1566  0.8316 -0.1255
   27CHL1   H14 1941   4.947   1.173   9.706 -0.1202  1.4821  0.6112
   27CHL1   C15 1942   4.825   1.294   9.598 -0.7060  0.1588 -0.2688
   27CHL1  H15A 1943   4.734   1.355   9.614  1.3638  2.9511  1.3346
   27CHL1  H15B 1944   4.908   1.368   9.603  0.3704 -1.0807  0.6384
   27CHL1   C16 1945   4.818   1.223   9.458  0.4716 -0.0615  0.4159
   27CHL1  H16A 1946   4.735   1.265   9.397 -1.6394 -2.1937  1.7155
   27CHL1  H16B 1947   4.911   1.233   9.399  0.7842  1.3397  1.1327
   27CHL1   C17 1948   4.807   1.070   9.493  0.3238 -0.1722 -1.0103
   27CHL1   H17 1949   4.913   1.039   9.492  0.2787 -0.3298 -0.9329
   27CHL1   C13 1950   4.772   1.060   9.648 -0.6717 -0.1132 -0.4866
   27CHL1   C18 1951   4.614   1.070   9.659 -0.5359  0.4987 -0.5099
   27CHL1  H18A 1952   4.578   1.152   9.595  2.6400  1.5521 -1.0522
   27CHL1  H18B 1953   4.569   0.980   9.612 -1.0311  0.5970 -0.2249
   27CHL1  H18C 1954   4.580   1.087   9.764  2.2911  0.8247  0.3933
   27CHL1   C12 1955   4.829   0.942   9.728 -0.5579 -0.0945  0.3003
   27CHL1  H12A 1956   4.788   0.845   9.694 -0.2500 -1.0722  2.5989
   27CHL1  H12B 1957   4.936   0.928   9.703 -0.5876  2.2836 -1.3553
   27CHL1   C11 1958   4.812   0.954   9.883 -1.1348 -0.5686  0.6232
   27CHL1  H11A 1959   4.704   0.934   9.894 -1.3209  0.4455  0.7141
   27CHL1  H11B 1960   4.863   0.871   9.935 -0.1772 -1.2221 -1.3255
   27CHL1    C9 1961   4.852   1.094   9.937 -0.4623  0.5238  0.2887
   27CHL1    H9 1962   4.962   1.105   9.934 -0.2030 -1.9400  0.0899
   27CHL1   C10 1963   4.821   1.116  10.095 -0.0106 -0.0978  0.4771
   27CHL1   C19 1964   4.677   1.068  10.114 -0.4241 -0.6265  0.0408
   27CHL1  H19A 1965   4.656   0.961  10.093  1.6578 -0.8814 -0.8809
   27CHL1  H19B 1966   4.648   1.086  10.220  1.8277 -4.2247  1.3658
   27CHL1  H19C 1967   4.602   1.131  10.061  1.0268  3.0406  2.0995
   27CHL1    C1 1968   4.929   1.039  10.184  0.1103 -0.0786  0.6173
   27CHL1   H1A 1969   4.911   0.933  10.157  0.0008 -0.8035  3.3542
   27CHL1   H1B 1970   5.029   1.068  10.145  0.5495 -2.2860  0.0364
   27CHL1    C2 1971   4.917   1.063  10.334 -0.0696 -0.1930  0.4421
   27CHL1   H2A 1972   5.003   1.010  10.380 -0.9455 -0.9147  1.2551
   27CHL1   H2B 1973   4.820   1.026  10.372 -1.3315  1.2518 -1.3166
   27CHL1   C20 1974   4.719   0.991   9.395  0.7264 -0.0512  0.2849
   27CHL1   H20 1975   4.616   1.030   9.390  0.5375 -0.4204  1.2137
   27CHL1   C21 1976   4.722   0.843   9.441  0.5825  0.0700  0.0427
   27CHL1  H21A 1977   4.664   0.830   9.534  0.3075  1.1086  0.0260
   27CHL1  H21B 1978   4.822   0.796   9.451 -1.5581 -4.4768  1.1220
   27CHL1  H21C 1979   4.667   0.786   9.363 -0.1639  1.7243 -0.6733
   27CHL1   C22 1980   4.791   0.994   9.250 -0.3328  0.2444  0.2326
   27CHL1  H22A 1981   4.804   1.102   9.227  0.4035 -0.2135 -1.6595
   27CHL1  H22B 1982   4.895   0.956   9.264  0.2164  1.0575 -1.4278
   27CHL1   C23 1983   4.724   0.919   9.137 -0.2603 -0.2778  0.9772
   27CHL1  H23A 1984   4.733   0.811   9.164  1.5005 -0.7052 -1.1521
   27CHL1  H23B 1985   4.617   0.949   9.132 -0.1117 -0.0354 -0.8906
   27CHL1   C24 1986   4.784   0.946   8.997 -0.0535 -0.1613 -0.0045
   27CHL1  H24A 1987   4.794   1.056   9.000 -2.3734  0.1068 -1.1538
   27CHL1  H24B 1988   4.879   0.889   9.005 -1.1570 -2.0985 -0.3774
   27CHL1   C25 1989   4.692   0.892   8.873 -0.5912 -0.1295 -0.4550
   27CHL1   H25 1990   4.600   0.954   8.864 -0.2577  0.3211 -0.7476
   27CHL1   C26 1991   4.773   0.911   8.744 -0.2725  0.2953  0.0757
   27CHL1  H26A 1992   4.803   1.017   8.728 -2.4893  1.5859  3.6463
   27CHL1  H26B 1993   4.844   0.826   8.737  0.2415  0.8194 -1.2684
   27CHL1  H26C 1994   4.710   0.896   8.654  0.2941 -2.0582  0.0305
   27CHL1   C27 1995   4.653   0.743   8.893  0.6911 -0.4160  0.2289
   27CHL1  H27A 1996   4.749   0.688   8.898  0.8272 -0.3945 -1.6211
   27CHL1  H27B 1997   4.589   0.744   8.984  0.7936  3.4445  0.3209
   27CHL1  H27C 1998   4.588   0.714   8.807 -1.9499 -0.4671  2.1905
   28CHL1    C3 1999   3.691   6.198   9.942 -0.3572 -0.4308 -0.2145
   28CHL1    H3 2000   3.644   6.293   9.910  0.9280 -0.0285 -0.9191
   28CHL1    O3 2001   3.699   6.187  10.085 -0.7149 -0.6663  0.3375
   28CHL1   H3' 2002   3.733   6.100  10.110 -2.2948 -1.3234  0.2117
   28CHL1    C4 2003   3.604   6.090   9.879  0.3557  0.6302 -0.3137
   28CHL1   H4A 2004   3.644   5.995   9.919 -1.3467  0.2435  0.5153
   28CHL1   H4B 2005   3.501   6.108   9.916 -1.1019 -1.5740 -3.1314
   28CHL1    C5 2006   3.616   6.075   9.727 -0.0466  0.1458 -0.3389
   28CHL1    C6 2007   3.499   6.085   9.649 -0.3791 -1.1934  0.3914
   28CHL1    H6 2008   3.405   6.116   9.698 -0.4392  0.6940 -0.8405
   28CHL1    C7 2009   3.501   6.091   9.493  0.4437  0.0400  0.3258
   28CHL1   H7A 2010   3.415   6.028   9.461 -0.4639  3.0784 -3.6096
   28CHL1   H7B 2011   3.487   6.198   9.464  2.9688 -0.1601 -1.7658
   28CHL1    C8 2012   3.634   6.033   9.436  0.3251  0.0589  0.0583
   28CHL1    H8 2013   3.622   5.925   9.457  2.6516 -0.2931 -0.3021
   28CHL1   C14 2014   3.638   6.050   9.286 -0.3879  0.1201 -0.3435
   28CHL1   H14 2015   3.635   6.160   9.268  1.0160  0.2673  0.2617
   28CHL1   C15 2016   3.526   5.986   9.206 -0.4901 -0.8469  0.0814
   28CHL1  H15A 2017   3.509   5.881   9.238 -1.5233 -0.9435 -0.7492
   28CHL1  H15B 2018   3.425   6.031   9.217 -0.7062 -1.6602  1.6591
   28CHL1   C16 2019   3.580   6.000   9.067 -1.0319 -0.4218  0.2926
   28CHL1  H16A 2020   3.537   5.916   9.008 -1.7619 -0.1395  0.4218
   28CHL1  H16B 2021   3.529   6.088   9.023  1.1207 -0.5016 -2.5009
   28CHL1   C17 2022   3.731   6.026   9.070 -0.5557 -0.3374  0.1881
   28CHL1   H17 2023   3.738   6.137   9.062 -1.7903 -0.4174 -2.4347
   28CHL1   C13 2024   3.765   6.004   9.221  0.6032 -0.5802 -0.7663
   28CHL1   C18 2025   3.784   5.852   9.244  0.3660 -0.8716  0.3147
   28CHL1  H18A 2026   3.696   5.803   9.195  0.6462 -0.5939 -0.4716
   28CHL1  H18B 2027   3.888   5.823   9.219  1.2421  2.5229 -0.2051
   28CHL1  H18C 2028   3.773   5.819   9.350 -3.3973 -1.7419 -0.2389
   28CHL1   C12 2029   3.882   6.086   9.286  0.2434 -0.1404 -0.0806
   28CHL1  H12A 2030   3.986   6.066   9.251  0.4481  0.9622 -0.1412
   28CHL1  H12B 2031   3.861   6.195   9.275 -0.9325 -0.3409  0.1714
   28CHL1   C11 2032   3.884   6.070   9.441  0.4824  1.2034  0.1202
   28CHL1  H11A 2033   3.918   5.965   9.451 -2.0657  0.1307 -1.9564
   28CHL1  H11B 2034   3.965   6.137   9.477  1.1130  0.6759 -0.3011
   28CHL1    C9 2035   3.752   6.098   9.514  0.5711 -0.2364  0.2108
   28CHL1    H9 2036   3.737   6.208   9.514 -2.2138 -0.5831 -1.0106
   28CHL1   C10 2037   3.757   6.066   9.665  0.7753  0.1686 -0.0803
   28CHL1   C19 2038   3.806   5.928   9.692 -0.7225 -0.3233  0.0689
   28CHL1  H19A 2039   3.758   5.858   9.621  1.6915 -0.8272 -1.1326
   28CHL1  H19B 2040   3.917   5.930   9.685 -0.6370 -1.0718  1.0321
   28CHL1  H19C 2041   3.779   5.878   9.788 -0.4672  2.1628  1.5008
   28CHL1    C1 2042   3.839   6.178   9.738 -0.6297  1.1183  0.4146
   28CHL1   H1A 2043   3.949   6.181   9.719 -0.6306  3.0284  0.5798
   28CHL1   H1B 2044   3.801   6.277   9.704  0.2942  1.5442  0.5767
   28CHL1    C2 2045   3.832   6.177   9.894  0.2957 -0.1676  0.0303
   28CHL1   H2A 2046   3.899   6.255   9.936  2.8027 -2.0173 -0.3645
   28CHL1   H2B 2047   3.873   6.082   9.935  1.4695  0.8047  1.1406
   28CHL1   C20 2048   3.806   5.959   8.963  0.0312  0.4836  0.4734
   28CHL1   H20 2049   3.797   5.849   8.976  0.1951  0.4275  0.1048
   28CHL1   C21 2050   3.959   5.992   8.966 -0.1439 -0.4698  0.3901
   28CHL1  H21A 2051   3.984   6.100   8.952  1.1988 -1.0256 -1.8170
   28CHL1  H21B 2052   4.009   5.939   8.882 -1.1461 -2.2119  0.8648
   28CHL1  H21C 2053   4.012   5.970   9.061 -2.6367  2.3676  2.5566
   28CHL1   C22 2054   3.739   5.980   8.822  0.2740  0.8804 -0.6078
   28CHL1  H22A 2055   3.632   6.008   8.813 -0.0626 -0.3529 -0.6186
   28CHL1  H22B 2056   3.798   6.060   8.773  1.0346 -0.1855 -1.4756
   28CHL1   C23 2057   3.731   5.859   8.727  0.1422  0.1097  0.1479
   28CHL1  H23A 2058   3.831   5.814   8.713 -0.2346 -0.3085 -1.2944
   28CHL1  H23B 2059   3.666   5.783   8.776  1.0343 -0.5386  0.3373
   28CHL1   C24 2060   3.684   5.895   8.582 -0.2143 -0.1884  0.6267
   28CHL1  H24A 2061   3.736   5.987   8.548 -2.5962  1.5098  1.4574
   28CHL1  H24B 2062   3.711   5.804   8.524 -1.8990  0.4063 -1.1817
   28CHL1   C25 2063   3.536   5.929   8.543  0.1343  0.2395  0.0544
   28CHL1   H25 2064   3.515   6.019   8.606  0.7810 -1.4117  2.7253
   28CHL1   C26 2065   3.527   5.971   8.388 -0.3279  0.4611 -0.3210
   28CHL1  H26A 2066   3.420   5.999   8.379 -0.9864 -1.0422  2.2873
   28CHL1  H26B 2067   3.596   6.057   8.375 -1.4858  1.3117 -0.9196
   28CHL1  H26C 2068   3.555   5.891   8.317  0.0604  1.2676 -1.0822
   28CHL1   C27 2069   3.443   5.807   8.584 -0.0922  0.3837  0.2386
   28CHL1  H27A 2070   3.419   5.803   8.692 -0.4934  0.3091  0.1473
   28CHL1  H27B 2071   3.351   5.837   8.530  1.5623 -0.7451 -3.3801
   28CHL1  H27C 2072   3.484   5.713   8.541 -1.0829  0.4058 -0.7806
   29CHL1    C3 2073   5.901   4.268   6.554 -0.5841 -0.4133 -0.0235
   29CHL1    H3 2074   5.928   4.376   6.543  0.6977 -0.5740  1.4080
   29CHL1    O3 2075   5.903   4.219   6.421 -0.1394 -0.3825 -0.0946
   29CHL1   H3' 2076   5.979   4.259   6.379 -2.9862  1.9566 -3.3505
   29CHL1    C4 2077   6.015   4.205   6.626  0.1839  0.9255 -0.6096
   29CHL1   H4A 2078   6.019   4.095   6.613  2.0775  0.9409 -0.3042
   29CHL1   H4B 2079   6.099   4.259   6.576 -0.6600  2.9590  0.0966
   29CHL1    C5 2080   6.021   4.229   6.776 -0.3588  0.2698  0.2939
   29CHL1    C6 2081   6.129   4.268   6.845  0.2897 -0.2435  0.4345
   29CHL1    H6 2082   6.216   4.298   6.785 -0.0666 -0.1710 -0.0557
   29CHL1    C7 2083   6.143   4.294   6.987  0.5479  0.2335 -0.6642
   29CHL1   H7A 2084   6.224   4.232   7.030  0.6517 -1.2550 -2.9452
   29CHL1   H7B 2085   6.162   4.402   7.008 -0.9465  0.5747 -0.9777
   29CHL1    C8 2086   6.013   4.260   7.070  0.1628 -0.7323 -0.1396
   29CHL1    H8 2087   6.006   4.152   7.091 -0.2456 -0.6351  0.2470
   29CHL1   C14 2088   6.008   4.328   7.200  0.4176  0.1618 -0.5715
   29CHL1   H14 2089   5.993   4.433   7.167 -0.1625 -0.0249 -0.9250
   29CHL1   C15 2090   6.129   4.319   7.301 -0.1391 -0.5083  0.0915
   29CHL1  H15A 2091   6.172   4.217   7.300  1.5967  0.2006  0.2204
   29CHL1  H15B 2092   6.207   4.388   7.263  0.0480 -1.4809 -1.3078
   29CHL1   C16 2093   6.054   4.354   7.438 -0.5134 -0.2030 -0.8343
   29CHL1  H16A 2094   6.057   4.258   7.494 -0.1989  1.4588  2.1486
   29CHL1  H16B 2095   6.106   4.439   7.487  0.4095 -0.8529 -0.6609
   29CHL1   C17 2096   5.909   4.390   7.401 -0.4404  0.3351  0.3181
   29CHL1   H17 2097   5.907   4.493   7.358 -1.9945 -0.2763 -1.1514
   29CHL1   C13 2098   5.889   4.292   7.285  0.5252 -0.1053 -0.2689
   29CHL1   C18 2099   5.875   4.143   7.327  0.3897  0.4657 -0.1463
   29CHL1  H18A 2100   5.781   4.121   7.381  0.7677 -0.3327  0.1957
   29CHL1  H18B 2101   5.872   4.077   7.238  0.1730  0.0301  0.1823
   29CHL1  H18C 2102   5.954   4.107   7.397  0.3157 -0.3868 -0.4946
   29CHL1   C12 2103   5.764   4.332   7.208  0.2412  0.1631  0.3711
   29CHL1  H12A 2104   5.670   4.306   7.262 -2.0524  3.1759 -1.9891
   29CHL1  H12B 2105   5.775   4.441   7.193  0.3686 -0.1596 -2.0710
   29CHL1   C11 2106   5.753   4.275   7.066  0.3981  0.3224 -0.9311
   29CHL1  H11A 2107   5.734   4.166   7.068  0.7947  0.2599  1.2204
   29CHL1  H11B 2108   5.673   4.336   7.019 -0.3497 -0.5727 -0.8214
   29CHL1    C9 2109   5.880   4.286   6.986 -0.0611 -0.2449  0.4412
   29CHL1    H9 2110   5.878   4.394   6.959 -1.3910 -0.5750 -0.8292
   29CHL1   C10 2111   5.880   4.216   6.845 -0.1615  1.1022  0.3160
   29CHL1   C19 2112   5.860   4.063   6.854 -0.0690  0.6793  0.4245
   29CHL1  H19A 2113   5.887   3.992   6.772 -1.1115  0.9010 -0.1133
   29CHL1  H19B 2114   5.925   4.030   6.938  0.1145 -1.7091 -0.5992
   29CHL1  H19C 2115   5.760   4.028   6.886 -0.1593  1.8291  1.4389
   29CHL1    C1 2116   5.764   4.275   6.760  0.2775 -0.0499 -0.3648
   29CHL1   H1A 2117   5.664   4.240   6.793  1.1178 -1.3214  0.8910
   29CHL1   H1B 2118   5.769   4.386   6.766  0.2916 -0.0819  0.3069
   29CHL1    C2 2119   5.768   4.236   6.612  0.2039 -0.1268 -0.1623
   29CHL1   H2A 2120   5.688   4.291   6.558 -3.5071 -3.8574  1.2993
   29CHL1   H2B 2121   5.756   4.126   6.602 -0.4074  0.1903 -3.5184
   29CHL1   C20 2122   5.799   4.386   7.511 -0.4370 -0.1336  0.5453
   29CHL1   H20 2123   5.762   4.281   7.508  0.5886 -0.5100  0.7909
   29CHL1   C21 2124   5.692   4.485   7.487  0.1368 -0.1995 -0.4461
   29CHL1  H21A 2125   5.655   4.474   7.383  1.8194  0.6585 -1.1357
   29CHL1  H21B 2126   5.734   4.587   7.495 -2.6289  0.9341  0.1615
   29CHL1  H21C 2127   5.604   4.477   7.555  2.7588  0.4972  3.1427
   29CHL1   C22 2128   5.853   4.386   7.665 -0.1987 -0.3439 -0.4820
   29CHL1  H22A 2129   5.949   4.331   7.678  0.5289  1.6653  3.3198
   29CHL1  H22B 2130   5.877   4.490   7.695 -1.1810 -1.0182  2.8143
   29CHL1   C23 2131   5.734   4.330   7.749  0.2460 -0.0838 -0.0298
   29CHL1  H23A 2132   5.633   4.364   7.720  0.6800  0.8500 -0.4608
   29CHL1  H23B 2133   5.731   4.219   7.743  1.2630 -0.0233 -2.2728
   29CHL1   C24 2134   5.745   4.379   7.899  0.1749  0.9469  0.3558
   29CHL1  H24A 2135   5.848   4.351   7.933  0.8407  1.0062 -1.5716
   29CHL1  H24B 2136   5.744   4.490   7.892  0.8882  0.8907 -0.8387
   29CHL1   C25 2137   5.639   4.347   8.007 -0.3629  0.5167 -0.5292
   29CHL1   H25 2138   5.657   4.415   8.093  0.9704 -0.0782 -0.3256
   29CHL1   C26 2139   5.494   4.362   7.962  0.1769 -0.6892  0.3386
   29CHL1  H26A 2140   5.477   4.465   7.923  0.0160 -1.2873 -1.2270
   29CHL1  H26B 2141   5.476   4.299   7.872  2.8149  0.8032 -1.2949
   29CHL1  H26C 2142   5.411   4.341   8.033 -0.6934  0.5818 -0.2789
   29CHL1   C27 2143   5.657   4.195   8.049  0.5310  0.2039  0.5091
   29CHL1  H27A 2144   5.572   4.158   8.109  1.2648 -0.7542  0.9649
   29CHL1  H27B 2145   5.660   4.140   7.953 -0.8954  1.0465 -0.0266
   29CHL1  H27C 2146   5.749   4.182   8.110  0.3367  6.2449  2.3900
   30CHL1    C3 2147   4.191   3.262   7.335 -0.2899  0.0907  0.3370
   30CHL1    H3 2148   4.284   3.313   7.302 -0.3420  1.4973  2.2651
   30CHL1    O3 2149   4.094   3.256   7.224  0.1274 -0.0500 -0.2916
   30CHL1   H3' 2150   4.099   3.340   7.178 -0.6598 -0.3002 -0.8343
   30CHL1    C4 2151   4.222   3.121   7.382  0.1847 -0.7876  0.4134
   30CHL1   H4A 2152   4.126   3.065   7.379 -0.4452  0.2699  0.6203
   30CHL1   H4B 2153   4.285   3.083   7.299  2.1545  2.1928  0.4561
   30CHL1    C5 2154   4.294   3.109   7.513 -0.0857  0.5346 -0.0925
   30CHL1    C6 2155   4.405   3.048   7.526 -0.3293 -0.3170  0.3657
   30CHL1    H6 2156   4.445   2.994   7.440 -1.6448 -1.5721  0.5209
   30CHL1    C7 2157   4.465   3.030   7.661 -0.5056 -0.2327 -0.7237
   30CHL1   H7A 2158   4.514   2.931   7.671 -4.0738 -1.9018  1.2459
   30CHL1   H7B 2159   4.540   3.111   7.677 -0.5835  0.0575 -1.8434
   30CHL1    C8 2160   4.373   3.057   7.789 -0.6831 -0.2972  0.9576
   30CHL1    H8 2161   4.299   2.974   7.801 -0.2948 -0.9844 -1.2658
   30CHL1   C14 2162   4.454   3.078   7.913 -0.4250 -0.3681  0.2680
   30CHL1   H14 2163   4.517   3.166   7.891 -0.4953 -0.5525 -0.7059
   30CHL1   C15 2164   4.563   2.973   7.953 -0.6086 -0.6062 -0.3103
   30CHL1  H15A 2165   4.534   2.869   7.925 -0.1443 -0.8540  0.1206
   30CHL1  H15B 2166   4.660   3.008   7.912 -0.1241  0.2342  1.5400
   30CHL1   C16 2167   4.577   2.998   8.102 -0.7083 -0.2544  0.9473
   30CHL1  H16A 2168   4.545   2.911   8.163 -0.1622  0.3367  2.1102
   30CHL1  H16B 2169   4.680   3.030   8.131  0.0184 -0.3820 -1.4006
   30CHL1   C17 2170   4.482   3.108   8.144  0.6086  0.5989  0.4991
   30CHL1   H17 2171   4.535   3.201   8.115  1.6310 -0.5753 -1.5774
   30CHL1   C13 2172   4.366   3.107   8.034 -0.1154  0.3741  0.6004
   30CHL1   C18 2173   4.271   2.984   8.048 -0.3459  0.3702  0.4995
   30CHL1  H18A 2174   4.213   2.987   8.143  1.5986  0.0154  1.7420
   30CHL1  H18B 2175   4.202   2.985   7.962  1.4415  0.4575 -0.9721
   30CHL1  H18C 2176   4.329   2.889   8.056 -0.0969  0.5257  0.5608
   30CHL1   C12 2177   4.287   3.237   8.015  0.3946 -0.2104  0.3475
   30CHL1  H12A 2178   4.228   3.252   8.108  1.1966 -1.6948  1.0987
   30CHL1  H12B 2179   4.371   3.310   8.017  0.1658  0.0434  0.7750
   30CHL1   C11 2180   4.208   3.239   7.885 -0.1345 -0.1765 -0.0933
   30CHL1  H11A 2181   4.121   3.170   7.894 -0.9494  0.8141 -0.2084
   30CHL1  H11B 2182   4.164   3.341   7.881 -0.1633 -0.1652  0.4815
   30CHL1    C9 2183   4.296   3.187   7.759  0.1203  0.0327  0.0283
   30CHL1    H9 2184   4.366   3.273   7.748 -1.5563  1.2908 -1.0468
   30CHL1   C10 2185   4.216   3.183   7.625 -0.5605  0.0742 -0.0710
   30CHL1   C19 2186   4.078   3.111   7.657  0.2942  0.2556  1.1953
   30CHL1  H19A 2187   4.098   3.016   7.711  1.7841 -1.1430 -1.6943
   30CHL1  H19B 2188   4.021   3.182   7.721  1.6975  0.5308  2.1793
   30CHL1  H19C 2189   4.021   3.086   7.565 -0.4192  2.4510  1.0037
   30CHL1    C1 2190   4.191   3.330   7.582 -0.1145 -0.3234  0.2061
   30CHL1   H1A 2191   4.128   3.377   7.661 -3.3513 -1.4089 -1.6427
   30CHL1   H1B 2192   4.285   3.389   7.576  0.5849 -1.4376  0.0444
   30CHL1    C2 2193   4.115   3.342   7.445  0.0077  0.4953 -0.5018
   30CHL1   H2A 2194   4.107   3.447   7.409 -1.2554  1.2316  1.8151
   30CHL1   H2B 2195   4.012   3.300   7.454  0.9443 -1.6243  0.7423
   30CHL1   C20 2196   4.450   3.106   8.298 -0.3711  0.2329 -0.3991
   30CHL1   H20 2197   4.370   3.031   8.313 -0.6662  0.2029 -1.9638
   30CHL1   C21 2198   4.384   3.242   8.335 -1.0797  0.4914 -0.5106
   30CHL1  H21A 2199   4.297   3.228   8.403 -0.0328  1.4138  1.0512
   30CHL1  H21B 2200   4.363   3.290   8.237 -0.2965 -1.5512 -1.7044
   30CHL1  H21C 2201   4.457   3.313   8.379 -1.9776  2.4293 -2.0817
   30CHL1   C22 2202   4.572   3.066   8.388  0.3297  0.6292  0.4532
   30CHL1  H22A 2203   4.610   2.964   8.363 -1.2540  0.3857 -1.0412
   30CHL1  H22B 2204   4.651   3.138   8.360 -1.0520  1.9926  0.0069
   30CHL1   C23 2205   4.548   3.080   8.537  0.4958 -0.3042 -0.1582
   30CHL1  H23A 2206   4.524   3.186   8.561  1.9891 -0.7216  3.4695
   30CHL1  H23B 2207   4.460   3.025   8.576 -0.0881  0.3895 -0.4764
   30CHL1   C24 2208   4.673   3.047   8.623  0.1930  1.2220 -0.1345
   30CHL1  H24A 2209   4.683   2.937   8.629 -0.5436  1.1605 -0.0090
   30CHL1  H24B 2210   4.758   3.097   8.571 -1.5789  3.6316 -0.8364
   30CHL1   C25 2211   4.658   3.091   8.766 -0.3739  0.2027  0.0339
   30CHL1   H25 2212   4.627   3.197   8.775  1.3958  0.8257 -1.0701
   30CHL1   C26 2213   4.570   3.000   8.848  0.3095 -0.5607  0.3306
   30CHL1  H26A 2214   4.462   3.000   8.821  0.5726  2.0359 -0.8814
   30CHL1  H26B 2215   4.609   2.896   8.853  1.8218 -0.0683 -0.9109
   30CHL1  H26C 2216   4.562   3.047   8.949 -0.5023  0.2388 -0.0951
   30CHL1   C27 2217   4.796   3.073   8.842 -0.9001  0.1868  0.4526
   30CHL1  H27A 2218   4.828   2.969   8.816 -0.5731  0.5018 -0.4458
   30CHL1  H27B 2219   4.870   3.144   8.800 -1.4358  0.3764 -0.1869
   30CHL1  H27C 2220   4.785   3.097   8.949 -1.3462  1.4433  0.1286
   31CHL1    C3 2221   3.685   4.707   6.698 -0.5185  0.4234  0.5203
   31CHL1    H3 2222   3.795   4.708   6.709 -0.2654  1.3255 -1.7837
   31CHL1    O3 2223   3.643   4.700   6.564 -0.2867  0.1462  0.3829
   31CHL1   H3' 2224   3.649   4.606   6.548 -0.3999  0.1737  0.1790
   31CHL1    C4 2225   3.619   4.570   6.763 -0.4681 -0.7146  0.0631
   31CHL1   H4A 2226   3.510   4.574   6.744 -0.5988 -0.0504  0.8975
   31CHL1   H4B 2227   3.663   4.481   6.713  1.7788  0.5790 -0.3328
   31CHL1    C5 2228   3.635   4.568   6.912 -0.0012  0.7947 -0.0001
   31CHL1    C6 2229   3.699   4.465   6.968  0.6676 -0.5583  0.2817
   31CHL1    H6 2230   3.731   4.382   6.903  2.8034  1.3401 -1.1707
   31CHL1    C7 2231   3.713   4.444   7.120  0.8955  0.4062 -0.4103
   31CHL1   H7A 2232   3.685   4.343   7.157 -1.0490  1.6242  1.5492
   31CHL1   H7B 2233   3.822   4.445   7.138  0.3611  2.1179  3.0394
   31CHL1    C8 2234   3.626   4.544   7.196  0.4857  0.2431 -0.0918
   31CHL1    H8 2235   3.521   4.511   7.187  0.5489 -0.1489  0.5671
   31CHL1   C14 2236   3.668   4.535   7.339  0.2619  0.0449 -0.4623
   31CHL1   H14 2237   3.777   4.556   7.340  0.4846 -1.0138 -1.0856
   31CHL1   C15 2238   3.651   4.406   7.413 -0.0144 -0.1259  0.2057
   31CHL1  H15A 2239   3.550   4.366   7.388  0.0854  0.5672 -1.3755
   31CHL1  H15B 2240   3.729   4.330   7.392  1.6163  1.7061 -0.5184
   31CHL1   C16 2241   3.661   4.441   7.561  0.1041 -0.3566 -0.7329
   31CHL1  H16A 2242   3.570   4.405   7.613  0.2144  0.1927 -0.1593
   31CHL1  H16B 2243   3.759   4.408   7.600  0.4891  1.3817 -0.2205
   31CHL1   C17 2244   3.665   4.602   7.574  0.2373 -0.1757 -0.6385
   31CHL1   H17 2245   3.774   4.617   7.585  0.5013 -2.0784 -0.4938
   31CHL1   C13 2246   3.612   4.639   7.435 -0.0631  0.3632  0.5017
   31CHL1   C18 2247   3.452   4.639   7.442 -0.2195  0.5318  0.3575
   31CHL1  H18A 2248   3.407   4.711   7.513 -0.2844  0.4580  0.3894
   31CHL1  H18B 2249   3.406   4.653   7.341 -1.0828  0.6843  0.7712
   31CHL1  H18C 2250   3.425   4.539   7.481  1.2497  0.0469  0.1832
   31CHL1   C12 2251   3.666   4.771   7.374  0.4000 -0.5476 -0.0459
   31CHL1  H12A 2252   3.630   4.853   7.441  2.0607  0.0583  0.1208
   31CHL1  H12B 2253   3.776   4.782   7.367  0.4371  0.8312  2.1712
   31CHL1   C11 2254   3.604   4.799   7.232 -0.1841 -0.6088  0.3534
   31CHL1  H11A 2255   3.493   4.809   7.234 -0.2753 -1.8275  1.7016
   31CHL1  H11B 2256   3.655   4.890   7.194 -1.6159  0.5426  1.1199
   31CHL1    C9 2257   3.644   4.686   7.136 -0.2454  0.1682 -0.1318
   31CHL1    H9 2258   3.754   4.698   7.136 -0.3746  1.5471  0.6016
   31CHL1   C10 2259   3.591   4.697   6.990 -0.4179 -0.4348  0.3365
   31CHL1   C19 2260   3.437   4.692   6.995 -0.5709 -0.0137 -0.1558
   31CHL1  H19A 2261   3.408   4.600   7.050 -1.8481 -0.1830 -1.0888
   31CHL1  H19B 2262   3.403   4.783   7.049 -0.1944  0.1759 -0.2386
   31CHL1  H19C 2263   3.390   4.699   6.894 -1.1385 -0.1866  0.0926
   31CHL1    C1 2264   3.634   4.833   6.919 -0.0993  0.2277 -0.2162
   31CHL1   H1A 2265   3.584   4.914   6.976 -1.7421  0.3473 -1.8040
   31CHL1   H1B 2266   3.742   4.853   6.931 -0.3721  1.8979 -0.4783
   31CHL1    C2 2267   3.627   4.832   6.762  0.0207  0.5067  0.2320
   31CHL1   H2A 2268   3.672   4.923   6.718  2.9262 -0.6042  0.7812
   31CHL1   H2B 2269   3.522   4.841   6.728  0.4397  0.6484 -1.0534
   31CHL1   C20 2270   3.605   4.670   7.699  0.5897  0.1594 -0.7313
   31CHL1   H20 2271   3.498   4.645   7.715  0.5664  0.5097 -0.3375
   31CHL1   C21 2272   3.621   4.824   7.700 -0.5760 -1.0138 -0.0460
   31CHL1  H21A 2273   3.545   4.853   7.624  0.7303  2.0714 -0.2603
   31CHL1  H21B 2274   3.724   4.856   7.671 -0.8555 -0.1188 -0.0603
   31CHL1  H21C 2275   3.595   4.855   7.803  0.4017  0.6502 -0.2760
   31CHL1   C22 2276   3.682   4.622   7.827 -0.1923  0.1212  0.1520
   31CHL1  H22A 2277   3.708   4.515   7.813  0.1648 -0.0549  2.0527
   31CHL1  H22B 2278   3.774   4.684   7.832 -0.2464  0.2783 -0.6698
   31CHL1   C23 2279   3.586   4.640   7.954 -0.0082 -0.9936 -0.2553
   31CHL1  H23A 2280   3.560   4.747   7.964 -0.6636 -0.9780 -1.9160
   31CHL1  H23B 2281   3.482   4.604   7.936  0.1329 -0.6427 -1.8399
   31CHL1   C24 2282   3.651   4.590   8.081 -0.5166 -0.6642 -0.1234
   31CHL1  H24A 2283   3.742   4.653   8.085 -1.7035  1.0191  0.9662
   31CHL1  H24B 2284   3.601   4.631   8.172 -1.3357  1.8730 -1.6719
   31CHL1   C25 2285   3.671   4.444   8.091  0.5749 -0.5745 -1.1256
   31CHL1   H25 2286   3.719   4.408   7.997  1.6203 -3.3606  0.4200
   31CHL1   C26 2287   3.775   4.407   8.202 -0.2021 -0.1182  0.4749
   31CHL1  H26A 2288   3.799   4.299   8.194 -0.5936 -0.0771 -1.4083
   31CHL1  H26B 2289   3.869   4.464   8.188  1.8219 -2.4999  3.6553
   31CHL1  H26C 2290   3.728   4.435   8.299  0.1491  1.1038  0.3072
   31CHL1   C27 2291   3.548   4.355   8.104 -0.0974 -0.4460  0.7341
   31CHL1  H27A 2292   3.589   4.256   8.079 -0.5217 -1.1049  2.6015
   31CHL1  H27B 2293   3.461   4.383   8.040  0.3167 -0.2362  0.2664
   31CHL1  H27C 2294   3.496   4.353   8.203  0.3791  0.4712  1.0139
   32CHL1    C3 2295   4.616   3.237   7.045  0.1294 -0.3639 -0.6966
   32CHL1    H3 2296   4.512   3.198   7.050 -0.0646  0.1918 -0.2799
   32CHL1    O3 2297   4.634   3.251   6.906 -0.0094  0.1121 -0.2050
   32CHL1   H3' 2298   4.713   3.303   6.892 -0.7766  1.1335 -0.7559
   32CHL1    C4 2299   4.626   3.379   7.112 -0.5379 -0.1413  0.0729
   32CHL1   H4A 2300   4.709   3.434   7.063 -1.4322 -0.8677 -2.3236
   32CHL1   H4B 2301   4.540   3.432   7.066 -2.0271 -2.1442  0.4458
   32CHL1    C5 2302   4.632   3.390   7.262 -0.5266  0.3675 -0.5227
   32CHL1    C6 2303   4.548   3.461   7.341  0.0418 -0.0683  0.0341
   32CHL1    H6 2304   4.467   3.527   7.305 -0.4793 -0.0736  1.1626
   32CHL1    C7 2305   4.566   3.486   7.485  0.0972 -0.4934  0.7464
   32CHL1   H7A 2306   4.582   3.594   7.499  1.5478 -0.8189  1.6852
   32CHL1   H7B 2307   4.478   3.470   7.552 -0.8700  1.0869 -0.1281
   32CHL1    C8 2308   4.701   3.426   7.542  0.0602 -0.1266  0.1491
   32CHL1    H8 2309   4.782   3.496   7.512  1.7419 -3.0186 -2.3231
   32CHL1   C14 2310   4.702   3.415   7.688 -0.3382 -0.0067 -0.4418
   32CHL1   H14 2311   4.624   3.339   7.710 -1.4741  1.0439 -0.7763
   32CHL1   C15 2312   4.663   3.537   7.778 -0.0736 -1.1784 -0.1097
   32CHL1  H15A 2313   4.729   3.616   7.736  0.5720 -2.2521 -1.1223
   32CHL1  H15B 2314   4.556   3.565   7.779  0.2501  0.1192  2.7370
   32CHL1   C16 2315   4.693   3.489   7.920 -0.8417 -1.0035  0.4656
   32CHL1  H16A 2316   4.755   3.567   7.968  1.9655 -0.6536 -3.4902
   32CHL1  H16B 2317   4.600   3.460   7.975 -4.0576  0.6223 -3.8880
   32CHL1   C17 2318   4.783   3.360   7.903 -0.1814 -0.4576 -0.7310
   32CHL1   H17 2319   4.717   3.272   7.915  0.7495 -1.0852 -0.1718
   32CHL1   C13 2320   4.826   3.358   7.753  0.9614 -0.8360  0.0469
   32CHL1   C18 2321   4.947   3.443   7.727  0.2241 -0.2148 -0.9563
   32CHL1  H18A 2322   4.932   3.541   7.777 -1.4053 -2.1255  2.4709
   32CHL1  H18B 2323   5.027   3.393   7.785 -0.7759 -0.6925  0.0114
   32CHL1  H18C 2324   4.973   3.448   7.619 -2.4677  1.8424 -1.5594
   32CHL1   C12 2325   4.837   3.216   7.695  0.4318  0.5809  0.5454
   32CHL1  H12A 2326   4.933   3.173   7.729  1.1148 -2.3152 -4.5191
   32CHL1  H12B 2327   4.752   3.147   7.719 -0.1659  0.2599 -2.2652
   32CHL1   C11 2328   4.846   3.220   7.541  0.1187 -0.0396 -0.5417
   32CHL1  H11A 2329   4.946   3.260   7.516  0.5084 -2.5218 -3.3275
   32CHL1  H11B 2330   4.858   3.121   7.491  0.2182 -0.0498 -0.4973
   32CHL1    C9 2331   4.732   3.292   7.475  0.5615  0.0067  0.0102
   32CHL1    H9 2332   4.642   3.228   7.491  1.3759 -1.4021 -0.9353
   32CHL1   C10 2333   4.743   3.299   7.318  0.0227 -0.4628  0.6008
   32CHL1   C19 2334   4.885   3.348   7.281  0.2780 -0.2991  0.0994
   32CHL1  H19A 2335   4.963   3.270   7.296  0.8415 -0.3327 -2.8549
   32CHL1  H19B 2336   4.885   3.381   7.175 -0.7363 -1.6167 -0.3316
   32CHL1  H19C 2337   4.891   3.440   7.343 -5.0968  0.0312  0.3808
   32CHL1    C1 2338   4.717   3.157   7.260 -0.4211  0.0256  0.2082
   32CHL1   H1A 2339   4.782   3.074   7.295  1.1038 -0.3138 -3.1774
   32CHL1   H1B 2340   4.615   3.129   7.294  0.9774 -0.7677  3.9154
   32CHL1    C2 2341   4.721   3.145   7.100 -0.2815  0.2598  0.3427
   32CHL1   H2A 2342   4.704   3.041   7.063  1.1515  0.3357 -0.5712
   32CHL1   H2B 2343   4.822   3.185   7.076 -1.1867  0.9573 -2.4883
   32CHL1   C20 2344   4.889   3.345   8.019 -0.6856 -0.0526 -0.7931
   32CHL1   H20 2345   4.965   3.424   8.003  1.5949 -2.1008 -0.4722
   32CHL1   C21 2346   4.962   3.210   8.018 -0.2772  0.1531 -0.3590
   32CHL1  H21A 2347   4.887   3.128   8.007 -1.8380  1.3426  1.1082
   32CHL1  H21B 2348   5.020   3.206   8.113  1.7938  1.6290 -1.5276
   32CHL1  H21C 2349   5.037   3.213   7.936  0.1540 -0.3568  0.0156
   32CHL1   C22 2350   4.827   3.374   8.159  0.7385 -0.2842 -0.4779
   32CHL1  H22A 2351   4.775   3.472   8.166 -1.5170 -1.5104  0.1951
   32CHL1  H22B 2352   4.760   3.291   8.190  1.7983 -0.2435  2.0275
   32CHL1   C23 2353   4.930   3.375   8.270 -0.0153 -0.1077 -1.1237
   32CHL1  H23A 2354   4.951   3.270   8.297 -0.2573 -0.2578 -1.5097
   32CHL1  H23B 2355   5.019   3.434   8.238 -1.8765  1.4316 -3.6415
   32CHL1   C24 2356   4.871   3.431   8.406 -0.2699  0.7323 -0.4915
   32CHL1  H24A 2357   4.839   3.537   8.403 -2.8503  0.0541  1.3010
   32CHL1  H24B 2358   4.780   3.371   8.428 -0.6433  1.2771 -0.5720
   32CHL1   C25 2359   4.963   3.394   8.531  0.8571  0.9920  0.0996
   32CHL1   H25 2360   4.992   3.288   8.514  0.3131  1.0824 -1.5441
   32CHL1   C26 2361   5.097   3.475   8.510 -0.1651 -0.1096  0.2780
   32CHL1  H26A 2362   5.162   3.433   8.430  0.1068  3.1471 -1.2710
   32CHL1  H26B 2363   5.079   3.583   8.495  0.5032 -0.2739 -1.9576
   32CHL1  H26C 2364   5.171   3.460   8.591  2.0679 -0.4950 -1.7598
   32CHL1   C27 2365   4.902   3.427   8.661  0.7871 -0.5527  0.3278
   32CHL1  H27A 2366   4.881   3.536   8.670  2.0600 -0.3071  0.4301
   32CHL1  H27B 2367   4.807   3.370   8.672 -0.1906  1.3261  2.0972
   32CHL1  H27C 2368   4.954   3.395   8.754  0.5117 -2.6857 -0.2445
   33CHL1    C3 2369   5.507   2.766   6.997 -0.5274  0.5952 -0.3006
   33CHL1    H3 2370   5.412   2.823   7.004 -1.0393 -0.4048  1.0247
   33CHL1    O3 2371   5.546   2.767   6.859  0.5448  0.1559 -0.3668
   33CHL1   H3' 2372   5.477   2.715   6.816  0.6975 -1.0282  0.7623
   33CHL1    C4 2373   5.613   2.831   7.089  0.4565 -0.5674 -0.2429
   33CHL1   H4A 2374   5.705   2.773   7.068 -0.6233 -2.3361 -0.1067
   33CHL1   H4B 2375   5.624   2.935   7.049 -1.4676  0.2948  1.4026
   33CHL1    C5 2376   5.580   2.815   7.232  0.9073 -0.2157 -0.0711
   33CHL1    C6 2377   5.566   2.929   7.305 -0.2676 -0.1997  0.0229
   33CHL1    H6 2378   5.584   3.027   7.261  1.6854  0.1235  1.4638
   33CHL1    C7 2379   5.534   2.926   7.454 -0.3442  0.3225  0.0860
   33CHL1   H7A 2380   5.598   3.001   7.504 -1.0810  0.3232  1.0302
   33CHL1   H7B 2381   5.428   2.953   7.471 -0.3632  0.0896  0.3305
   33CHL1    C8 2382   5.567   2.784   7.514  0.8537  0.2408 -0.2225
   33CHL1    H8 2383   5.678   2.775   7.518  0.9269  1.7271  2.3828
   33CHL1   C14 2384   5.525   2.781   7.663  0.4302 -1.1105 -0.3463
   33CHL1   H14 2385   5.415   2.793   7.652  0.6240 -0.9533 -2.3884
   33CHL1   C15 2386   5.578   2.891   7.755  0.9769  0.2370 -0.7383
   33CHL1  H15A 2387   5.687   2.906   7.743  1.3753 -1.7025  0.2135
   33CHL1  H15B 2388   5.517   2.984   7.751 -1.5727 -1.3738 -0.3858
   33CHL1   C16 2389   5.545   2.834   7.891 -0.1701  0.6060 -0.8065
   33CHL1  H16A 2390   5.635   2.838   7.955 -2.1941  1.2978  2.1188
   33CHL1  H16B 2391   5.475   2.907   7.937  0.4407  1.4643 -1.2275
   33CHL1   C17 2392   5.485   2.686   7.876  0.2203  0.8255  0.7722
   33CHL1   H17 2393   5.376   2.705   7.869 -0.6325 -3.4109  1.1332
   33CHL1   C13 2394   5.543   2.648   7.734 -0.1453  0.2307 -0.3598
   33CHL1   C18 2395   5.693   2.611   7.758 -0.4995  0.5194 -1.0981
   33CHL1  H18A 2396   5.703   2.507   7.794 -1.1263  0.6518 -0.5255
   33CHL1  H18B 2397   5.752   2.615   7.664  0.1769 -2.6741 -0.8421
   33CHL1  H18C 2398   5.734   2.676   7.839  0.6874  0.0536 -1.3162
   33CHL1   C12 2399   5.466   2.543   7.656  0.0527 -0.2438  0.4564
   33CHL1  H12A 2400   5.493   2.444   7.698  0.1751 -0.7055 -0.6984
   33CHL1  H12B 2401   5.356   2.550   7.672 -0.2696  1.6598 -2.2535
   33CHL1   C11 2402   5.498   2.532   7.511 -0.3289 -0.9317  0.0426
   33CHL1  H11A 2403   5.599   2.489   7.498  0.8357  1.8856 -0.4585
   33CHL1  H11B 2404   5.433   2.458   7.459  0.2060 -2.1573  1.1056
   33CHL1    C9 2405   5.501   2.672   7.432  0.3758  0.9129  0.2044
   33CHL1    H9 2406   5.393   2.699   7.434  0.4498  1.2021  0.2446
   33CHL1   C10 2407   5.548   2.667   7.285 -0.5109 -0.2786 -0.3810
   33CHL1   C19 2408   5.697   2.610   7.279 -0.6609  0.3438  0.1545
   33CHL1  H19A 2409   5.701   2.502   7.308  2.4371 -0.2975 -2.4425
   33CHL1  H19B 2410   5.742   2.615   7.178 -2.4376 -1.7307 -0.7801
   33CHL1  H19C 2411   5.766   2.673   7.338 -2.4540  1.2818  1.2945
   33CHL1    C1 2412   5.452   2.594   7.186 -0.1859 -0.2621 -0.9639
   33CHL1   H1A 2413   5.447   2.487   7.214  2.6872  0.0776  1.0858
   33CHL1   H1B 2414   5.357   2.650   7.202  0.5500  0.7799 -0.1921
   33CHL1    C2 2415   5.491   2.620   7.042 -0.4668 -0.6375  0.4280
   33CHL1   H2A 2416   5.409   2.566   6.991 -2.0560  0.7498  1.4446
   33CHL1   H2B 2417   5.579   2.560   7.010 -1.3743 -0.8099 -1.8184
   33CHL1   C20 2418   5.511   2.603   7.999  0.0354 -0.4287 -0.1799
   33CHL1   H20 2419   5.613   2.558   8.003 -0.3034 -1.0953  1.9301
   33CHL1   C21 2420   5.437   2.466   7.980  0.0688 -0.3409  0.0339
   33CHL1  H21A 2421   5.427   2.397   8.067  2.1892 -0.7279 -0.0092
   33CHL1  H21B 2422   5.486   2.403   7.903  1.3973 -2.1037  2.2353
   33CHL1  H21C 2423   5.334   2.492   7.950 -0.8844 -0.0924  3.2696
   33CHL1   C22 2424   5.494   2.679   8.140  0.3048  0.0442 -0.1401
   33CHL1  H22A 2425   5.541   2.779   8.145  0.7171 -0.2372  2.2180
   33CHL1  H22B 2426   5.384   2.691   8.150  0.1096 -2.4810  1.2186
   33CHL1   C23 2427   5.545   2.592   8.258 -0.7150 -0.2129 -0.7658
   33CHL1  H23A 2428   5.528   2.484   8.240  1.2925 -0.3484 -2.0092
   33CHL1  H23B 2429   5.655   2.597   8.247 -0.4690 -1.1939  1.1296
   33CHL1   C24 2430   5.492   2.640   8.394 -0.4010  0.2822 -0.0380
   33CHL1  H24A 2431   5.532   2.743   8.384  0.8706 -0.4114 -2.5695
   33CHL1  H24B 2432   5.382   2.637   8.404 -0.3622  0.1184  0.3507
   33CHL1   C25 2433   5.572   2.584   8.510  0.5811 -0.8135  0.3844
   33CHL1   H25 2434   5.544   2.647   8.597  1.5090  0.4687 -0.2171
   33CHL1   C26 2435   5.536   2.437   8.546 -0.1581  0.1972 -0.1801
   33CHL1  H26A 2436   5.599   2.411   8.633 -0.7396  0.0578  0.2037
   33CHL1  H26B 2437   5.427   2.440   8.570 -0.5016 -1.1872 -1.4240
   33CHL1  H26C 2438   5.559   2.376   8.456  2.0930  1.7471 -0.6828
   33CHL1   C27 2439   5.727   2.598   8.494  0.1427  0.4615  0.0652
   33CHL1  H27A 2440   5.772   2.571   8.593  0.8225 -0.8693 -0.5892
   33CHL1  H27B 2441   5.761   2.529   8.414 -1.5614  1.4618 -1.5478
   33CHL1  H27C 2442   5.750   2.705   8.477 -1.5019  0.5536 -1.7101
   34CHL1    C3 2443   0.084   1.989   7.083  0.4460  0.4753  0.0399
   34CHL1    H3 2444   0.076   1.879   7.066 -0.5964  0.1758  2.2295
   34CHL1    O3 2445   0.087   2.069   6.965 -0.4528 -0.1303  0.3642
   34CHL1   H3' 2446   0.142   2.023   6.902 -2.0079  0.2384 -1.2992
   34CHL1    C4 2447  -0.042   2.034   7.166 -0.4737  0.2772  0.2919
   34CHL1   H4A 2448  -0.024   2.142   7.182  2.0175  0.1838 -1.5140
   34CHL1   H4B 2449  -0.129   2.021   7.098  1.1021 -0.0333 -1.7381
   34CHL1    C5 2450  -0.053   1.947   7.291 -0.1112  0.4223 -0.1100
   34CHL1    C6 2451  -0.164   1.871   7.314  0.0694  0.3311 -0.1333
   34CHL1    H6 2452  -0.244   1.892   7.242  0.0104  0.2981 -0.0782
   34CHL1    C7 2453  -0.177   1.773   7.429  0.4495  0.1556  0.0505
   34CHL1   H7A 2454  -0.282   1.766   7.467  0.5922  0.5829  0.5316
   34CHL1   H7B 2455  -0.141   1.674   7.393  0.9879  0.7148 -0.9565
   34CHL1    C8 2456  -0.087   1.814   7.549 -0.6569 -0.3384  0.1330
   34CHL1    H8 2457  -0.123   1.914   7.581  2.4008 -0.0243  2.8816
   34CHL1   C14 2458  -0.085   1.707   7.657 -0.7362  0.3935  0.1372
   34CHL1   H14 2459  -0.038   1.613   7.620  2.3398  2.2076 -0.7230
   34CHL1   C15 2460  -0.217   1.671   7.720  0.5169  0.2320  1.7053
   34CHL1  H15A 2461  -0.272   1.766   7.738 -0.8603 -0.2853  0.4072
   34CHL1  H15B 2462  -0.279   1.611   7.649  3.4334  2.0484 -2.5812
   34CHL1   C16 2463  -0.198   1.607   7.857 -0.2418  0.8517 -0.3448
   34CHL1  H16A 2464  -0.265   1.657   7.929 -1.4851  0.4455 -1.2039
   34CHL1  H16B 2465  -0.211   1.497   7.857 -0.9138  0.9333 -0.2349
   34CHL1   C17 2466  -0.044   1.639   7.881  0.8665  0.7315 -0.2422
   34CHL1   H17 2467   0.014   1.546   7.862 -0.5469  0.0898 -1.5244
   34CHL1   C13 2468   0.001   1.749   7.779  0.1341 -0.5853  0.3748
   34CHL1   C18 2469  -0.052   1.886   7.840 -0.8120 -0.0168 -0.4809
   34CHL1  H18A 2470   0.004   1.919   7.930 -0.2429  1.9605 -1.5308
   34CHL1  H18B 2471  -0.047   1.961   7.758  0.3259  0.0473 -0.3583
   34CHL1  H18C 2472  -0.160   1.885   7.865 -0.9560  1.4895 -1.0022
   34CHL1   C12 2473   0.147   1.763   7.738  0.1767 -0.1666  0.1236
   34CHL1  H12A 2474   0.214   1.804   7.817 -1.2929  1.5937  0.4952
   34CHL1  H12B 2475   0.203   1.673   7.706 -0.3835 -0.5798  0.3028
   34CHL1   C11 2476   0.153   1.874   7.630  0.0600  0.6409 -0.6651
   34CHL1  H11A 2477   0.135   1.967   7.687 -0.7059 -0.4357  0.8907
   34CHL1  H11B 2478   0.260   1.888   7.601  0.1485  1.0657 -0.1425
   34CHL1    C9 2479   0.064   1.846   7.501  0.3684 -0.4809 -0.5600
   34CHL1    H9 2480   0.099   1.748   7.464 -2.7290 -2.1003  0.6402
   34CHL1   C10 2481   0.068   1.954   7.390  0.3098 -0.1978  0.4401
   34CHL1   C19 2482   0.090   2.091   7.463  0.5504  0.2660 -0.0466
   34CHL1  H19A 2483   0.020   2.105   7.549 -0.1391  0.2519 -0.6025
   34CHL1  H19B 2484   0.194   2.079   7.499  0.5824  0.5042 -0.0587
   34CHL1  H19C 2485   0.093   2.183   7.402  1.1986  1.8924  2.3438
   34CHL1    C1 2486   0.199   1.932   7.298  0.4252 -0.0044 -0.6352
   34CHL1   H1A 2487   0.289   1.967   7.353 -1.0495  1.3818  0.9293
   34CHL1   H1B 2488   0.209   1.823   7.278  0.4519 -0.1558  0.1866
   34CHL1    C2 2489   0.205   2.011   7.167 -0.8678 -0.1163 -0.0771
   34CHL1   H2A 2490   0.298   1.977   7.117  0.3696  2.0969  0.6756
   34CHL1   H2B 2491   0.202   2.116   7.203  0.7682 -0.0661 -0.0583
   34CHL1   C20 2492  -0.017   1.668   8.027  0.0412  0.1833  0.1634
   34CHL1   H20 2493  -0.064   1.763   8.059  0.9742  1.0430 -1.0049
   34CHL1   C21 2494   0.126   1.680   8.068 -0.1020 -0.4385  0.0073
   34CHL1  H21A 2495   0.175   1.775   8.039  0.6061 -0.1166  2.2154
   34CHL1  H21B 2496   0.188   1.595   8.032  1.0512 -0.3794  1.8191
   34CHL1  H21C 2497   0.129   1.694   8.178 -1.4675 -0.7137  0.0975
   34CHL1   C22 2498  -0.077   1.565   8.123  0.1051  0.0703  1.1459
   34CHL1  H22A 2499  -0.098   1.459   8.097 -1.6127  0.0300  2.5932
   34CHL1  H22B 2500  -0.008   1.536   8.205  0.4621 -0.8833  0.5117
   34CHL1   C23 2501  -0.204   1.612   8.195 -0.3322 -0.1628 -0.0760
   34CHL1  H23A 2502  -0.183   1.714   8.234 -0.2596 -0.3139  0.2826
   34CHL1  H23B 2503  -0.282   1.637   8.119 -0.6806 -1.6129 -0.2069
   34CHL1   C24 2504  -0.240   1.518   8.311  0.2112 -1.1123 -0.2648
   34CHL1  H24A 2505  -0.253   1.414   8.274 -1.1919 -0.2677 -2.1630
   34CHL1  H24B 2506  -0.166   1.518   8.395  1.4098  1.5703 -1.2741
   34CHL1   C25 2507  -0.373   1.561   8.382 -0.2232  0.5918 -0.4143
   34CHL1   H25 2508  -0.368   1.670   8.403 -0.9545  0.6236 -0.4020
   34CHL1   C26 2509  -0.497   1.539   8.290 -0.1302  0.1778  0.2570
   34CHL1  H26A 2510  -0.508   1.621   8.215 -0.3230 -2.0193 -2.1995
   34CHL1  H26B 2511  -0.481   1.442   8.239 -2.0331 -1.0709  1.9977
   34CHL1  H26C 2512  -0.589   1.548   8.351 -1.6965 -1.1033 -1.8395
   34CHL1   C27 2513  -0.393   1.500   8.523  0.2446 -0.3144 -0.6145
   34CHL1  H27A 2514  -0.383   1.390   8.515 -2.1941 -0.4510 -2.3613
   34CHL1  H27B 2515  -0.311   1.530   8.592 -0.8611 -1.1634  1.0910
   34CHL1  H27C 2516  -0.496   1.520   8.559  0.6205  1.8072 -0.6289
   35CHL1    C3 2517   3.063   3.390   7.220 -0.1142  0.2965  1.1854
   35CHL1    H3 2518   3.147   3.441   7.273  1.2545 -1.0458  0.3635
   35CHL1    O3 2519   3.069   3.393   7.082  0.3480 -0.4129  0.2827
   35CHL1   H3' 2520   2.984   3.363   7.051  0.3473 -1.1776  1.0144
   35CHL1    C4 2521   3.077   3.245   7.277 -0.1531  0.1467 -0.0829
   35CHL1   H4A 2522   3.007   3.178   7.224 -0.5224  1.1528 -0.8817
   35CHL1   H4B 2523   3.174   3.206   7.240 -1.8786  0.5995 -5.5571
   35CHL1    C5 2524   3.049   3.233   7.429 -0.4094  0.1068 -0.4185
   35CHL1    C6 2525   3.144   3.190   7.509 -0.4226  0.6140 -0.4341
   35CHL1    H6 2526   3.242   3.161   7.466 -0.5163 -0.9620  0.3798
   35CHL1    C7 2527   3.125   3.173   7.657  0.3140 -0.3498 -0.4624
   35CHL1   H7A 2528   3.140   3.068   7.691  3.6179  0.6390  1.4449
   35CHL1   H7B 2529   3.190   3.240   7.718  0.2410  0.1909 -0.9718
   35CHL1    C8 2530   2.976   3.199   7.709 -0.5406  0.0324 -0.2506
   35CHL1    H8 2531   2.916   3.111   7.676 -1.5684  0.7342 -0.2809
   35CHL1   C14 2532   2.969   3.227   7.864  0.3559 -0.1824  0.3543
   35CHL1   H14 2533   3.034   3.315   7.882 -0.7218 -0.0437  3.8723
   35CHL1   C15 2534   3.016   3.107   7.948  0.1336 -0.3323  0.0208
   35CHL1  H15A 2535   2.964   3.013   7.918  0.9454 -1.0083  0.7166
   35CHL1  H15B 2536   3.127   3.107   7.952  0.1710 -0.8358 -0.7566
   35CHL1   C16 2537   2.968   3.154   8.086 -0.1657  0.0410 -0.0947
   35CHL1  H16A 2538   2.915   3.073   8.140  3.3048 -2.5051 -0.3536
   35CHL1  H16B 2539   3.058   3.178   8.146 -0.7272  2.3084 -0.0772
   35CHL1   C17 2540   2.874   3.278   8.063 -0.5118  0.0305  0.4847
   35CHL1   H17 2541   2.949   3.361   8.063 -0.6794  0.1845 -0.1931
   35CHL1   C13 2542   2.835   3.263   7.914  0.0530 -0.4810 -0.2604
   35CHL1   C18 2543   2.734   3.153   7.901  0.4989 -0.4366 -0.0319
   35CHL1  H18A 2544   2.728   3.114   7.797  2.3443  1.2246 -0.8151
   35CHL1  H18B 2545   2.763   3.055   7.946 -0.7098 -0.5053  0.5908
   35CHL1  H18C 2546   2.630   3.185   7.922 -0.6619 -1.9949 -2.9973
   35CHL1   C12 2547   2.783   3.388   7.844  0.1057  0.1111 -0.7102
   35CHL1  H12A 2548   2.679   3.418   7.872 -0.8201 -1.4979 -2.2647
   35CHL1  H12B 2549   2.852   3.472   7.866  0.7848 -0.7559  0.5565
   35CHL1   C11 2550   2.789   3.371   7.689 -0.1528 -0.3042  0.0493
   35CHL1  H11A 2551   2.699   3.308   7.673 -0.4375 -0.3642  1.8310
   35CHL1  H11B 2552   2.761   3.469   7.646 -0.7702 -0.3442  0.3532
   35CHL1    C9 2553   2.920   3.321   7.634 -0.2433 -0.1010  1.0985
   35CHL1    H9 2554   2.988   3.409   7.641 -0.6146  0.3027 -0.2644
   35CHL1   C10 2555   2.918   3.301   7.483  0.8684  0.1902  0.1251
   35CHL1   C19 2556   2.799   3.217   7.431 -0.7597 -0.3075  0.3484
   35CHL1  H19A 2557   2.810   3.191   7.324 -1.0225  1.4526 -0.1262
   35CHL1  H19B 2558   2.796   3.120   7.485  1.5419 -0.6134 -0.0148
   35CHL1  H19C 2559   2.700   3.268   7.434 -0.8114 -0.3450 -0.5985
   35CHL1    C1 2560   2.918   3.444   7.415 -0.0294 -0.1936  0.5497
   35CHL1   H1A 2561   2.829   3.501   7.451 -0.3418 -0.5900  0.4065
   35CHL1   H1B 2562   3.012   3.491   7.449  1.5205 -3.4747  0.9784
   35CHL1    C2 2563   2.932   3.445   7.264  0.4471 -0.2552  0.5883
   35CHL1   H2A 2564   2.919   3.548   7.224 -0.3161 -0.1605  1.0704
   35CHL1   H2B 2565   2.842   3.391   7.228 -0.3228  0.1657  1.8639
   35CHL1   C20 2566   2.775   3.309   8.176  0.1090 -0.3266  0.3599
   35CHL1   H20 2567   2.703   3.384   8.136 -1.2816 -1.0133  1.5443
   35CHL1   C21 2568   2.841   3.393   8.288 -0.3357  0.5747 -0.2150
   35CHL1  H21A 2569   2.772   3.432   8.366 -0.4180  2.5396 -1.2565
   35CHL1  H21B 2570   2.901   3.481   8.258  0.8525 -0.5540 -1.2615
   35CHL1  H21C 2571   2.904   3.316   8.338  0.6254  1.2913 -0.3064
   35CHL1   C22 2572   2.690   3.196   8.225  0.1394  0.2043 -0.2571
   35CHL1  H22A 2573   2.620   3.165   8.144  1.4902 -1.4295 -0.8309
   35CHL1  H22B 2574   2.746   3.103   8.247 -1.4032 -0.6198  0.2567
   35CHL1   C23 2575   2.601   3.235   8.345 -0.5916  0.3679 -0.5463
   35CHL1  H23A 2576   2.666   3.239   8.435 -0.3894 -2.0030 -0.5621
   35CHL1  H23B 2577   2.554   3.335   8.334  0.5196  0.8652 -0.8713
   35CHL1   C24 2578   2.493   3.139   8.369 -0.8024 -0.3899 -0.9943
   35CHL1  H24A 2579   2.423   3.129   8.284  1.0625  0.8065 -2.7106
   35CHL1  H24B 2580   2.538   3.043   8.399 -1.6868 -0.3145  0.6567
   35CHL1   C25 2581   2.399   3.176   8.481 -0.0698 -0.5656 -0.1432
   35CHL1   H25 2582   2.469   3.184   8.568 -0.3875  3.0960 -0.1249
   35CHL1   C26 2583   2.317   3.299   8.459  0.1261  0.4362 -0.4883
   35CHL1  H26A 2584   2.242   3.284   8.378  0.0531 -1.1505 -0.1406
   35CHL1  H26B 2585   2.260   3.308   8.554  1.0142 -3.7562  0.5062
   35CHL1  H26C 2586   2.380   3.390   8.452 -0.2557  0.6270 -1.5112
   35CHL1   C27 2587   2.303   3.059   8.511  0.2201 -0.0133  0.0409
   35CHL1  H27A 2588   2.358   2.962   8.507 -0.7838 -0.5763 -0.3359
   35CHL1  H27B 2589   2.223   3.053   8.435  0.2852  0.3961 -0.0618
   35CHL1  H27C 2590   2.253   3.097   8.602  0.2484 -0.8981  0.4281
   36CHL1    C3 2591   3.412   2.373   7.103 -0.0409  1.2799  0.4024
   36CHL1    H3 2592   3.310   2.376   7.146  0.1286  0.2029  0.8819
   36CHL1    O3 2593   3.392   2.403   6.967  0.2499 -0.4811 -0.2770
   36CHL1   H3' 2594   3.481   2.413   6.932  0.0606 -0.9595 -0.8890
   36CHL1    C4 2595   3.485   2.491   7.172  0.1038  0.1917  1.3707
   36CHL1   H4A 2596   3.588   2.502   7.132  1.2606 -4.4781  2.7153
   36CHL1   H4B 2597   3.430   2.587   7.161  0.4064 -0.0123 -2.2837
   36CHL1    C5 2598   3.496   2.454   7.317 -0.2795  0.0084 -0.7481
   36CHL1    C6 2599   3.442   2.537   7.408  0.1640  0.1560 -0.3575
   36CHL1    H6 2600   3.398   2.629   7.366  1.1308 -0.0777 -1.9150
   36CHL1    C7 2601   3.448   2.510   7.557 -0.0357 -0.0102 -0.6510
   36CHL1   H7A 2602   3.475   2.602   7.612 -0.8110  1.7344 -3.1297
   36CHL1   H7B 2603   3.342   2.493   7.584 -0.4380 -0.8818 -2.6447
   36CHL1    C8 2604   3.540   2.394   7.590 -0.1415 -0.4025 -0.3522
   36CHL1    H8 2605   3.646   2.423   7.603 -0.1274 -1.4123  1.9255
   36CHL1   C14 2606   3.505   2.351   7.736 -0.2598  0.3410  0.3017
   36CHL1   H14 2607   3.401   2.313   7.730 -0.7481  1.3688  2.0520
   36CHL1   C15 2608   3.507   2.450   7.854 -1.1272  0.0615  0.5712
   36CHL1  H15A 2609   3.595   2.512   7.828 -2.0191  0.4046 -1.7956
   36CHL1  H15B 2610   3.419   2.518   7.850 -1.5906 -0.5790 -0.4318
   36CHL1   C16 2611   3.514   2.355   7.979  0.8455 -0.0168  0.4484
   36CHL1  H16A 2612   3.603   2.378   8.040  0.2913 -0.9647  1.6334
   36CHL1  H16B 2613   3.419   2.363   8.035  0.0761  0.9519 -0.9572
   36CHL1   C17 2614   3.517   2.213   7.928 -0.4673  0.5710 -0.4392
   36CHL1   H17 2615   3.414   2.182   7.900 -0.8676  1.0722  0.4206
   36CHL1   C13 2616   3.589   2.230   7.787  0.8502 -0.7034 -0.7019
   36CHL1   C18 2617   3.737   2.266   7.793 -0.1063  0.3584 -0.1564
   36CHL1  H18A 2618   3.779   2.176   7.844  0.2104  0.0935 -0.8708
   36CHL1  H18B 2619   3.775   2.281   7.690 -2.1680 -1.2982 -1.1893
   36CHL1  H18C 2620   3.762   2.338   7.873  2.1357 -4.5266  3.8557
   36CHL1   C12 2621   3.573   2.115   7.692  0.6732  0.2981  0.5916
   36CHL1  H12A 2622   3.629   2.024   7.722 -0.7463 -0.5105  0.8252
   36CHL1  H12B 2623   3.463   2.098   7.685  0.5151  0.1185  2.8846
   36CHL1   C11 2624   3.607   2.157   7.546 -0.3976  0.5637 -0.0907
   36CHL1  H11A 2625   3.714   2.187   7.535 -1.0159  2.0709 -2.1765
   36CHL1  H11B 2626   3.594   2.077   7.470 -0.1511  0.2325  0.2137
   36CHL1    C9 2627   3.532   2.280   7.496  0.5955 -0.1805  0.2810
   36CHL1    H9 2628   3.425   2.250   7.499  0.0216  1.6984 -0.4929
   36CHL1   C10 2629   3.559   2.314   7.349 -0.4064  0.1556  0.6524
   36CHL1   C19 2630   3.714   2.329   7.334  0.0949 -0.1986 -0.7658
   36CHL1  H19A 2631   3.734   2.365   7.231  0.9135 -2.4840 -1.4264
   36CHL1  H19B 2632   3.765   2.407   7.395 -0.0709 -0.0357 -0.8344
   36CHL1  H19C 2633   3.770   2.234   7.346  3.8347  1.9896 -0.1012
   36CHL1    C1 2634   3.511   2.200   7.254  0.2255  0.3642  0.2514
   36CHL1   H1A 2635   3.593   2.126   7.264  0.5133  0.5889 -0.4256
   36CHL1   H1B 2636   3.415   2.156   7.289 -0.9630  2.7885  0.1598
   36CHL1    C2 2637   3.489   2.240   7.111  0.0273 -0.5842 -0.1389
   36CHL1   H2A 2638   3.429   2.165   7.055 -1.1005  0.8459 -0.8837
   36CHL1   H2B 2639   3.587   2.246   7.059  0.4006 -0.9290  0.5181
   36CHL1   C20 2640   3.574   2.115   8.036  0.2760 -0.6626 -0.1331
   36CHL1   H20 2641   3.685   2.118   8.030  0.2724 -0.3432 -0.0096
   36CHL1   C21 2642   3.538   1.973   7.986  0.7210 -0.5786  0.2458
   36CHL1  H21A 2643   3.607   1.933   7.909  0.7986 -0.0332  0.0328
   36CHL1  H21B 2644   3.434   1.951   7.954  0.7011 -0.0291 -0.0737
   36CHL1  H21C 2645   3.547   1.905   8.074 -0.2030  0.9726  1.5788
   36CHL1   C22 2646   3.529   2.128   8.188  0.7395  0.6038 -0.6719
   36CHL1  H22A 2647   3.542   2.234   8.216  0.4675  0.5600 -0.3759
   36CHL1  H22B 2648   3.422   2.098   8.188  1.3438 -1.6426  0.4743
   36CHL1   C23 2649   3.613   2.045   8.292 -0.0661 -0.3839  0.4700
   36CHL1  H23A 2650   3.602   1.936   8.275 -0.8040 -0.1626 -0.5075
   36CHL1  H23B 2651   3.720   2.071   8.274 -0.0222 -0.0030  1.2568
   36CHL1   C24 2652   3.562   2.085   8.429  0.2997  0.1198  0.4186
   36CHL1  H24A 2653   3.549   2.195   8.443 -0.4606  0.0073  0.5765
   36CHL1  H24B 2654   3.465   2.036   8.451  0.0479 -0.2459 -1.3887
   36CHL1   C25 2655   3.662   2.031   8.537 -0.2195  0.6739 -0.6000
   36CHL1   H25 2656   3.766   2.067   8.517 -0.2470  0.3467 -1.3535
   36CHL1   C26 2657   3.614   2.073   8.676 -0.0143  0.5642  0.4559
   36CHL1  H26A 2658   3.630   2.181   8.697 -1.6352  0.8751  0.1280
   36CHL1  H26B 2659   3.506   2.051   8.692 -0.1822  0.5978 -0.6055
   36CHL1  H26C 2660   3.679   2.015   8.744  1.1534  2.0783  0.6634
   36CHL1   C27 2661   3.668   1.877   8.530  0.0666  0.8907 -0.3418
   36CHL1  H27A 2662   3.684   1.844   8.425 -1.6822 -1.0542 -0.0420
   36CHL1  H27B 2663   3.740   1.834   8.602 -0.9771  0.9228  0.7316
   36CHL1  H27C 2664   3.568   1.835   8.558  0.2405  0.7729  0.0954
   37CHL1    C3 2665   0.345   4.789   6.823 -0.0683 -0.1341 -0.0784
   37CHL1    H3 2666   0.428   4.716   6.837  0.3185  0.0871 -1.1580
   37CHL1    O3 2667   0.351   4.825   6.687 -0.2436 -0.2133  0.0242
   37CHL1   H3' 2668   0.258   4.826   6.662 -0.4562  0.8900  0.8304
   37CHL1    C4 2669   0.214   4.710   6.851 -0.4881 -0.4550  0.0496
   37CHL1   H4A 2670   0.136   4.776   6.807  2.0221  1.8204 -1.0811
   37CHL1   H4B 2671   0.209   4.616   6.793 -0.9997 -0.2962 -0.1737
   37CHL1    C5 2672   0.176   4.686   7.003 -0.1705  0.5410  0.3913
   37CHL1    C6 2673   0.144   4.558   7.044  1.0827 -0.2027 -0.5641
   37CHL1    H6 2674   0.134   4.480   6.968 -1.1102  0.8756 -1.4284
   37CHL1    C7 2675   0.126   4.527   7.190  0.0867 -0.5499 -0.6386
   37CHL1   H7A 2676   0.034   4.467   7.207  0.0481 -0.0934  0.7909
   37CHL1   H7B 2677   0.213   4.463   7.215  0.4918  0.7078  1.2595
   37CHL1    C8 2678   0.116   4.651   7.278 -0.4715 -0.2128 -0.1504
   37CHL1    H8 2679   0.017   4.698   7.259 -0.2664 -0.6612 -2.3961
   37CHL1   C14 2680   0.135   4.608   7.421 -1.0751 -1.0902 -0.3262
   37CHL1   H14 2681   0.229   4.549   7.429 -1.3726 -1.8233 -1.9932
   37CHL1   C15 2682   0.026   4.507   7.473 -0.3839 -0.6007  0.3301
   37CHL1  H15A 2683  -0.075   4.538   7.440 -0.1585 -0.3012 -0.0813
   37CHL1  H15B 2684   0.048   4.405   7.434  0.5693  0.0033 -0.7186
   37CHL1   C16 2685   0.029   4.526   7.626  0.0447  0.4173 -0.1450
   37CHL1  H16A 2686  -0.068   4.552   7.672  0.9505  1.4871  1.1972
   37CHL1  H16B 2687   0.055   4.429   7.674 -0.6495  1.2004  1.8451
   37CHL1   C17 2688   0.120   4.645   7.651  0.6212 -0.0213 -0.3105
   37CHL1   H17 2689   0.220   4.596   7.653  0.3645 -0.5184  0.9581
   37CHL1   C13 2690   0.122   4.721   7.520  0.3619 -0.1868  0.0123
   37CHL1   C18 2691  -0.010   4.799   7.503 -0.1246  0.3443 -0.3300
   37CHL1  H18A 2692  -0.101   4.740   7.527 -0.2339  1.2637  1.6666
   37CHL1  H18B 2693  -0.006   4.888   7.571 -0.4973  0.7574 -0.8407
   37CHL1  H18C 2694  -0.021   4.839   7.400  1.5827  1.2289 -0.1866
   37CHL1   C12 2695   0.245   4.808   7.494 -0.2445 -0.3675 -0.2072
   37CHL1  H12A 2696   0.260   4.893   7.564 -2.0114 -1.7065  1.8273
   37CHL1  H12B 2697   0.339   4.751   7.511  0.2912  0.7331  0.6309
   37CHL1   C11 2698   0.233   4.865   7.351  0.1170  0.0274  0.3177
   37CHL1  H11A 2699   0.151   4.940   7.349  2.0762  2.2494 -0.8384
   37CHL1  H11B 2700   0.320   4.929   7.325 -0.3276  0.9301  1.0417
   37CHL1    C9 2701   0.223   4.753   7.245 -0.6577 -0.4565 -0.1734
   37CHL1    H9 2702   0.316   4.691   7.240  0.7243  1.5956 -0.6100
   37CHL1   C10 2703   0.207   4.801   7.102  0.7294 -0.1869  0.5469
   37CHL1   C19 2704   0.095   4.909   7.093  0.1577  0.3179 -0.2148
   37CHL1  H19A 2705   0.044   4.916   6.995 -0.8907 -0.8584  0.2329
   37CHL1  H19B 2706   0.005   4.889   7.155 -1.0159 -2.2179 -2.6163
   37CHL1  H19C 2707   0.134   5.010   7.118 -1.1958  0.4511  1.4754
   37CHL1    C1 2708   0.344   4.875   7.063 -0.0520 -0.9735 -0.1147
   37CHL1   H1A 2709   0.350   4.959   7.135 -3.3117 -0.7133 -0.0978
   37CHL1   H1B 2710   0.425   4.803   7.089 -1.0975 -1.6047  1.4834
   37CHL1    C2 2711   0.357   4.916   6.915  0.1065  0.5179 -0.3298
   37CHL1   H2A 2712   0.456   4.959   6.890  1.5530 -2.7041 -0.4683
   37CHL1   H2B 2713   0.283   4.992   6.883  1.2688  1.8592  0.1013
   37CHL1   C20 2714   0.099   4.723   7.783 -0.3851  0.1491 -0.4749
   37CHL1   H20 2715   0.034   4.812   7.766 -0.2933  0.3908  0.4166
   37CHL1   C21 2716   0.231   4.779   7.830 -0.1963  0.3240  0.1558
   37CHL1  H21A 2717   0.232   4.841   7.922 -0.1235 -0.2138  0.5210
   37CHL1  H21B 2718   0.275   4.842   7.750 -1.7156  0.0694 -0.9100
   37CHL1  H21C 2719   0.300   4.692   7.843 -1.1708 -0.3219  1.2102
   37CHL1   C22 2720   0.028   4.645   7.897  0.5824  0.0627  0.4857
   37CHL1  H22A 2721  -0.074   4.613   7.868  1.2112 -0.0897 -1.6281
   37CHL1  H22B 2722   0.090   4.559   7.929 -1.8596 -1.4554  1.2520
   37CHL1   C23 2723   0.013   4.725   8.027  0.4843  0.1882 -1.0356
   37CHL1  H23A 2724   0.116   4.750   8.059  0.1226  1.0370 -0.5341
   37CHL1  H23B 2725  -0.045   4.818   8.011 -1.5055 -0.5302  1.7345
   37CHL1   C24 2726  -0.047   4.649   8.147  0.3810  0.0656 -0.2018
   37CHL1  H24A 2727  -0.138   4.595   8.113  0.3810  0.8161 -1.4296
   37CHL1  H24B 2728   0.006   4.560   8.189 -0.1174  0.1815  0.6808
   37CHL1   C25 2729  -0.081   4.746   8.268 -0.0659  0.5883 -0.4159
   37CHL1   H25 2730  -0.137   4.834   8.229 -0.4045 -0.1199 -1.5569
   37CHL1   C26 2731  -0.159   4.670   8.380  0.4053  0.2612  0.3624
   37CHL1  H26A 2732  -0.178   4.740   8.464 -0.3434 -2.7515  2.7979
   37CHL1  H26B 2733  -0.258   4.643   8.337 -0.5588  1.1845  1.9450
   37CHL1  H26C 2734  -0.104   4.582   8.418 -0.3619 -0.5203 -0.3125
   37CHL1   C27 2735   0.048   4.815   8.316  0.2360  0.3648 -0.1803
   37CHL1  H27A 2736   0.112   4.845   8.230 -1.3544 -1.3841 -2.0321
   37CHL1  H27B 2737   0.018   4.912   8.361  0.8428  0.3824  0.1912
   37CHL1  H27C 2738   0.106   4.761   8.393 -2.0314  1.2983  2.2779
   38CHL1    C3 2739   3.634   5.370   6.797 -0.0345  0.0627  0.2320
   38CHL1    H3 2740   3.726   5.432   6.787 -0.9557  2.1252  3.7079
   38CHL1    O3 2741   3.592   5.356   6.666 -0.2345 -0.4674  0.1353
   38CHL1   H3' 2742   3.577   5.443   6.627  0.9603 -0.1450  0.3578
   38CHL1    C4 2743   3.648   5.236   6.855  0.3860 -0.0103 -1.3831
   38CHL1   H4A 2744   3.569   5.162   6.831  1.3419 -0.9340 -1.6836
   38CHL1   H4B 2745   3.730   5.179   6.807 -1.5561  0.5053 -5.5692
   38CHL1    C5 2746   3.678   5.244   7.002  0.1087  0.0308  0.5119
   38CHL1    C6 2747   3.790   5.192   7.058 -0.8227  0.3835 -0.4695
   38CHL1    H6 2748   3.865   5.138   6.998 -0.8594 -1.1349  0.8405
   38CHL1    C7 2749   3.815   5.184   7.206 -0.3402  0.8001  1.0011
   38CHL1   H7A 2750   3.857   5.090   7.246  1.5988  2.1218  2.2022
   38CHL1   H7B 2751   3.905   5.248   7.220  1.5839 -0.7928 -3.1634
   38CHL1    C8 2752   3.694   5.220   7.290 -0.4716 -0.2885 -0.2946
   38CHL1    H8 2753   3.630   5.129   7.296  3.6144 -3.1621  3.4205
   38CHL1   C14 2754   3.739   5.250   7.430 -0.0752  0.0788 -1.0442
   38CHL1   H14 2755   3.793   5.347   7.428  0.1665  0.0017  0.8891
   38CHL1   C15 2756   3.836   5.159   7.493 -0.0224 -0.2363 -0.1641
   38CHL1  H15A 2757   3.804   5.053   7.484 -0.6288 -0.1585  0.9168
   38CHL1  H15B 2758   3.934   5.174   7.443  0.0007  0.0312 -0.0367
   38CHL1   C16 2759   3.836   5.199   7.645  0.4022 -0.2483 -0.6795
   38CHL1  H16A 2760   3.822   5.107   7.706  0.4907 -0.8535 -1.5643
   38CHL1  H16B 2761   3.931   5.246   7.678  0.7632 -1.3324 -0.1610
   38CHL1   C17 2762   3.714   5.300   7.653  0.5202  0.1490  0.4672
   38CHL1   H17 2763   3.763   5.400   7.652 -2.3492  1.6693  2.9256
   38CHL1   C13 2764   3.628   5.282   7.532 -0.3387 -0.3846  0.4955
   38CHL1   C18 2765   3.528   5.166   7.537  0.6079  0.1597  0.5998
   38CHL1  H18A 2766   3.438   5.181   7.601  0.3963 -1.0762  0.6125
   38CHL1  H18B 2767   3.486   5.153   7.435  1.1154  0.5921  0.3321
   38CHL1  H18C 2768   3.581   5.075   7.572  1.5588  0.8187  0.9136
   38CHL1   C12 2769   3.562   5.411   7.474 -0.0802  0.4845  0.3184
   38CHL1  H12A 2770   3.475   5.442   7.536 -0.4062  0.6589 -0.2264
   38CHL1  H12B 2771   3.619   5.507   7.477 -1.7380  1.4488  2.0047
   38CHL1   C11 2772   3.502   5.399   7.327  0.0904  0.3580 -0.2212
   38CHL1  H11A 2773   3.411   5.335   7.328 -0.6934  1.2696 -3.9194
   38CHL1  H11B 2774   3.457   5.497   7.298 -2.1669 -0.2332  1.1987
   38CHL1    C9 2775   3.617   5.339   7.232 -0.5618  0.6609 -0.1588
   38CHL1    H9 2776   3.690   5.422   7.232 -0.7684  0.8420 -0.4410
   38CHL1   C10 2777   3.573   5.322   7.088 -0.3909  0.0714 -0.2781
   38CHL1   C19 2778   3.447   5.229   7.083 -1.0206  0.0289 -0.5501
   38CHL1  H19A 2779   3.366   5.303   7.100  1.2681  2.8250 -1.3801
   38CHL1  H19B 2780   3.426   5.191   6.981  0.2146  0.6586 -1.0409
   38CHL1  H19C 2781   3.455   5.148   7.158  0.6612 -0.4694 -1.2445
   38CHL1    C1 2782   3.556   5.461   7.013 -0.4319  0.5005  0.0098
   38CHL1   H1A 2783   3.468   5.515   7.053 -0.2979  1.0542 -0.4435
   38CHL1   H1B 2784   3.647   5.517   7.043  0.5082 -1.7209  1.4496
   38CHL1    C2 2785   3.528   5.445   6.871 -0.5252 -0.2208  0.7247
   38CHL1   H2A 2786   3.529   5.537   6.809 -0.4374 -0.9293 -0.3587
   38CHL1   H2B 2787   3.431   5.397   6.846  0.2736 -1.1842 -0.6716
   38CHL1   C20 2788   3.638   5.291   7.788 -0.1509  0.5306  0.1126
   38CHL1   H20 2789   3.578   5.197   7.782  2.7599 -1.3906 -0.3763
   38CHL1   C21 2790   3.538   5.408   7.796  0.4048 -0.5142  0.0453
   38CHL1  H21A 2791   3.498   5.431   7.897  0.5617  2.2329 -0.4766
   38CHL1  H21B 2792   3.449   5.383   7.734 -0.3453  2.5376 -0.1857
   38CHL1  H21C 2793   3.573   5.501   7.745  2.8022 -0.7592  1.1712
   38CHL1   C22 2794   3.730   5.287   7.918  0.4679 -0.5694  0.0517
   38CHL1  H22A 2795   3.655   5.266   7.998 -1.1414  0.5080 -1.1423
   38CHL1  H22B 2796   3.808   5.209   7.905  1.2493  0.2075  0.0604
   38CHL1   C23 2797   3.815   5.412   7.941  0.2682 -0.1171  0.7912
   38CHL1  H23A 2798   3.882   5.409   7.852  0.9571 -1.7058  1.3433
   38CHL1  H23B 2799   3.750   5.503   7.944 -1.8246 -1.4809 -1.4874
   38CHL1   C24 2800   3.890   5.408   8.070 -0.3229 -0.4877  0.4955
   38CHL1  H24A 2801   3.924   5.303   8.080  0.3180 -0.2820  0.4476
   38CHL1  H24B 2802   3.980   5.472   8.065 -0.1902 -0.7203 -0.2398
   38CHL1   C25 2803   3.805   5.451   8.194  0.2469 -0.8710 -0.4911
   38CHL1   H25 2804   3.713   5.390   8.178  0.0657 -0.8047  0.3054
   38CHL1   C26 2805   3.860   5.391   8.333 -0.2220 -0.5003  0.0446
   38CHL1  H26A 2806   3.873   5.281   8.324  0.4424 -0.4731  0.6220
   38CHL1  H26B 2807   3.957   5.445   8.346 -0.3683 -0.1632 -0.2485
   38CHL1  H26C 2808   3.781   5.410   8.409 -3.1045 -1.6841 -2.5403
   38CHL1   C27 2809   3.795   5.607   8.196  0.4066  0.0637 -0.4961
   38CHL1  H27A 2810   3.696   5.642   8.234 -0.5888 -1.4661 -1.6055
   38CHL1  H27B 2811   3.878   5.641   8.261  0.2138  2.4317 -1.4792
   38CHL1  H27C 2812   3.814   5.659   8.100 -2.0506  1.4950 -0.2523
   39CHL1    C3 2813   3.064   4.379   7.089 -0.4499  0.6190  0.3873
   39CHL1    H3 2814   2.968   4.433   7.097 -0.0152  1.7524 -1.6233
   39CHL1    O3 2815   3.100   4.381   6.956  0.1759 -0.1871 -0.6024
   39CHL1   H3' 2816   3.189   4.347   6.952  0.2496 -0.1563  0.5158
   39CHL1    C4 2817   3.163   4.469   7.165 -0.3508 -0.1253  0.2056
   39CHL1   H4A 2818   3.262   4.420   7.170 -0.3807 -0.0009  2.3661
   39CHL1   H4B 2819   3.186   4.564   7.112  0.3252 -0.0993  0.5555
   39CHL1    C5 2820   3.122   4.490   7.309  0.1799 -1.2155 -0.1911
   39CHL1    C6 2821   3.098   4.609   7.360 -0.1782 -0.1633  0.7378
   39CHL1    H6 2822   3.116   4.700   7.300  0.2535 -0.0094  1.1001
   39CHL1    C7 2823   3.058   4.635   7.498  0.9877  0.1692 -0.0457
   39CHL1   H7A 2824   3.112   4.726   7.531 -0.6289  1.1400  0.0073
   39CHL1   H7B 2825   2.953   4.672   7.491  0.2442 -1.5026  1.7396
   39CHL1    C8 2826   3.077   4.517   7.596  0.6539  0.2711  0.0327
   39CHL1    H8 2827   3.187   4.516   7.614  0.5308  1.3780  0.9896
   39CHL1   C14 2828   3.001   4.532   7.723 -0.3247  0.8588  0.3465
   39CHL1   H14 2829   2.893   4.540   7.701  0.0052  2.1291 -0.8760
   39CHL1   C15 2830   3.038   4.663   7.804  0.2260  0.1136  0.3746
   39CHL1  H15A 2831   3.145   4.692   7.794 -0.0769  0.8501 -0.8540
   39CHL1  H15B 2832   2.989   4.748   7.752 -2.4561 -1.2585  0.6196
   39CHL1   C16 2833   3.002   4.628   7.951  0.6601 -0.1221 -0.0845
   39CHL1  H16A 2834   3.100   4.629   8.004 -0.2836 -1.3742  1.7338
   39CHL1  H16B 2835   2.928   4.697   7.996 -0.1285 -1.3435  0.5204
   39CHL1   C17 2836   2.948   4.478   7.951 -0.4386  0.4317  0.0398
   39CHL1   H17 2837   2.841   4.482   7.920 -0.6121  0.5943  0.6443
   39CHL1   C13 2838   3.009   4.414   7.824  0.6588 -0.0005 -0.6695
   39CHL1   C18 2839   3.157   4.372   7.853 -0.5063 -0.0592 -0.3172
   39CHL1  H18A 2840   3.223   4.445   7.905 -0.9677  0.0779  0.0777
   39CHL1  H18B 2841   3.141   4.293   7.930 -0.7071  0.4088  0.1268
   39CHL1  H18C 2842   3.217   4.340   7.765 -1.1405  0.3477 -0.8956
   39CHL1   C12 2843   2.940   4.294   7.755 -0.1626 -0.5370  0.1393
   39CHL1  H12A 2844   2.955   4.201   7.814  0.9935 -0.9701 -0.8224
   39CHL1  H12B 2845   2.832   4.313   7.737 -0.5463 -1.5984  1.2941
   39CHL1   C11 2846   3.004   4.267   7.618 -0.5690 -0.3768 -0.3957
   39CHL1  H11A 2847   3.104   4.223   7.638 -0.1193  0.6219 -0.4305
   39CHL1  H11B 2848   2.948   4.188   7.562 -0.4477 -0.4022 -0.4803
   39CHL1    C9 2849   3.026   4.393   7.528 -0.1242 -0.3355  1.2993
   39CHL1    H9 2850   2.922   4.421   7.502  1.2683  3.0209 -0.9356
   39CHL1   C10 2851   3.096   4.364   7.391  0.7387  0.2370 -0.2803
   39CHL1   C19 2852   3.228   4.294   7.425  0.2725  0.3472  0.0098
   39CHL1  H19A 2853   3.201   4.191   7.454 -0.7006  1.1199  1.9394
   39CHL1  H19B 2854   3.294   4.279   7.337  0.4738 -1.3316  0.4378
   39CHL1  H19C 2855   3.278   4.354   7.504 -0.2579  1.5435 -0.5369
   39CHL1    C1 2856   3.012   4.263   7.313 -0.2062  0.3214  0.4554
   39CHL1   H1A 2857   3.013   4.163   7.362 -0.3489 -0.3278 -0.8403
   39CHL1   H1B 2858   2.907   4.296   7.307  0.3944  2.1544 -0.3132
   39CHL1    C2 2859   3.060   4.243   7.160  0.6501 -1.1996  0.3825
   39CHL1   H2A 2860   2.986   4.180   7.106  1.2350 -0.3814 -1.4054
   39CHL1   H2B 2861   3.158   4.192   7.160  0.2049 -2.0736 -1.0195
   39CHL1   C20 2862   2.962   4.412   8.088 -0.1464  0.2767  0.3084
   39CHL1   H20 2863   3.067   4.377   8.096 -0.1587  0.1404 -0.1010
   39CHL1   C21 2864   2.861   4.293   8.093 -0.0888 -0.1845  0.2260
   39CHL1  H21A 2865   2.851   4.252   8.196 -1.5272  2.9324  1.3947
   39CHL1  H21B 2866   2.876   4.219   8.012  1.1314 -0.4458  0.6818
   39CHL1  H21C 2867   2.763   4.334   8.061  0.3636  0.0323 -0.9051
   39CHL1   C22 2868   2.926   4.511   8.206 -0.2429  0.0627 -0.3351
   39CHL1  H22A 2869   2.961   4.616   8.194 -0.9286  0.1603 -1.5511
   39CHL1  H22B 2870   2.817   4.528   8.220 -0.2527 -1.2519  1.3287
   39CHL1   C23 2871   2.989   4.469   8.337 -0.5129 -1.2045 -0.2950
   39CHL1  H23A 2872   2.971   4.366   8.374  1.9797 -0.9831  1.7031
   39CHL1  H23B 2873   3.097   4.488   8.316 -0.0561 -0.6836  2.3707
   39CHL1   C24 2874   2.955   4.563   8.455 -1.0647 -0.0370 -0.5857
   39CHL1  H24A 2875   2.983   4.669   8.440  0.4902 -0.3323  0.1766
   39CHL1  H24B 2876   2.844   4.553   8.459 -0.9891 -0.6115  0.2495
   39CHL1   C25 2877   3.023   4.521   8.588  0.2078 -0.4981  0.4088
   39CHL1   H25 2878   2.993   4.415   8.601 -0.8940 -0.0146  1.9862
   39CHL1   C26 2879   3.171   4.523   8.591  0.1685  0.0333 -0.3257
   39CHL1  H26A 2880   3.220   4.623   8.588 -1.4864  0.9953  2.5868
   39CHL1  H26B 2881   3.197   4.475   8.688 -0.2587  0.5214  0.0260
   39CHL1  H26C 2882   3.216   4.462   8.510  1.8717  0.0027  0.6139
   39CHL1   C27 2883   2.946   4.591   8.706 -0.0641  0.5814  0.0358
   39CHL1  H27A 2884   2.839   4.563   8.695 -0.0286 -0.1671  1.5190
   39CHL1  H27B 2885   2.985   4.562   8.806 -0.4296  0.6952  0.2118
   39CHL1  H27C 2886   2.957   4.700   8.688  0.8695  0.3325 -0.9887
   40CHL1    C3 2887   6.041   3.137   6.940 -0.6190 -0.0182 -0.0033
   40CHL1    H3 2888   6.145   3.131   6.977 -0.2623  0.5371 -0.9112
   40CHL1    O3 2889   6.020   3.105   6.804 -0.3618  0.1744 -0.4820
   40CHL1   H3' 2890   5.927   3.095   6.786 -0.1936  0.4995 -1.6137
   40CHL1    C4 2891   5.949   3.038   7.022  0.5976 -0.0072  0.1960
   40CHL1   H4A 2892   5.852   3.041   6.969  0.5072 -2.2329  0.1695
   40CHL1   H4B 2893   5.982   2.933   7.006  0.8111  0.1786 -0.5786
   40CHL1    C5 2894   5.972   3.082   7.160  0.4508 -0.5581  0.3592
   40CHL1    C6 2895   6.024   2.998   7.256 -0.1747  0.3814  0.5189
   40CHL1    H6 2896   6.057   2.895   7.235  2.2308  1.2468 -0.1661
   40CHL1    C7 2897   6.043   3.038   7.401  0.4086 -0.0236 -0.8637
   40CHL1   H7A 2898   6.022   2.957   7.473 -1.2627  1.1760  0.0475
   40CHL1   H7B 2899   6.145   3.079   7.419  0.7453 -1.5122  0.7115
   40CHL1    C8 2900   5.940   3.150   7.438  0.3618  0.7287  0.0174
   40CHL1    H8 2901   5.840   3.103   7.431  0.5938  0.6310 -3.7284
   40CHL1   C14 2902   5.960   3.201   7.581  0.4313  0.0445  0.1448
   40CHL1   H14 2903   6.062   3.243   7.587  0.2962  0.5461 -0.8620
   40CHL1   C15 2904   5.965   3.094   7.691 -0.0627  0.4354  0.5220
   40CHL1  H15A 2905   5.877   3.030   7.667 -0.0320  0.6482 -0.1826
   40CHL1  H15B 2906   6.062   3.039   7.686 -0.4194 -0.2567  1.1997
   40CHL1   C16 2907   5.954   3.181   7.821  0.4399 -0.0163 -0.0473
   40CHL1  H16A 2908   5.892   3.133   7.900 -0.9363 -0.6241 -1.4539
   40CHL1  H16B 2909   6.057   3.184   7.860  0.0206  0.4226  1.0384
   40CHL1   C17 2910   5.896   3.321   7.780 -0.3161  0.6452 -0.2978
   40CHL1   H17 2911   5.988   3.384   7.770 -1.0356  1.9213  0.9927
   40CHL1   C13 2912   5.859   3.302   7.631 -0.4237  0.9129 -0.3352
   40CHL1   C18 2913   5.718   3.244   7.632 -0.5544  0.0890  0.4378
   40CHL1  H18A 2914   5.694   3.214   7.528  1.0108 -0.4245  0.2152
   40CHL1  H18B 2915   5.712   3.153   7.695 -0.3824  0.1165  0.4924
   40CHL1  H18C 2916   5.637   3.314   7.663  0.3753  1.4515 -0.1664
   40CHL1   C12 2917   5.880   3.422   7.538  0.1637  0.0374  0.0995
   40CHL1  H12A 2918   5.803   3.502   7.545 -1.2253 -1.2766  0.2298
   40CHL1  H12B 2919   5.982   3.464   7.548  0.7025 -1.2074 -0.0650
   40CHL1   C11 2920   5.862   3.391   7.390  0.4324  0.5655 -0.3419
   40CHL1  H11A 2921   5.752   3.378   7.386  0.6524 -1.1920 -1.3546
   40CHL1  H11B 2922   5.904   3.472   7.327 -0.7538  1.0594 -0.5151
   40CHL1    C9 2923   5.950   3.270   7.345 -0.2303  0.0779 -0.0245
   40CHL1    H9 2924   6.054   3.305   7.358  0.1099 -1.9935  3.6610
   40CHL1   C10 2925   5.929   3.228   7.193  0.4467 -0.4761  0.0480
   40CHL1   C19 2926   5.778   3.247   7.167  0.3694  0.0512  0.5299
   40CHL1  H19A 2927   5.719   3.202   7.249 -0.7781  1.8704  0.7225
   40CHL1  H19B 2928   5.748   3.354   7.167  1.0585  0.2523  1.6313
   40CHL1  H19C 2929   5.747   3.195   7.073  0.1846 -0.7599  1.0370
   40CHL1    C1 2930   6.007   3.326   7.098 -0.2809 -0.1295 -0.5948
   40CHL1   H1A 2931   5.956   3.423   7.112 -0.2431 -0.2308  0.2808
   40CHL1   H1B 2932   6.107   3.347   7.143 -1.4329 -0.1578  2.1002
   40CHL1    C2 2933   6.009   3.284   6.954  0.2772 -0.1154  0.1537
   40CHL1   H2A 2934   6.071   3.354   6.895  1.3157 -0.2514  1.0690
   40CHL1   H2B 2935   5.905   3.299   6.918  0.5628  3.1840  0.5945
   40CHL1   C20 2936   5.808   3.395   7.879  0.1658 -0.3787 -0.4869
   40CHL1   H20 2937   5.726   3.329   7.916 -1.4234  0.8267 -1.7563
   40CHL1   C21 2938   5.761   3.528   7.827  0.6256 -0.2456 -0.7673
   40CHL1  H21A 2939   5.860   3.577   7.814  1.1981 -1.0703  0.4116
   40CHL1  H21B 2940   5.712   3.581   7.912  0.1064  0.1852 -1.3365
   40CHL1  H21C 2941   5.701   3.531   7.734 -1.6581 -3.8600  0.4438
   40CHL1   C22 2942   5.890   3.409   8.008  1.2503  0.7642 -0.1289
   40CHL1  H22A 2943   5.935   3.312   8.038 -3.7445 -0.9474  2.3583
   40CHL1  H22B 2944   5.977   3.479   8.005  0.6034  1.6458  1.2641
   40CHL1   C23 2945   5.821   3.464   8.138 -0.1131  0.5342  0.8145
   40CHL1  H23A 2946   5.790   3.570   8.128  0.1323  0.5127 -0.1977
   40CHL1  H23B 2947   5.734   3.399   8.161  0.6709  0.0610  2.5205
   40CHL1   C24 2948   5.916   3.447   8.250 -0.3841  0.0850 -0.2630
   40CHL1  H24A 2949   5.944   3.339   8.255 -2.0571 -0.3614  0.0017
   40CHL1  H24B 2950   6.011   3.500   8.231 -1.4251  2.0543 -0.0988
   40CHL1   C25 2951   5.852   3.477   8.386  0.2853 -0.8895  0.0175
   40CHL1   H25 2952   5.772   3.402   8.404 -1.8084  0.6010 -2.6807
   40CHL1   C26 2953   5.965   3.473   8.493 -0.0659 -0.4065  0.4522
   40CHL1  H26A 2954   6.048   3.405   8.463 -0.5241 -0.0634 -1.6829
   40CHL1  H26B 2955   6.013   3.573   8.503  0.8735 -0.8614  0.4888
   40CHL1  H26C 2956   5.927   3.452   8.595  1.5394 -1.4976  0.8475
   40CHL1   C27 2957   5.777   3.611   8.398  0.1196 -0.2221  0.3171
   40CHL1  H27A 2958   5.744   3.616   8.503 -0.2390 -1.3074  0.2575
   40CHL1  H27B 2959   5.849   3.682   8.351  0.8416 -1.2369 -0.1245
   40CHL1  H27C 2960   5.678   3.614   8.348  0.9166  1.0973 -1.2686
   41CHL1    C3 2961   6.431   3.912   6.963 -0.5560 -0.3273 -0.2631
   41CHL1    H3 2962   6.477   4.009   6.994 -1.2206 -0.4007  1.0125
   41CHL1    O3 2963   6.467   3.889   6.833  0.3539 -0.4124 -0.1348
   41CHL1   H3' 2964   6.450   3.962   6.773 -0.1352 -0.1830  0.2763
   41CHL1    C4 2965   6.494   3.802   7.051  0.2913  0.2100  0.9334
   41CHL1   H4A 2966   6.475   3.698   7.016 -0.3089 -0.3878  3.0039
   41CHL1   H4B 2967   6.604   3.807   7.040 -0.0285  2.8566 -1.6602
   41CHL1    C5 2968   6.448   3.819   7.193  0.1509  0.4617 -0.3170
   41CHL1    C6 2969   6.537   3.844   7.293  0.1295  0.5190  1.1135
   41CHL1    H6 2970   6.645   3.840   7.273  0.2659 -1.1054  2.1114
   41CHL1    C7 2971   6.494   3.857   7.439  0.2253  0.8016  0.8266
   41CHL1   H7A 2972   6.557   3.811   7.519  1.3977 -0.7551 -0.9346
   41CHL1   H7B 2973   6.504   3.966   7.452  0.9997  1.2389 -2.9296
   41CHL1    C8 2974   6.343   3.825   7.472 -0.4228 -0.7224  1.1882
   41CHL1    H8 2975   6.332   3.714   7.475  1.9628 -1.0543 -0.6027
   41CHL1   C14 2976   6.311   3.876   7.610  0.2353 -0.0738  0.0156
   41CHL1   H14 2977   6.306   3.987   7.603 -1.4247 -0.2059 -1.2220
   41CHL1   C15 2978   6.395   3.851   7.726  0.0798 -0.4910  0.0333
   41CHL1  H15A 2979   6.407   3.741   7.735  1.4338 -0.6496 -3.1708
   41CHL1  H15B 2980   6.494   3.902   7.726  1.1745 -2.5491  0.9994
   41CHL1   C16 2981   6.311   3.895   7.842 -0.7805  0.1708 -0.3159
   41CHL1  H16A 2982   6.311   3.819   7.923 -2.3521  0.6705  0.1752
   41CHL1  H16B 2983   6.348   3.992   7.882 -3.1318  0.5930  0.9183
   41CHL1   C17 2984   6.168   3.923   7.789 -0.7289  0.0286 -0.4184
   41CHL1   H17 2985   6.162   4.028   7.752 -3.5923  0.3795  0.8747
   41CHL1   C13 2986   6.165   3.844   7.656 -0.4709  0.2421 -0.4826
   41CHL1   C18 2987   6.159   3.691   7.668  0.5217  0.1636 -0.4092
   41CHL1  H18A 2988   6.191   3.632   7.579  0.0735  0.7394 -0.9581
   41CHL1  H18B 2989   6.219   3.652   7.752  0.6312 -0.3900 -0.7438
   41CHL1  H18C 2990   6.055   3.668   7.699  0.5743  1.4980  0.8146
   41CHL1   C12 2991   6.060   3.887   7.550  0.1370  0.5636  0.0794
   41CHL1  H12A 2992   5.953   3.862   7.564 -0.2116  1.4583 -0.9203
   41CHL1  H12B 2993   6.066   3.998   7.551 -0.8023  0.6168  2.4442
   41CHL1   C11 2994   6.105   3.837   7.406  0.5878 -0.3583 -0.3313
   41CHL1  H11A 2995   6.104   3.727   7.414 -2.8714 -0.2961  0.6761
   41CHL1  H11B 2996   6.037   3.872   7.326 -0.1541  0.2649  0.5625
   41CHL1    C9 2997   6.248   3.878   7.368  0.2292 -0.1504 -0.7297
   41CHL1    H9 2998   6.251   3.989   7.362  1.2910 -0.1379 -0.1709
   41CHL1   C10 2999   6.297   3.837   7.222 -0.5638  0.3313 -0.5609
   41CHL1   C19 3000   6.245   3.693   7.199  0.1036 -0.2843 -0.1563
   41CHL1  H19A 3001   6.136   3.674   7.209  0.5054 -3.5543 -1.4121
   41CHL1  H19B 3002   6.254   3.659   7.093  0.4618 -1.6837  0.3215
   41CHL1  H19C 3003   6.306   3.624   7.260  1.4295  0.0649 -1.0693
   41CHL1    C1 3004   6.240   3.940   7.120 -0.4762  0.1847  0.2148
   41CHL1   H1A 3005   6.130   3.940   7.133 -0.3568  0.3755  1.2662
   41CHL1   H1B 3006   6.277   4.039   7.154  0.8703 -0.8430  1.8744
   41CHL1    C2 3007   6.279   3.925   6.969  0.1957  0.1231 -0.1533
   41CHL1   H2A 3008   6.247   4.022   6.926  1.8576  1.2839  1.1423
   41CHL1   H2B 3009   6.235   3.830   6.931  0.1377  0.0999 -0.0283
   41CHL1   C20 3010   6.060   3.887   7.889 -0.0891 -0.1282  0.3598
   41CHL1   H20 3011   6.061   3.779   7.912 -0.1408 -0.5185 -1.4691
   41CHL1   C21 3012   5.922   3.918   7.828  0.4223  0.3973  0.2833
   41CHL1  H21A 3013   5.923   4.023   7.791  1.8113 -0.5632 -2.5750
   41CHL1  H21B 3014   5.844   3.919   7.907  0.2242 -0.5900  0.1035
   41CHL1  H21C 3015   5.899   3.841   7.752  1.6099 -1.6583  1.9595
   41CHL1   C22 3016   6.076   3.967   8.020 -0.9188 -0.3766  0.0357
   41CHL1  H22A 3017   5.992   3.931   8.084  0.1011 -2.5538  0.2121
   41CHL1  H22B 3018   6.171   3.940   8.071 -0.7855 -3.3868 -1.7055
   41CHL1   C23 3019   6.071   4.116   8.003  0.5961 -0.1183 -0.2642
   41CHL1  H23A 3020   6.142   4.157   7.928  2.7532 -1.3100  1.0767
   41CHL1  H23B 3021   5.974   4.150   7.960  0.2972  1.2654  1.4303
   41CHL1   C24 3022   6.109   4.185   8.133 -0.3459  0.2171 -0.0047
   41CHL1  H24A 3023   6.059   4.133   8.218 -0.6157  1.2976  0.5134
   41CHL1  H24B 3024   6.219   4.181   8.142 -0.3489 -0.3249 -0.2291
   41CHL1   C25 3025   6.082   4.338   8.142  0.1359 -0.8470  0.0340
   41CHL1   H25 3026   5.973   4.359   8.134  0.2658 -0.7074 -1.5245
   41CHL1   C26 3027   6.118   4.385   8.282 -0.3276 -0.7537  0.8583
   41CHL1  H26A 3028   6.227   4.379   8.303  0.0355  0.5399 -0.5782
   41CHL1  H26B 3029   6.091   4.491   8.301 -1.2162 -0.2937 -2.5641
   41CHL1  H26C 3030   6.060   4.322   8.352 -2.5116  0.4197  0.1512
   41CHL1   C27 3031   6.155   4.419   8.046  0.0932  0.0416 -0.2527
   41CHL1  H27A 3032   6.115   4.410   7.943 -1.1083 -0.5772  0.2619
   41CHL1  H27B 3033   6.151   4.526   8.075  0.3408  0.4440 -1.6188
   41CHL1  H27C 3034   6.262   4.389   8.043 -0.5463 -2.5884  1.7185
   42CHL1    C3 3035   1.026   0.833   6.962 -0.2381 -0.4746 -0.0559
   42CHL1    H3 3036   0.955   0.749   6.943  0.7432 -1.2252 -0.4644
   42CHL1    O3 3037   1.066   0.903   6.846 -0.1817 -0.6690  0.2795
   42CHL1   H3' 3038   1.135   0.965   6.871 -0.0420  0.3164 -2.3937
   42CHL1    C4 3039   0.950   0.921   7.061 -0.0742 -0.1877  0.3715
   42CHL1   H4A 3040   1.020   1.004   7.080  2.0975 -1.0009 -3.4538
   42CHL1   H4B 3041   0.858   0.962   7.014 -0.7154 -1.0085  0.8786
   42CHL1    C5 3042   0.932   0.861   7.199  0.0533  0.8173  0.5777
   42CHL1    C6 3043   0.809   0.861   7.250 -0.1965  0.9785 -0.5463
   42CHL1    H6 3044   0.729   0.905   7.189 -0.9877  2.2689  1.3619
   42CHL1    C7 3045   0.775   0.814   7.388 -0.0727  0.1140  0.8810
   42CHL1   H7A 3046   0.713   0.886   7.445  0.9230  2.3853 -0.8334
   42CHL1   H7B 3047   0.717   0.719   7.381  0.0265 -0.0836  2.7119
   42CHL1    C8 3048   0.906   0.784   7.473  0.3717  0.5985 -0.3479
   42CHL1    H8 3049   0.949   0.877   7.515  0.2543  0.4477  0.1016
   42CHL1   C14 3050   0.866   0.706   7.598  0.4064  0.2997  0.3886
   42CHL1   H14 3051   0.827   0.610   7.558  2.1033  0.4672 -1.7853
   42CHL1   C15 3052   0.747   0.753   7.688 -0.2160 -0.3998 -0.9299
   42CHL1  H15A 3053   0.743   0.863   7.698  1.8814 -0.5429  2.1823
   42CHL1  H15B 3054   0.658   0.707   7.640 -0.6498  0.1297 -0.6350
   42CHL1   C16 3055   0.781   0.689   7.825  0.3022  0.4318  0.1094
   42CHL1  H16A 3056   0.807   0.772   7.895 -0.2983 -1.2494  2.3791
   42CHL1  H16B 3057   0.688   0.643   7.863  0.1583 -1.3001 -2.2175
   42CHL1   C17 3058   0.905   0.597   7.806  0.4302 -0.0812 -1.0322
   42CHL1   H17 3059   0.873   0.496   7.773  2.4123 -1.3955  0.9432
   42CHL1   C13 3060   0.981   0.662   7.688  0.2861 -0.0091 -0.4170
   42CHL1   C18 3061   1.071   0.786   7.740  0.5144  1.0041 -0.1299
   42CHL1  H18A 3062   1.016   0.846   7.816 -0.0152  1.1904 -0.6554
   42CHL1  H18B 3063   1.167   0.752   7.783  0.4250 -0.5147 -1.0827
   42CHL1  H18C 3064   1.102   0.855   7.659  0.3176  0.1732 -0.9237
   42CHL1   C12 3065   1.074   0.571   7.611 -0.5013  0.1259  0.3153
   42CHL1  H12A 3066   1.163   0.539   7.669 -0.3697  0.8569  0.5193
   42CHL1  H12B 3067   1.009   0.487   7.580 -0.1340  0.1406 -0.5091
   42CHL1   C11 3068   1.125   0.644   7.479 -0.4953 -0.0793 -0.3554
   42CHL1  H11A 3069   1.193   0.724   7.516 -0.3953  0.6179 -1.9801
   42CHL1  H11B 3070   1.179   0.578   7.406 -0.4160 -0.2580 -0.1356
   42CHL1    C9 3071   1.005   0.700   7.387 -0.2196  0.0693  0.3672
   42CHL1    H9 3072   0.949   0.614   7.343 -0.2535  0.1634  0.2272
   42CHL1   C10 3073   1.049   0.788   7.265  0.3414  0.2774 -0.0579
   42CHL1   C19 3074   1.130   0.904   7.312  0.2712 -0.6928  0.0967
   42CHL1  H19A 3075   1.227   0.872   7.356  0.7806  1.1333  0.3274
   42CHL1  H19B 3076   1.166   0.970   7.230  1.3699 -0.7033  0.5634
   42CHL1  H19C 3077   1.076   0.973   7.380 -1.0863 -0.9273 -0.7158
   42CHL1    C1 3078   1.124   0.707   7.164 -1.0697  0.7602 -0.5180
   42CHL1   H1A 3079   1.212   0.656   7.209 -1.2227 -0.2605 -1.3551
   42CHL1   H1B 3080   1.049   0.629   7.140  0.3073 -1.4238  1.9962
   42CHL1    C2 3081   1.154   0.775   7.028 -0.3308  0.0799  0.3350
   42CHL1   H2A 3082   1.207   0.705   6.960  0.8358  0.1889  1.1173
   42CHL1   H2B 3083   1.231   0.852   7.050 -0.2506 -0.4240  1.8866
   42CHL1   C20 3084   0.988   0.577   7.939 -0.0402 -0.0771 -0.7159
   42CHL1   H20 3085   1.007   0.673   7.993 -2.3126  0.1330 -0.2274
   42CHL1   C21 3086   1.124   0.502   7.925 -0.6087 -0.0297  0.6376
   42CHL1  H21A 3087   1.129   0.404   7.872 -0.1073  1.3150 -1.9056
   42CHL1  H21B 3088   1.171   0.494   8.026  0.6908 -1.5212 -0.0555
   42CHL1  H21C 3089   1.193   0.564   7.863 -2.7012  0.1276 -1.6155
   42CHL1   C22 3090   0.899   0.493   8.040 -0.5884  0.4143 -0.2575
   42CHL1  H22A 3091   0.801   0.545   8.047 -0.0909  1.4307 -0.7797
   42CHL1  H22B 3092   0.892   0.392   7.994 -2.2071 -0.0738  1.0079
   42CHL1   C23 3093   0.949   0.469   8.179 -0.6172  1.0378 -0.0147
   42CHL1  H23A 3094   1.036   0.399   8.181 -0.0057  1.8253  1.8616
   42CHL1  H23B 3095   0.985   0.567   8.216  0.2480  0.8887 -0.4260
   42CHL1   C24 3096   0.846   0.400   8.271 -0.4796 -0.6286 -0.9002
   42CHL1  H24A 3097   0.896   0.401   8.370 -1.1624  2.7426 -0.5300
   42CHL1  H24B 3098   0.767   0.477   8.284 -0.9514 -1.2171 -0.2537
   42CHL1   C25 3099   0.801   0.260   8.215 -1.1483  0.4659 -0.5476
   42CHL1   H25 3100   0.745   0.278   8.121 -0.5285 -1.4876 -1.3096
   42CHL1   C26 3101   0.906   0.152   8.206 -1.0334  0.0675 -0.3134
   42CHL1  H26A 3102   0.983   0.170   8.129 -0.1115 -0.1776  0.5375
   42CHL1  H26B 3103   0.964   0.151   8.301 -1.1556 -0.3964 -0.2420
   42CHL1  H26C 3104   0.857   0.053   8.196 -3.7867  1.3240  0.3527
   42CHL1   C27 3105   0.688   0.219   8.321  0.4456  0.3191 -0.6380
   42CHL1  H27A 3106   0.738   0.200   8.418  0.2418  2.7082 -0.0243
   42CHL1  H27B 3107   0.634   0.126   8.292  1.4979 -0.9160  1.2765
   42CHL1  H27C 3108   0.617   0.299   8.353  2.2306  0.8575  2.1159
   43CHL1    C3 3109   1.017   4.907   6.763 -0.3638  0.4352 -0.3389
   43CHL1    H3 3110   0.999   5.014   6.736 -2.1722  0.7824  2.1016
   43CHL1    O3 3111   1.081   4.839   6.656 -0.6120  0.2251 -0.0748
   43CHL1   H3' 3112   1.085   4.749   6.689 -1.1340  0.2765  0.1432
   43CHL1    C4 3113   1.112   4.906   6.883  0.2058 -0.0930 -0.1160
   43CHL1   H4A 3114   1.159   4.806   6.891 -0.1109 -0.2185  0.2004
   43CHL1   H4B 3115   1.199   4.971   6.860  1.9282 -2.7620 -1.2385
   43CHL1    C5 3116   1.051   4.937   7.016 -0.8458 -0.5869  0.0065
   43CHL1    C6 3117   1.118   5.026   7.095 -0.7942 -0.4312  0.4381
   43CHL1    H6 3118   1.215   5.056   7.052 -1.3163  0.7165  0.0438
   43CHL1    C7 3119   1.081   5.066   7.234 -0.2147 -0.0197 -0.3444
   43CHL1   H7A 3120   1.169   5.066   7.303 -0.5574  0.8155  0.0990
   43CHL1   H7B 3121   1.034   5.166   7.245 -1.8001 -0.8565  0.7282
   43CHL1    C8 3122   0.971   4.957   7.287  0.0739  0.1459  0.3812
   43CHL1    H8 3123   1.012   4.857   7.311  0.6827 -0.0128 -1.2606
   43CHL1   C14 3124   0.904   5.013   7.409 -0.8755  0.7712 -0.5732
   43CHL1   H14 3125   0.841   5.099   7.376 -1.1864  0.9891  0.5450
   43CHL1   C15 3126   0.990   5.080   7.524  0.3843  0.3578  0.6332
   43CHL1  H15A 3127   1.081   5.016   7.533 -0.0844 -0.2894  0.8415
   43CHL1  H15B 3128   1.017   5.182   7.490 -1.9014  0.4754 -0.9425
   43CHL1   C16 3129   0.899   5.090   7.648  0.4828  0.5792  0.2337
   43CHL1  H16A 3130   0.953   5.058   7.739 -1.5519  1.6783  1.8842
   43CHL1  H16B 3131   0.868   5.195   7.667  1.0268  0.9652 -0.9672
   43CHL1   C17 3132   0.764   5.006   7.603  1.0562 -0.5141 -0.0712
   43CHL1   H17 3133   0.691   5.081   7.566  1.3319  1.0050  2.3533
   43CHL1   C13 3134   0.806   4.925   7.479 -0.4627 -0.3026 -0.3806
   43CHL1   C18 3135   0.877   4.796   7.518  0.1029 -0.7507 -0.6992
   43CHL1  H18A 3136   0.925   4.740   7.434  1.9442 -0.5818  0.1968
   43CHL1  H18B 3137   0.965   4.818   7.582 -0.5121  0.8136 -0.3850
   43CHL1  H18C 3138   0.811   4.717   7.560  0.0674 -1.4922 -2.1043
   43CHL1   C12 3139   0.694   4.895   7.381  0.0760 -0.5462  0.0580
   43CHL1  H12A 3140   0.624   4.814   7.411  1.0243 -1.5242 -0.3465
   43CHL1  H12B 3141   0.632   4.983   7.353 -0.5049 -0.4329  1.6603
   43CHL1   C11 3142   0.743   4.842   7.241  0.6979 -0.1165  0.0840
   43CHL1  H11A 3143   0.775   4.738   7.262  1.9467  0.5453  1.6446
   43CHL1  H11B 3144   0.668   4.832   7.161  1.3227  1.2093 -0.6858
   43CHL1    C9 3145   0.863   4.925   7.178  0.0599  0.0309 -0.0040
   43CHL1    H9 3146   0.820   5.024   7.152 -1.2865 -0.2338  1.1818
   43CHL1   C10 3147   0.923   4.864   7.050 -0.6036  0.2313  0.1523
   43CHL1   C19 3148   0.954   4.712   7.065  0.0085 -0.7759  0.7597
   43CHL1  H19A 3149   0.859   4.659   7.088 -1.6698  1.5522 -0.6075
   43CHL1  H19B 3150   0.991   4.667   6.971 -1.0628 -0.0471 -0.0253
   43CHL1  H19C 3151   1.024   4.682   7.147  1.3535 -0.2576 -0.1729
   43CHL1    C1 3152   0.817   4.888   6.931  0.6119 -0.6879  0.1921
   43CHL1   H1A 3153   0.723   4.829   6.936 -0.3068  0.6407 -0.9470
   43CHL1   H1B 3154   0.782   4.994   6.930 -0.3660 -1.0149 -1.3454
   43CHL1    C2 3155   0.881   4.843   6.791  0.5884 -0.1624 -0.1565
   43CHL1   H2A 3156   0.801   4.876   6.722  0.8904  1.2094  0.1404
   43CHL1   H2B 3157   0.898   4.733   6.784  2.7627  0.2004 -1.1296
   43CHL1   C20 3158   0.696   4.931   7.727  0.2497  0.4083 -0.3429
   43CHL1   H20 3159   0.766   4.847   7.748 -0.6915 -0.5484 -0.9766
   43CHL1   C21 3160   0.567   4.873   7.690  0.0251 -0.1596 -0.5038
   43CHL1  H21A 3161   0.570   4.826   7.590  1.9021  1.3586 -1.1938
   43CHL1  H21B 3162   0.488   4.951   7.680  0.1555  0.4360  2.5020
   43CHL1  H21C 3163   0.532   4.800   7.766  2.1165 -1.0143 -0.3176
   43CHL1   C22 3164   0.686   5.027   7.848 -0.0326 -0.7369  0.3440
   43CHL1  H22A 3165   0.785   5.051   7.892 -0.1433  1.3867 -0.5093
   43CHL1  H22B 3166   0.639   5.121   7.812 -1.0240 -0.4962  2.2185
   43CHL1   C23 3167   0.596   4.974   7.959 -0.9514 -0.3311 -0.4033
   43CHL1  H23A 3168   0.493   4.964   7.918 -1.0424 -0.0400 -0.2479
   43CHL1  H23B 3169   0.623   4.868   7.978  1.1134  0.7959  3.3429
   43CHL1   C24 3170   0.610   5.059   8.087  0.6141  0.1755 -0.0112
   43CHL1  H24A 3171   0.713   5.032   8.116  0.1563 -0.9140  0.6157
   43CHL1  H24B 3172   0.604   5.170   8.075  2.2648  0.4754  1.7138
   43CHL1   C25 3173   0.510   5.031   8.206 -0.3674  0.3912 -0.2204
   43CHL1   H25 3174   0.539   4.928   8.235  0.2651  0.3162 -1.1150
   43CHL1   C26 3175   0.538   5.117   8.339 -0.1280 -0.0395 -0.4631
   43CHL1  H26A 3176   0.493   5.219   8.335 -0.4116 -0.1821 -0.8803
   43CHL1  H26B 3177   0.490   5.057   8.419  2.5828 -1.1016  0.4510
   43CHL1  H26C 3178   0.647   5.109   8.358 -0.6896  0.3732  3.3411
   43CHL1   C27 3179   0.359   5.027   8.175  0.8998 -0.3481 -0.3154
   43CHL1  H27A 3180   0.316   5.127   8.152  1.1772 -0.6261 -2.1090
   43CHL1  H27B 3181   0.329   4.954   8.097  0.5718  0.1906 -0.6899
   43CHL1  H27C 3182   0.307   4.990   8.267  1.3086  2.2047  0.9754
   44CHL1    C3 3183   0.620   3.584   6.703  0.6369 -0.2661 -0.7228
   44CHL1    H3 3184   0.684   3.668   6.737 -0.1661 -0.2532  0.8312
   44CHL1    O3 3185   0.624   3.572   6.558  0.0180 -0.1556  0.0929
   44CHL1   H3' 3186   0.562   3.501   6.543 -0.2692  0.0067  0.4941
   44CHL1    C4 3187   0.670   3.452   6.759  0.0196  0.0259 -0.8260
   44CHL1   H4A 3188   0.599   3.378   6.718 -0.5734  1.6704 -2.8694
   44CHL1   H4B 3189   0.766   3.415   6.717 -0.4040 -2.3340  0.2190
   44CHL1    C5 3190   0.669   3.454   6.908  0.0743  0.4462 -0.4754
   44CHL1    C6 3191   0.780   3.435   6.977  0.4075  0.1042  0.6577
   44CHL1    H6 3192   0.871   3.422   6.917 -1.3649 -2.3867 -1.6057
   44CHL1    C7 3193   0.785   3.436   7.126 -0.7112 -0.4365 -0.4875
   44CHL1   H7A 3194   0.842   3.346   7.158 -1.4107 -1.5694 -2.3324
   44CHL1   H7B 3195   0.840   3.527   7.157 -0.8100 -0.8731  1.0108
   44CHL1    C8 3196   0.646   3.442   7.191 -0.1379 -0.8647 -0.4142
   44CHL1    H8 3197   0.611   3.337   7.197  1.5504 -1.3483  1.3057
   44CHL1   C14 3198   0.651   3.495   7.333 -0.5327 -0.1244  0.2427
   44CHL1   H14 3199   0.688   3.599   7.323 -0.2265 -0.4270 -2.1632
   44CHL1   C15 3200   0.762   3.446   7.425 -0.3992  0.4468  0.3453
   44CHL1  H15A 3201   0.772   3.336   7.418 -0.0402  0.5153 -0.2652
   44CHL1  H15B 3202   0.860   3.483   7.388  0.3138  0.4538  2.1625
   44CHL1   C16 3203   0.724   3.495   7.557  0.0132 -0.0381  0.0980
   44CHL1  H16A 3204   0.751   3.434   7.646  0.8673  1.5094  0.9153
   44CHL1  H16B 3205   0.785   3.584   7.582  0.8718 -0.2154 -1.3120
   44CHL1   C17 3206   0.572   3.530   7.554 -0.0482  0.0200 -0.2266
   44CHL1   H17 3207   0.575   3.641   7.550  2.4128  0.0869  2.0033
   44CHL1   C13 3208   0.526   3.480   7.419  0.1943  0.1666  0.0338
   44CHL1   C18 3209   0.498   3.328   7.444  0.6521  0.4916 -0.2510
   44CHL1  H18A 3210   0.476   3.267   7.354 -1.2584 -0.0631  0.5505
   44CHL1  H18B 3211   0.579   3.275   7.497 -0.2290 -1.1623 -0.5382
   44CHL1  H18C 3212   0.415   3.327   7.518 -0.1702 -0.6428 -1.1802
   44CHL1   C12 3213   0.419   3.548   7.350  0.2745  0.1528  0.1874
   44CHL1  H12A 3214   0.316   3.535   7.391 -0.2948 -1.4664 -1.6640
   44CHL1  H12B 3215   0.427   3.659   7.346 -1.2474  0.2817  0.2838
   44CHL1   C11 3216   0.401   3.506   7.199  0.0028 -0.2407 -0.1431
   44CHL1  H11A 3217   0.369   3.399   7.196 -2.7476  0.4928  1.4811
   44CHL1  H11B 3218   0.328   3.575   7.153 -0.6464 -1.0836 -0.3844
   44CHL1    C9 3219   0.534   3.517   7.120 -1.6070 -0.1481  0.0865
   44CHL1    H9 3220   0.567   3.622   7.130  3.0745 -1.6092  1.4455
   44CHL1   C10 3221   0.524   3.492   6.974 -0.2935 -0.2702  0.1139
   44CHL1   C19 3222   0.455   3.355   6.949 -0.4854  0.2940 -0.0427
   44CHL1  H19A 3223   0.432   3.338   6.842  2.2516  0.3004 -0.6596
   44CHL1  H19B 3224   0.509   3.270   6.996  1.7421  1.2892 -0.7753
   44CHL1  H19C 3225   0.355   3.348   6.998 -0.7494 -0.8088 -0.7021
   44CHL1    C1 3226   0.464   3.614   6.904  0.1146  0.8216 -0.4469
   44CHL1   H1A 3227   0.357   3.615   6.936  0.2497  1.6323 -0.0235
   44CHL1   H1B 3228   0.517   3.701   6.948 -2.8521  2.6252 -0.2949
   44CHL1    C2 3229   0.475   3.616   6.748 -0.2216  0.4906 -0.2526
   44CHL1   H2A 3230   0.439   3.714   6.710  1.9722  1.3144 -0.2668
   44CHL1   H2B 3231   0.407   3.533   6.718  0.3759 -0.9371  2.1348
   44CHL1   C20 3232   0.499   3.490   7.684  0.3577  0.3599 -0.4044
   44CHL1   H20 3233   0.500   3.380   7.700 -2.1783  0.2121 -1.1071
   44CHL1   C21 3234   0.351   3.545   7.676 -0.0194 -0.0218  0.0762
   44CHL1  H21A 3235   0.301   3.521   7.772  2.0021 -3.7945  0.2620
   44CHL1  H21B 3236   0.303   3.485   7.596  0.4294 -3.1556  2.0589
   44CHL1  H21C 3237   0.346   3.656   7.665  1.0729  0.1418  1.1062
   44CHL1   C22 3238   0.570   3.549   7.806 -0.9108  0.0589  0.7146
   44CHL1  H22A 3239   0.680   3.560   7.801 -0.8745 -0.2047  0.9230
   44CHL1  H22B 3240   0.529   3.652   7.817 -0.3119  0.1213  2.6428
   44CHL1   C23 3241   0.533   3.472   7.930 -0.1042 -0.6445  0.0457
   44CHL1  H23A 3242   0.422   3.478   7.933 -0.1603  1.5627 -3.3791
   44CHL1  H23B 3243   0.563   3.365   7.922 -2.0096 -1.2368  0.6580
   44CHL1   C24 3244   0.598   3.542   8.051 -0.0017 -0.3903 -0.8483
   44CHL1  H24A 3245   0.697   3.582   8.019 -1.1261  1.6292 -1.8495
   44CHL1  H24B 3246   0.548   3.637   8.077  0.4665  0.0086 -1.3834
   44CHL1   C25 3247   0.602   3.469   8.186  0.1627  0.0381  0.6205
   44CHL1   H25 3248   0.496   3.439   8.204  0.2925 -0.4226  0.6235
   44CHL1   C26 3249   0.699   3.358   8.204  0.7312  0.0782  0.5047
   44CHL1  H26A 3250   0.703   3.329   8.311 -0.6793 -0.3068  0.4588
   44CHL1  H26B 3251   0.660   3.275   8.141 -0.3972  1.0880 -0.1507
   44CHL1  H26C 3252   0.799   3.398   8.175  0.7697  1.5423  2.5486
   44CHL1   C27 3253   0.625   3.575   8.296 -0.4711  0.3603  0.0879
   44CHL1  H27A 3254   0.716   3.631   8.266  0.7870 -1.3913  0.5727
   44CHL1  H27B 3255   0.533   3.638   8.295 -0.2655  0.7521  2.4737
   44CHL1  H27C 3256   0.651   3.529   8.394 -1.3806 -2.2667 -0.8625
   45CHL1    C3 3257   2.597   1.292   6.675  0.5405 -0.6282 -0.9789
   45CHL1    H3 3258   2.494   1.330   6.659  0.4557 -0.0222  0.8252
   45CHL1    O3 3259   2.656   1.272   6.549  0.6283  0.2848 -0.1366
   45CHL1   H3' 3260   2.740   1.235   6.577 -0.5930 -1.8448  0.7934
   45CHL1    C4 3261   2.685   1.386   6.764 -0.1402  0.3047  0.4628
   45CHL1   H4A 3262   2.784   1.335   6.765  0.0440  0.6424 -0.1950
   45CHL1   H4B 3263   2.699   1.484   6.713  0.6303 -1.4944 -2.9042
   45CHL1    C5 3264   2.620   1.415   6.894 -0.5913 -0.8796  0.1566
   45CHL1    C6 3265   2.586   1.540   6.923 -0.3679  0.1969  0.3800
   45CHL1    H6 3266   2.603   1.611   6.841 -0.6375 -2.2080 -1.8335
   45CHL1    C7 3267   2.526   1.581   7.054 -0.4815  0.3286  0.2982
   45CHL1   H7A 3268   2.589   1.663   7.092  2.7295 -2.2106  0.6671
   45CHL1   H7B 3269   2.423   1.621   7.040 -0.8894 -0.4971  0.8592
   45CHL1    C8 3270   2.533   1.468   7.161 -0.4538  0.7521  0.1166
   45CHL1    H8 3271   2.638   1.463   7.197 -0.4680 -1.3563 -0.1067
   45CHL1   C14 3272   2.446   1.499   7.284  0.1838  0.4635 -0.9810
   45CHL1   H14 3273   2.342   1.493   7.245  0.3212  1.4931 -1.5284
   45CHL1   C15 3274   2.466   1.627   7.357 -0.0916 -0.7077 -0.1498
   45CHL1  H15A 3275   2.572   1.648   7.382 -0.1524  0.6626 -1.0182
   45CHL1  H15B 3276   2.422   1.718   7.311 -0.5104 -0.9524 -0.2333
   45CHL1   C16 3277   2.397   1.609   7.494  0.1380  0.0216  0.1362
   45CHL1  H16A 3278   2.470   1.641   7.572  0.4626 -0.5572  0.0801
   45CHL1  H16B 3279   2.302   1.666   7.502 -0.0635 -0.3915  0.8089
   45CHL1   C17 3280   2.360   1.458   7.501  0.0996  0.0571 -0.0645
   45CHL1   H17 3281   2.260   1.455   7.452  1.1386 -1.1331 -2.1972
   45CHL1   C13 3282   2.446   1.392   7.392 -0.7221  0.6779  0.9703
   45CHL1   C18 3283   2.590   1.378   7.446 -0.1908  0.1171 -0.1798
   45CHL1  H18A 3284   2.622   1.471   7.497 -2.4828 -0.0169  1.5823
   45CHL1  H18B 3285   2.595   1.293   7.517  2.8956 -0.9267 -1.5575
   45CHL1  H18C 3286   2.660   1.352   7.364 -1.3499  0.3231 -1.2523
   45CHL1   C12 3287   2.386   1.262   7.328 -0.1471 -0.6624 -0.3241
   45CHL1  H12A 3288   2.375   1.181   7.403 -4.2431 -0.1480 -0.2547
   45CHL1  H12B 3289   2.283   1.273   7.288 -0.4628 -2.5025 -0.0809
   45CHL1   C11 3290   2.479   1.221   7.212  0.4408  0.2049 -0.2415
   45CHL1  H11A 3291   2.584   1.215   7.250  0.1406 -3.4977  0.1592
   45CHL1  H11B 3292   2.443   1.124   7.172 -2.6125  1.2504 -0.1023
   45CHL1    C9 3293   2.496   1.332   7.102 -0.1700 -0.1763  0.0090
   45CHL1    H9 3294   2.398   1.344   7.051  0.6138 -1.8910 -1.9614
   45CHL1   C10 3295   2.589   1.291   6.982 -0.4075 -0.2250  0.2936
   45CHL1   C19 3296   2.723   1.236   7.041  0.8412  0.6711  0.3278
   45CHL1  H19A 3297   2.698   1.137   7.085 -1.3280  1.3895  0.7449
   45CHL1  H19B 3298   2.807   1.234   6.968  0.7209 -0.2224  0.2034
   45CHL1  H19C 3299   2.742   1.288   7.137 -2.2929  0.9714  0.8252
   45CHL1    C1 3300   2.512   1.189   6.890  0.6142 -0.2157  0.1759
   45CHL1   H1A 3301   2.488   1.098   6.950 -2.2630  0.9954  0.9743
   45CHL1   H1B 3302   2.413   1.232   6.866  0.1486 -0.5775  1.3928
   45CHL1    C2 3303   2.585   1.156   6.758 -0.0467 -0.1153  0.0132
   45CHL1   H2A 3304   2.531   1.083   6.694 -0.4542  1.0931 -1.0362
   45CHL1   H2B 3305   2.683   1.112   6.786  0.1915  0.4702  0.1117
   45CHL1   C20 3306   2.338   1.388   7.627 -0.1165  0.0768 -0.1036
   45CHL1   H20 3307   2.358   1.281   7.607 -0.6157 -0.2655  1.1494
   45CHL1   C21 3308   2.195   1.411   7.676  0.0802 -0.3746 -0.2291
   45CHL1  H21A 3309   2.172   1.354   7.769  1.7003 -0.9641 -0.1842
   45CHL1  H21B 3310   2.127   1.364   7.602 -3.0920  0.1168  2.2390
   45CHL1  H21C 3311   2.178   1.520   7.690 -1.8617 -0.6630 -0.1890
   45CHL1   C22 3312   2.431   1.429   7.743  0.0450  0.1334 -0.0525
   45CHL1  H22A 3313   2.527   1.473   7.706 -0.1620  1.9657  1.5171
   45CHL1  H22B 3314   2.398   1.513   7.807  1.0194 -1.1926  2.2734
   45CHL1   C23 3315   2.458   1.303   7.829 -0.3908 -0.7389 -0.5161
   45CHL1  H23A 3316   2.360   1.258   7.852 -0.8472 -1.2201 -3.2237
   45CHL1  H23B 3317   2.536   1.248   7.772  4.1334  3.2879  1.3648
   45CHL1   C24 3318   2.522   1.341   7.961  0.5245 -0.1324  0.8171
   45CHL1  H24A 3319   2.629   1.368   7.945  0.3884  1.4364  2.3806
   45CHL1  H24B 3320   2.463   1.427   8.000 -1.1555 -0.6692 -0.5090
   45CHL1   C25 3321   2.527   1.223   8.059  0.3888  0.5690 -0.3372
   45CHL1   H25 3322   2.600   1.150   8.019 -1.3126 -0.1386 -2.2016
   45CHL1   C26 3323   2.593   1.276   8.190 -0.2706  0.8137  0.1911
   45CHL1  H26A 3324   2.526   1.355   8.230  1.6464  2.3252  0.4616
   45CHL1  H26B 3325   2.616   1.193   8.261 -3.2979 -1.3427 -1.2358
   45CHL1  H26C 3326   2.691   1.318   8.160 -1.1018  0.8396 -2.6125
   45CHL1   C27 3327   2.400   1.146   8.093  0.5045  1.2091 -0.7319
   45CHL1  H27A 3328   2.421   1.045   8.134 -1.2606  0.9429 -0.4346
   45CHL1  H27B 3329   2.338   1.209   8.161  0.6269  1.0618 -0.4817
   45CHL1  H27C 3330   2.339   1.136   8.001 -0.9477  0.3299  0.3128
   46CHL1    C3 3331   1.431   2.903   7.030  0.8272 -0.6128  0.5318
   46CHL1    H3 3332   1.370   2.993   7.054  0.4106 -0.1406 -2.1150
   46CHL1    O3 3333   1.468   2.905   6.894 -0.4854 -0.4297 -0.0588
   46CHL1   H3' 3334   1.409   2.835   6.866  0.0431 -1.0328  0.3176
   46CHL1    C4 3335   1.561   2.910   7.103  0.1052  0.0302  0.4741
   46CHL1   H4A 3336   1.623   2.820   7.082 -1.7824 -1.1465 -0.2206
   46CHL1   H4B 3337   1.614   2.995   7.055  0.3648  0.3214  1.2842
   46CHL1    C5 3338   1.536   2.918   7.250  0.4370 -0.6557  0.3714
   46CHL1    C6 3339   1.587   3.021   7.315 -0.2463  1.1904  0.0729
   46CHL1    H6 3340   1.652   3.094   7.265  0.9655  0.7306  0.9420
   46CHL1    C7 3341   1.572   3.053   7.459 -0.1328  0.6550  0.1257
   46CHL1   H7A 3342   1.670   3.080   7.504 -0.1715  0.1288  0.5243
   46CHL1   H7B 3343   1.509   3.143   7.471  0.6711  1.2427 -0.0181
   46CHL1    C8 3344   1.519   2.932   7.537  0.1788  0.2486  0.3604
   46CHL1    H8 3345   1.604   2.861   7.534  0.1327  0.2298 -0.6851
   46CHL1   C14 3346   1.478   2.963   7.676 -0.5926  0.9009 -0.0548
   46CHL1   H14 3347   1.395   3.036   7.666  0.0513  1.6732  0.1246
   46CHL1   C15 3348   1.583   3.030   7.764  0.0085 -0.2442  0.1239
   46CHL1  H15A 3349   1.679   2.976   7.773 -0.0900 -0.1084  2.3214
   46CHL1  H15B 3350   1.601   3.136   7.734 -0.2742 -0.3090 -0.2713
   46CHL1   C16 3351   1.510   3.025   7.907  0.8051 -0.1222  0.0204
   46CHL1  H16A 3352   1.586   2.994   7.982  1.0638 -0.6105 -0.4444
   46CHL1  H16B 3353   1.469   3.125   7.934  0.6341 -0.3007  0.4165
   46CHL1   C17 3354   1.410   2.909   7.897  0.0558  0.7822  0.1479
   46CHL1   H17 3355   1.305   2.942   7.886 -0.8842 -2.5321 -1.5092
   46CHL1   C13 3356   1.440   2.838   7.759  0.2353  0.0394 -1.2298
   46CHL1   C18 3357   1.570   2.756   7.786 -0.0375 -0.2874 -0.0104
   46CHL1  H18A 3358   1.554   2.655   7.830 -2.5206 -1.7829 -4.0499
   46CHL1  H18B 3359   1.616   2.743   7.686  0.0523  3.1544 -0.4776
   46CHL1  H18C 3360   1.647   2.795   7.855  0.3469  0.7448 -1.0096
   46CHL1   C12 3361   1.324   2.767   7.685  0.0641 -0.4997 -1.0733
   46CHL1  H12A 3362   1.287   2.674   7.733  0.5728 -0.6891 -1.0418
   46CHL1  H12B 3363   1.246   2.846   7.692 -1.0654 -1.4803 -2.4312
   46CHL1   C11 3364   1.347   2.735   7.540 -0.1847  0.0185  0.1641
   46CHL1  H11A 3365   1.416   2.648   7.546  1.2776  1.1151 -0.2344
   46CHL1  H11B 3366   1.254   2.704   7.488 -0.7682  0.4024  0.9858
   46CHL1    C9 3367   1.412   2.856   7.462  0.3759  0.0707 -0.2510
   46CHL1    H9 3368   1.327   2.926   7.446  0.0006  0.2123  2.2188
   46CHL1   C10 3369   1.452   2.811   7.320 -0.4867  0.2076 -0.3800
   46CHL1   C19 3370   1.533   2.676   7.318  0.4619  0.6336  0.9868
   46CHL1  H19A 3371   1.479   2.586   7.357  0.7221  0.6678  1.4246
   46CHL1  H19B 3372   1.562   2.650   7.214 -2.1958 -0.2678  0.4167
   46CHL1  H19C 3373   1.631   2.679   7.369  0.9534  1.4942 -0.0151
   46CHL1    C1 3374   1.334   2.784   7.231  0.3457  0.2971  0.4846
   46CHL1   H1A 3375   1.288   2.689   7.266  1.9670 -0.4871  0.5219
   46CHL1   H1B 3376   1.263   2.867   7.252 -0.0342  0.3760 -1.0487
   46CHL1    C2 3377   1.362   2.775   7.078 -0.2243 -0.3007 -0.1994
   46CHL1   H2A 3378   1.265   2.770   7.026  0.3293  0.4627 -1.3187
   46CHL1   H2B 3379   1.425   2.685   7.060 -0.5126 -0.6154  0.3372
   46CHL1   C20 3380   1.416   2.823   8.022  0.0185 -0.4357 -0.3993
   46CHL1   H20 3381   1.516   2.778   8.041  0.0132  1.3393  4.5189
   46CHL1   C21 3382   1.321   2.709   8.009  0.5297 -1.2664  0.7732
   46CHL1  H21A 3383   1.228   2.743   7.958  2.0742  2.8382  0.5935
   46CHL1  H21B 3384   1.276   2.678   8.106 -4.3670  0.1858 -0.8828
   46CHL1  H21C 3385   1.348   2.618   7.951 -0.4115  0.0762 -1.8775
   46CHL1   C22 3386   1.369   2.911   8.147 -0.2282  0.3331 -0.0548
   46CHL1  H22A 3387   1.437   2.998   8.145  0.5751 -0.2999 -0.8504
   46CHL1  H22B 3388   1.264   2.945   8.135 -0.3534  0.4534  1.2690
   46CHL1   C23 3389   1.382   2.842   8.282  0.9087  0.1209  0.1141
   46CHL1  H23A 3390   1.282   2.803   8.309 -0.3780  2.1541 -1.5847
   46CHL1  H23B 3391   1.461   2.765   8.289 -1.4520 -2.5147 -1.4632
   46CHL1   C24 3392   1.394   2.950   8.389  0.6446  0.0793  0.2471
   46CHL1  H24A 3393   1.487   3.009   8.371  1.6866 -1.8346 -0.8355
   46CHL1  H24B 3394   1.309   3.019   8.375  0.8834  0.2499 -0.3830
   46CHL1   C25 3395   1.385   2.907   8.536 -0.8375 -0.1114  0.0165
   46CHL1   H25 3396   1.295   2.843   8.552  0.0950 -1.8851 -1.5294
   46CHL1   C26 3397   1.506   2.827   8.581 -0.2841 -0.1278 -0.0186
   46CHL1  H26A 3398   1.508   2.727   8.533 -1.6072 -0.9980  1.6446
   46CHL1  H26B 3399   1.592   2.889   8.550  2.4881 -2.8797  1.8964
   46CHL1  H26C 3400   1.505   2.815   8.692  0.1584 -1.0997 -0.1129
   46CHL1   C27 3401   1.377   3.030   8.631 -0.3551  0.2715 -0.2230
   46CHL1  H27A 3402   1.476   3.079   8.637 -0.8933  1.1870  1.7566
   46CHL1  H27B 3403   1.306   3.110   8.598  1.3983  0.8707 -2.6915
   46CHL1  H27C 3404   1.343   2.992   8.730 -1.7442  0.0588 -0.7661
   47CHL1    C3 3405   0.883   2.968   6.693  0.1632 -0.0099 -0.2933
   47CHL1    H3 3406   0.983   3.001   6.726 -0.7255  0.5378  1.9274
   47CHL1    O3 3407   0.887   2.946   6.556  0.2287 -0.5312 -0.2157
   47CHL1   H3' 3408   0.812   2.896   6.524  0.1579  1.9397 -4.2110
   47CHL1    C4 3409   0.864   2.828   6.761  0.1942  0.6235  0.4091
   47CHL1   H4A 3410   0.772   2.790   6.711 -0.5567  0.0910  2.1403
   47CHL1   H4B 3411   0.942   2.763   6.716 -0.8040 -0.4245  0.1776
   47CHL1    C5 3412   0.854   2.840   6.914  0.4435  0.3889  0.0796
   47CHL1    C6 3413   0.930   2.761   6.987 -0.7691 -0.1054 -0.1885
   47CHL1    H6 3414   1.006   2.696   6.941 -0.1769  0.6072 -0.2271
   47CHL1    C7 3415   0.928   2.757   7.139  0.7248 -0.0946 -0.4459
   47CHL1   H7A 3416   0.933   2.656   7.186 -0.3512 -0.0911 -0.2992
   47CHL1   H7B 3417   1.012   2.814   7.183 -0.6382  2.1004 -0.6202
   47CHL1    C8 3418   0.807   2.820   7.200 -0.0968  0.1566  0.8235
   47CHL1    H8 3419   0.727   2.744   7.187  0.9747 -0.7619 -0.5586
   47CHL1   C14 3420   0.830   2.862   7.337  0.0062 -0.3999 -0.6064
   47CHL1   H14 3421   0.890   2.956   7.336 -3.1730  1.7151  1.0514
   47CHL1   C15 3422   0.909   2.766   7.429  0.3923  0.3213  0.6951
   47CHL1  H15A 3423   0.881   2.660   7.416  0.6949  0.3951 -0.6712
   47CHL1  H15B 3424   1.013   2.772   7.388  0.6054 -0.8300  1.0599
   47CHL1   C16 3425   0.886   2.821   7.573  0.5042 -0.0883 -0.0212
   47CHL1  H16A 3426   0.862   2.740   7.645  1.3413  0.9455  1.4376
   47CHL1  H16B 3427   0.979   2.875   7.600  2.6724 -4.0797  0.8332
   47CHL1   C17 3428   0.775   2.932   7.557  0.9200  0.3303  0.0865
   47CHL1   H17 3429   0.825   3.031   7.551  1.6886 -0.1686 -1.9561
   47CHL1   C13 3430   0.711   2.903   7.418  0.3120  0.4633 -0.3550
   47CHL1   C18 3431   0.604   2.796   7.432 -0.8419 -0.4669 -0.3833
   47CHL1  H18A 3432   0.632   2.711   7.498 -1.7957  1.2196  2.2702
   47CHL1  H18B 3433   0.509   2.830   7.480 -0.0772 -1.4002  1.8760
   47CHL1  H18C 3434   0.578   2.755   7.332 -0.1566  0.6987 -1.0538
   47CHL1   C12 3435   0.660   3.032   7.346 -0.3843  0.5134 -0.1645
   47CHL1  H12A 3436   0.566   3.060   7.399  1.2803  3.7490  1.1867
   47CHL1  H12B 3437   0.735   3.111   7.364 -1.6533  1.1328  2.6870
   47CHL1   C11 3438   0.641   3.011   7.198 -0.0980  0.7036 -0.3822
   47CHL1  H11A 3439   0.561   2.935   7.184 -0.2939  1.0952 -1.4565
   47CHL1  H11B 3440   0.606   3.106   7.151  0.5880  1.4888  0.6939
   47CHL1    C9 3441   0.762   2.948   7.129 -0.7203 -0.5023  0.2252
   47CHL1    H9 3442   0.848   3.017   7.133 -0.4632 -0.8762  1.2342
   47CHL1   C10 3443   0.750   2.935   6.970 -0.4792  0.6644  0.0264
   47CHL1   C19 3444   0.607   2.892   6.928 -0.0051 -0.9073 -0.0726
   47CHL1  H19A 3445   0.577   2.815   7.002  0.5603  0.9818  2.2033
   47CHL1  H19B 3446   0.538   2.978   6.937  0.7720 -0.2331 -0.4312
   47CHL1  H19C 3447   0.596   2.840   6.831 -2.3157 -2.1269  0.7966
   47CHL1    C1 3448   0.777   3.076   6.892 -0.3280  0.2568  0.1765
   47CHL1   H1A 3449   0.702   3.146   6.932 -2.1554 -1.7970  0.4346
   47CHL1   H1B 3450   0.872   3.123   6.926 -1.1592  0.7136  1.9543
   47CHL1    C2 3451   0.778   3.068   6.737 -0.0702  0.8348 -0.5206
   47CHL1   H2A 3452   0.801   3.166   6.691  0.2848  0.6003 -0.8532
   47CHL1   H2B 3453   0.680   3.031   6.698 -0.8507 -0.0820  2.2247
   47CHL1   C20 3454   0.683   2.942   7.683 -0.0860  0.5583  0.4057
   47CHL1   H20 3455   0.620   2.851   7.684  1.3260 -0.5832 -3.9320
   47CHL1   C21 3456   0.588   3.066   7.677 -0.7044  0.0422 -0.0928
   47CHL1  H21A 3457   0.531   3.061   7.772  2.9421 -0.9474  2.1239
   47CHL1  H21B 3458   0.520   3.067   7.588  0.6957 -0.6900 -1.1923
   47CHL1  H21C 3459   0.656   3.153   7.663  1.5147 -1.5780  0.4463
   47CHL1   C22 3460   0.763   2.961   7.812  0.0001  0.6116 -0.3531
   47CHL1  H22A 3461   0.870   2.988   7.799  0.3279  0.5346  1.9656
   47CHL1  H22B 3462   0.717   3.041   7.874 -0.1777  0.5966 -0.4678
   47CHL1   C23 3463   0.759   2.838   7.910 -0.1630  0.1080 -0.2651
   47CHL1  H23A 3464   0.661   2.845   7.961 -0.5748 -0.7613 -0.9321
   47CHL1  H23B 3465   0.765   2.742   7.853 -0.5840 -0.4276  0.5895
   47CHL1   C24 3466   0.875   2.833   8.020  0.5668 -0.1946 -0.1768
   47CHL1  H24A 3467   0.979   2.837   7.980  0.2056 -0.1335 -1.1315
   47CHL1  H24B 3468   0.866   2.925   8.081  0.4491 -0.0721 -0.3791
   47CHL1   C25 3469   0.848   2.711   8.118  0.7345 -0.0085  0.0243
   47CHL1   H25 3470   0.741   2.704   8.148  0.7982  1.2217  0.5426
   47CHL1   C26 3471   0.873   2.583   8.037  0.7740  0.8717 -0.6384
   47CHL1  H26A 3472   0.794   2.574   7.958  1.1230 -1.8703 -0.7214
   47CHL1  H26B 3473   0.977   2.581   7.999  1.8187  0.7530  2.1603
   47CHL1  H26C 3474   0.879   2.502   8.113 -0.0603  0.5959 -0.8496
   47CHL1   C27 3475   0.938   2.718   8.244  0.8480  0.1666  0.4357
   47CHL1  H27A 3476   1.047   2.712   8.223  1.3649  0.0745  2.9641
   47CHL1  H27B 3477   0.927   2.812   8.301  2.8399  1.4859 -1.3199
   47CHL1  H27C 3478   0.900   2.641   8.315  0.9892  0.6432  1.0322
   48CHL1    C3 3479   4.577   5.359   6.338 -0.9809  0.3703  0.0779
   48CHL1    H3 3480   4.675   5.410   6.331 -1.6268  1.6617  0.2058
   48CHL1    O3 3481   4.516   5.360   6.209  0.3349  0.2243 -0.1570
   48CHL1   H3' 3482   4.453   5.288   6.215  0.7373  0.0063  1.8091
   48CHL1    C4 3483   4.597   5.219   6.393 -0.4899  0.2342  0.1950
   48CHL1   H4A 3484   4.502   5.162   6.388 -1.4782  1.7406  1.4761
   48CHL1   H4B 3485   4.669   5.167   6.326  2.0814  3.6317  0.1574
   48CHL1    C5 3486   4.644   5.211   6.532 -0.8320  0.2621 -0.5946
   48CHL1    C6 3487   4.748   5.144   6.568 -0.0421  0.1479 -0.0612
   48CHL1    H6 3488   4.800   5.088   6.489 -1.9418 -0.7979 -0.6666
   48CHL1    C7 3489   4.795   5.122   6.714  0.1161 -0.0205 -0.6863
   48CHL1   H7A 3490   4.828   5.018   6.732 -1.4818 -0.6155 -1.1067
   48CHL1   H7B 3491   4.880   5.191   6.733 -0.8604  1.0013  0.0825
   48CHL1    C8 3492   4.682   5.163   6.817  0.1106  0.4346  0.7906
   48CHL1    H8 3493   4.604   5.084   6.829 -1.6886  1.6618 -2.3028
   48CHL1   C14 3494   4.738   5.189   6.956 -0.5419  0.3462 -0.4793
   48CHL1   H14 3495   4.817   5.266   6.941  0.5486 -0.8039 -0.7592
   48CHL1   C15 3496   4.819   5.080   7.024  0.3914  0.4948 -0.0508
   48CHL1  H15A 3497   4.760   4.986   7.017  0.7549  0.0119  2.7273
   48CHL1  H15B 3498   4.922   5.060   6.987  0.7232 -1.5089  1.7987
   48CHL1   C16 3499   4.837   5.125   7.173  0.2332 -0.4634 -0.5127
   48CHL1  H16A 3500   4.791   5.049   7.241 -2.5677 -0.1689 -2.0304
   48CHL1  H16B 3501   4.943   5.152   7.191  0.3629 -2.2890  1.6976
   48CHL1   C17 3502   4.748   5.254   7.189  0.0168 -0.9645  0.4118
   48CHL1   H17 3503   4.815   5.338   7.159 -0.6256 -1.9164 -4.0482
   48CHL1   C13 3504   4.650   5.247   7.069  0.1572 -0.3814  0.3165
   48CHL1   C18 3505   4.538   5.146   7.101 -0.7224 -0.0035  0.2887
   48CHL1  H18A 3506   4.569   5.053   7.153 -1.9007 -1.3502 -1.3276
   48CHL1  H18B 3507   4.463   5.190   7.170  0.4850  0.5293  1.2808
   48CHL1  H18C 3508   4.491   5.115   7.005  0.7843 -1.6040  0.0492
   48CHL1   C12 3509   4.590   5.377   7.011  0.8816  0.6545  0.6561
   48CHL1  H12A 3510   4.522   5.428   7.083 -0.1597  1.6728 -1.0130
   48CHL1  H12B 3511   4.665   5.456   6.990  2.2070 -0.4707  1.0956
   48CHL1   C11 3512   4.516   5.353   6.880 -0.0246 -0.3646  0.1803
   48CHL1  H11A 3513   4.425   5.295   6.905 -0.3296 -0.6964 -1.6796
   48CHL1  H11B 3514   4.486   5.455   6.848 -0.8300 -1.1027 -1.4594
   48CHL1    C9 3515   4.608   5.295   6.773  0.1773  0.3648  0.4701
   48CHL1    H9 3516   4.698   5.359   6.764  1.1014 -1.0610 -0.7330
   48CHL1   C10 3517   4.549   5.286   6.629 -0.3065  0.0388 -0.1579
   48CHL1   C19 3518   4.413   5.213   6.640  0.8701 -0.0239 -0.6371
   48CHL1  H19A 3519   4.342   5.288   6.681 -0.6989 -2.3541  1.0399
   48CHL1  H19B 3520   4.377   5.176   6.541 -2.5688  1.1644  0.0905
   48CHL1  H19C 3521   4.424   5.128   6.710 -1.2987 -1.8275 -2.4018
   48CHL1    C1 3522   4.535   5.427   6.578 -0.2112 -0.1060 -0.4704
   48CHL1   H1A 3523   4.457   5.483   6.635 -0.6618 -0.2426 -0.9526
   48CHL1   H1B 3524   4.624   5.495   6.578 -1.4027  1.4881 -1.1278
   48CHL1    C2 3525   4.487   5.448   6.436  0.2247  0.0897 -0.4040
   48CHL1   H2A 3526   4.486   5.547   6.385  1.1847 -0.1190 -0.8309
   48CHL1   H2B 3527   4.385   5.403   6.435  0.5242 -0.5972 -0.3768
   48CHL1   C20 3528   4.687   5.260   7.330 -0.1002 -0.5317 -0.1054
   48CHL1   H20 3529   4.635   5.163   7.345 -1.1658  0.1935  0.9259
   48CHL1   C21 3530   4.591   5.380   7.342  0.6777  0.4401  0.8974
   48CHL1  H21A 3531   4.646   5.474   7.322 -0.3259  1.0336  0.8732
   48CHL1  H21B 3532   4.529   5.379   7.435  0.1860 -0.2429  0.5704
   48CHL1  H21C 3533   4.511   5.363   7.267  0.8580 -1.7122  1.1674
   48CHL1   C22 3534   4.788   5.270   7.454  0.4538 -0.3472 -0.1711
   48CHL1  H22A 3535   4.734   5.221   7.538  0.3850 -1.8067 -1.0560
   48CHL1  H22B 3536   4.870   5.202   7.424 -1.1969 -1.8759 -1.3517
   48CHL1   C23 3537   4.852   5.406   7.478 -0.7775 -0.0365 -0.6226
   48CHL1  H23A 3538   4.904   5.447   7.388  0.6939 -1.5544 -0.4842
   48CHL1  H23B 3539   4.777   5.486   7.497 -0.4270  0.4675 -1.3062
   48CHL1   C24 3540   4.952   5.409   7.598 -0.1550 -0.4520 -0.2515
   48CHL1  H24A 3541   4.898   5.412   7.696 -0.6218 -1.9061 -0.4574
   48CHL1  H24B 3542   5.022   5.324   7.588 -0.2528 -0.5406 -0.1823
   48CHL1   C25 3543   5.044   5.535   7.594 -0.4169  0.1336  0.4430
   48CHL1   H25 3544   5.107   5.529   7.503 -2.4777  0.7667 -1.0482
   48CHL1   C26 3545   4.976   5.672   7.594  0.4312  0.0980 -0.1148
   48CHL1  H26A 3546   5.056   5.749   7.585 -0.0833  0.6970  0.3842
   48CHL1  H26B 3547   4.901   5.686   7.513  0.8974  2.0713 -0.2252
   48CHL1  H26C 3548   4.928   5.692   7.692  0.5687  2.5165 -0.5254
   48CHL1   C27 3549   5.138   5.533   7.708  0.2069 -0.2041 -0.0153
   48CHL1  H27A 3550   5.188   5.434   7.717 -0.5792 -0.7118 -1.0863
   48CHL1  H27B 3551   5.197   5.627   7.700 -0.6971  0.2911 -0.9083
   48CHL1  H27C 3552   5.083   5.546   7.804  1.5763 -0.9183  0.8821
   49CHL1    C3 3553   3.538   6.571   6.605  0.4141 -0.7951  0.0975
   49CHL1    H3 3554   3.451   6.625   6.648  1.8330  2.1483 -0.6029
   49CHL1    O3 3555   3.540   6.606   6.466  0.0727 -0.3231 -0.1793
   49CHL1   H3' 3556   3.448   6.629   6.453  0.1994 -0.0979 -0.7032
   49CHL1    C4 3557   3.670   6.614   6.673  0.8033  0.4916  0.6029
   49CHL1   H4A 3558   3.763   6.577   6.625  0.4116  1.9286 -1.3368
   49CHL1   H4B 3559   3.681   6.724   6.668 -0.5299  0.5929 -0.3524
   49CHL1    C5 3560   3.678   6.577   6.820  0.1596 -0.0155 -0.2701
   49CHL1    C6 3561   3.701   6.674   6.913  0.2865  0.3264  0.0602
   49CHL1    H6 3562   3.733   6.773   6.877 -1.5770  1.5623  1.7134
   49CHL1    C7 3563   3.711   6.642   7.059 -0.0936  0.2309 -0.0485
   49CHL1   H7A 3564   3.800   6.686   7.109  0.3418  2.7028 -2.8705
   49CHL1   H7B 3565   3.617   6.679   7.106 -0.4700 -0.1051 -0.5473
   49CHL1    C8 3566   3.711   6.494   7.088 -0.7585  0.8295  0.7635
   49CHL1    H8 3567   3.812   6.449   7.074 -0.5212  0.8426  2.3591
   49CHL1   C14 3568   3.669   6.460   7.233 -0.1167 -0.6852 -0.8665
   49CHL1   H14 3569   3.564   6.488   7.256 -0.0655 -1.8789  0.8710
   49CHL1   C15 3570   3.734   6.549   7.341 -0.1758  0.5780  0.3216
   49CHL1  H15A 3571   3.843   6.560   7.325 -0.3283  1.1136 -0.3723
   49CHL1  H15B 3572   3.683   6.647   7.354 -0.8354  0.1221  1.2370
   49CHL1   C16 3573   3.724   6.447   7.458 -0.1336 -0.0319 -0.0395
   49CHL1  H16A 3574   3.824   6.415   7.496 -1.0049 -0.3718  2.0225
   49CHL1  H16B 3575   3.670   6.493   7.543 -1.2765 -1.4098 -0.0093
   49CHL1   C17 3576   3.642   6.320   7.412 -0.2909 -0.3187 -0.6478
   49CHL1   H17 3577   3.536   6.348   7.430  0.2169  0.8290  0.6848
   49CHL1   C13 3578   3.675   6.310   7.267 -0.1162  0.0950 -0.2077
   49CHL1   C18 3579   3.811   6.251   7.244 -0.3818 -0.0752  0.1436
   49CHL1  H18A 3580   3.889   6.297   7.308  0.0100 -1.3940  0.6263
   49CHL1  H18B 3581   3.806   6.145   7.277 -1.9905 -0.1415 -0.2873
   49CHL1  H18C 3582   3.839   6.249   7.137 -2.6102 -1.4724 -0.4419
   49CHL1   C12 3583   3.563   6.242   7.195  0.0785  0.3688  0.2727
   49CHL1  H12A 3584   3.580   6.132   7.201  1.1246  0.5936  1.5507
   49CHL1  H12B 3585   3.465   6.271   7.238 -0.4150 -3.1759  1.7456
   49CHL1   C11 3586   3.574   6.274   7.047  0.4686  0.3780  0.4021
   49CHL1  H11A 3587   3.659   6.209   7.017  0.7802  1.3937 -1.0224
   49CHL1  H11B 3588   3.491   6.230   6.987  1.1683  0.0889 -0.3698
   49CHL1    C9 3589   3.609   6.418   7.000  0.0977 -0.3486 -0.2465
   49CHL1    H9 3590   3.511   6.471   7.008  0.6866  0.8779 -0.9311
   49CHL1   C10 3591   3.640   6.432   6.852  0.5799  0.1100 -0.6287
   49CHL1   C19 3592   3.765   6.348   6.812  0.1829 -0.2603 -0.0141
   49CHL1  H19A 3593   3.742   6.241   6.835 -0.1529 -0.4597 -1.2445
   49CHL1  H19B 3594   3.786   6.350   6.703  1.1351  1.0281  0.1849
   49CHL1  H19C 3595   3.860   6.372   6.863 -0.4002  1.2680  0.3862
   49CHL1    C1 3596   3.511   6.388   6.766 -0.1502 -0.0664 -1.0954
   49CHL1   H1A 3597   3.515   6.278   6.780  2.0042  0.2612  1.1754
   49CHL1   H1B 3598   3.416   6.423   6.810  0.4269  0.2438 -0.0899
   49CHL1    C2 3599   3.514   6.424   6.617  0.1648  0.5507 -0.4440
   49CHL1   H2A 3600   3.415   6.407   6.568  0.6807  1.2288 -1.7305
   49CHL1   H2B 3601   3.605   6.381   6.569  2.2668  2.9791  1.2727
   49CHL1   C20 3602   3.677   6.189   7.504 -0.2062  0.2294 -0.4864
   49CHL1   H20 3603   3.778   6.150   7.478 -1.4226 -3.0791 -0.3865
   49CHL1   C21 3604   3.573   6.081   7.482 -0.0371  0.4424  0.4666
   49CHL1  H21A 3605   3.473   6.120   7.512  0.8047  1.3130  2.2638
   49CHL1  H21B 3606   3.591   5.996   7.551  2.1248  1.2187  0.9089
   49CHL1  H21C 3607   3.571   6.028   7.385  2.5113  0.3782  0.3995
   49CHL1   C22 3608   3.683   6.229   7.652  0.7287  0.5435  0.8267
   49CHL1  H22A 3609   3.767   6.301   7.664 -0.0762  2.0590 -2.0760
   49CHL1  H22B 3610   3.591   6.289   7.670  1.1653  1.2920  0.6156
   49CHL1   C23 3611   3.681   6.120   7.759  0.3201 -0.8451  0.1768
   49CHL1  H23A 3612   3.590   6.058   7.746  1.0359 -2.1638  1.3242
   49CHL1  H23B 3613   3.763   6.049   7.733 -0.2296 -0.7777 -1.8245
   49CHL1   C24 3614   3.701   6.177   7.902  0.7347  0.1255  0.4398
   49CHL1  H24A 3615   3.793   6.239   7.908  0.4093  0.5758  0.8112
   49CHL1  H24B 3616   3.609   6.236   7.922 -0.9382 -2.1684 -0.2120
   49CHL1   C25 3617   3.713   6.073   7.998 -0.3635  0.1765 -0.2219
   49CHL1   H25 3618   3.789   6.002   7.959  0.8004  0.8877  0.7078
   49CHL1   C26 3619   3.786   6.119   8.126 -0.2315  0.4657 -0.5347
   49CHL1  H26A 3620   3.783   6.042   8.206 -1.5381  1.9695  0.8856
   49CHL1  H26B 3621   3.893   6.128   8.096  0.0872 -0.6309  0.2234
   49CHL1  H26C 3622   3.746   6.218   8.156  1.4397  1.1533 -0.4822
   49CHL1   C27 3623   3.583   6.005   8.031 -0.4296  0.2015  0.5406
   49CHL1  H27A 3624   3.524   5.990   7.938 -0.6433  0.1359  0.6880
   49CHL1  H27B 3625   3.593   5.906   8.080  1.6479 -0.1284 -0.5042
   49CHL1  H27C 3626   3.518   6.056   8.105  0.3607 -0.1392  1.4738
   50CHL1    C3 3627   4.169   1.157   6.805  0.0267 -0.4391  0.4026
   50CHL1    H3 3628   4.140   1.050   6.801 -1.0703 -0.1177 -0.5896
   50CHL1    O3 3629   4.210   1.198   6.675 -0.1011 -0.2751 -0.4682
   50CHL1   H3' 3630   4.246   1.282   6.702  1.4123 -0.7630 -0.9456
   50CHL1    C4 3631   4.049   1.241   6.859 -0.0568 -0.1788 -0.3482
   50CHL1   H4A 3632   4.083   1.344   6.836  1.3082 -0.2569  1.2418
   50CHL1   H4B 3633   3.963   1.213   6.795  0.0426 -1.0447 -0.1094
   50CHL1    C5 3634   4.028   1.226   7.007 -0.8030 -0.2590 -0.0062
   50CHL1    C6 3635   3.917   1.180   7.060  0.7102  0.2748  0.0978
   50CHL1    H6 3636   3.837   1.183   6.984  1.1798 -0.3718 -0.4248
   50CHL1    C7 3637   3.884   1.165   7.202  0.4264  0.7945 -0.1657
   50CHL1   H7A 3638   3.780   1.196   7.226 -0.5356 -1.7044 -0.9901
   50CHL1   H7B 3639   3.881   1.054   7.206 -2.3419  0.8343 -0.6128
   50CHL1    C8 3640   3.998   1.230   7.295  0.4805  0.1476  0.0695
   50CHL1    H8 3641   3.971   1.337   7.293 -2.2150 -0.4705  0.6938
   50CHL1   C14 3642   3.994   1.174   7.436 -0.1431 -0.0726 -0.2490
   50CHL1   H14 3643   4.010   1.067   7.411 -0.1754 -0.4579  1.3335
   50CHL1   C15 3644   3.856   1.178   7.506 -0.9903 -0.0636  0.0317
   50CHL1  H15A 3645   3.810   1.276   7.481 -1.2525 -0.6637 -1.8919
   50CHL1  H15B 3646   3.784   1.103   7.468  0.6941 -2.2180  0.9613
   50CHL1   C16 3647   3.885   1.155   7.654 -0.0160 -1.2854  0.1260
   50CHL1  H16A 3648   3.835   1.226   7.723  0.3365 -0.5126 -0.3996
   50CHL1  H16B 3649   3.845   1.059   7.694 -2.8938 -1.4243 -2.8767
   50CHL1   C17 3650   4.043   1.160   7.664 -0.0600  0.4455  1.1206
   50CHL1   H17 3651   4.073   1.054   7.647 -0.9442  0.0300  2.0977
   50CHL1   C13 3652   4.092   1.230   7.538 -0.2686 -0.8235 -0.3346
   50CHL1   C18 3653   4.059   1.378   7.553 -0.0941 -0.5753  0.0853
   50CHL1  H18A 3654   4.076   1.439   7.463  0.8028 -0.2137  0.4933
   50CHL1  H18B 3655   3.953   1.398   7.577 -0.8389  1.9478 -4.7604
   50CHL1  H18C 3656   4.126   1.423   7.630 -2.0741  2.8775 -0.1465
   50CHL1   C12 3657   4.237   1.210   7.489  0.3098 -0.0532  0.3441
   50CHL1  H12A 3658   4.316   1.255   7.552  0.8535 -2.8498  1.7416
   50CHL1  H12B 3659   4.254   1.101   7.504  0.2293 -0.0765  0.2673
   50CHL1   C11 3660   4.248   1.254   7.341  0.2035  0.0228  0.0898
   50CHL1  H11A 3661   4.241   1.365   7.345  0.5968  0.0954 -1.0872
   50CHL1  H11B 3662   4.351   1.231   7.307 -0.3520  1.2811 -2.6027
   50CHL1    C9 3663   4.143   1.202   7.242  0.2702 -0.5026 -0.0259
   50CHL1    H9 3664   4.155   1.092   7.241 -2.8068 -0.8813 -1.5868
   50CHL1   C10 3665   4.156   1.249   7.093 -0.0387 -0.1004 -0.3214
   50CHL1   C19 3666   4.189   1.401   7.084 -0.0840  0.0868 -0.2783
   50CHL1  H19A 3667   4.187   1.432   6.977  0.8127  1.7513  0.1767
   50CHL1  H19B 3668   4.110   1.464   7.130  0.2892 -0.0143  0.4980
   50CHL1  H19C 3669   4.291   1.416   7.125 -1.0313  1.1265  1.7544
   50CHL1    C1 3670   4.277   1.172   7.038  0.7070 -0.5574  0.7350
   50CHL1   H1A 3671   4.366   1.218   7.086  0.3069 -0.7872  1.7116
   50CHL1   H1B 3672   4.256   1.066   7.065 -0.9548 -0.8062 -1.4508
   50CHL1    C2 3673   4.298   1.181   6.891 -0.0297 -0.3091  0.0917
   50CHL1   H2A 3674   4.380   1.115   6.854 -0.3067 -0.9560  0.6175
   50CHL1   H2B 3675   4.333   1.284   6.866  0.8174 -1.0715 -1.9957
   50CHL1   C20 3676   4.096   1.203   7.805  0.0558 -0.3642  0.2348
   50CHL1   H20 3677   4.098   1.314   7.806  0.9864 -0.3773 -0.0850
   50CHL1   C21 3678   4.241   1.148   7.818 -0.5562  0.2621 -0.1539
   50CHL1  H21A 3679   4.235   1.038   7.802 -1.0787  0.3655 -0.7149
   50CHL1  H21B 3680   4.277   1.164   7.922 -2.9530  1.8605  0.5070
   50CHL1  H21C 3681   4.308   1.189   7.740 -0.0995 -0.5284 -0.1763
   50CHL1   C22 3682   4.004   1.153   7.917 -0.0144  0.2809 -0.8085
   50CHL1  H22A 3683   3.894   1.157   7.907 -0.0342 -1.2518 -1.3246
   50CHL1  H22B 3684   4.015   1.043   7.927 -2.4359 -0.0700 -1.7941
   50CHL1   C23 3685   4.028   1.218   8.052  0.1284  0.3109  0.1971
   50CHL1  H23A 3686   4.128   1.187   8.088 -0.0450  0.1591  0.5489
   50CHL1  H23B 3687   4.032   1.328   8.035  1.5957  0.3888  1.0087
   50CHL1   C24 3688   3.935   1.161   8.162  0.0670 -0.4574  0.4222
   50CHL1  H24A 3689   3.940   1.226   8.252  2.8790 -0.8405  0.5692
   50CHL1  H24B 3690   3.833   1.166   8.118  0.7352  1.6776 -1.0124
   50CHL1   C25 3691   3.971   1.020   8.219  0.4112 -0.0438  0.5087
   50CHL1   H25 3692   3.936   0.944   8.147  0.0906  0.7186 -0.1414
   50CHL1   C26 3693   4.113   0.995   8.260 -0.8896  0.0201 -0.3638
   50CHL1  H26A 3694   4.145   1.073   8.332 -0.2324 -0.1966 -0.4123
   50CHL1  H26B 3695   4.114   0.897   8.312 -1.2663  0.0667 -0.2726
   50CHL1  H26C 3696   4.177   0.996   8.168 -0.0403  1.6872  0.2315
   50CHL1   C27 3697   3.883   1.001   8.349 -0.2041 -0.0351 -0.1723
   50CHL1  H27A 3698   3.915   1.081   8.420 -0.6546 -1.0974  1.2613
   50CHL1  H27B 3699   3.776   1.019   8.326 -0.2737 -0.6386 -0.3292
   50CHL1  H27C 3700   3.887   0.900   8.395  3.1597  0.4943  0.8625
   51CHL1    C3 3701   4.218   6.776   6.827 -0.8827 -0.7086 -0.1006
   51CHL1    H3 3702   4.118   6.822   6.816 -2.0563 -3.2625 -0.2733
   51CHL1    O3 3703   4.266   6.742   6.695  0.4302  0.2997  0.3919
   51CHL1   H3' 3704   4.330   6.673   6.713  0.8068  0.3899 -0.5621
   51CHL1    C4 3705   4.307   6.872   6.907 -0.2012 -0.0593 -0.6505
   51CHL1   H4A 3706   4.409   6.830   6.920 -0.1458  0.7610  1.7496
   51CHL1   H4B 3707   4.310   6.962   6.842 -0.2843  1.3036  1.2015
   51CHL1    C5 3708   4.258   6.904   7.049  0.0855  0.5364  0.3991
   51CHL1    C6 3709   4.230   7.028   7.091 -0.4210  0.1063  0.4439
   51CHL1    H6 3710   4.242   7.112   7.021  1.3936  0.4902  1.1796
   51CHL1    C7 3711   4.194   7.061   7.238 -0.2876  0.1215  0.0133
   51CHL1   H7A 3712   4.252   7.148   7.274 -0.6959  0.3121  0.2052
   51CHL1   H7B 3713   4.087   7.087   7.240 -0.2545  0.2084  0.7920
   51CHL1    C8 3714   4.224   6.939   7.328 -0.1526  0.5254  0.0989
   51CHL1    H8 3715   4.335   6.939   7.336 -0.1706  1.2479  0.3832
   51CHL1   C14 3716   4.152   6.958   7.461  0.1105  0.8179  0.0284
   51CHL1   H14 3717   4.044   6.959   7.436 -0.2993  0.0852  1.7200
   51CHL1   C15 3718   4.188   7.081   7.530  0.2497 -0.0660 -0.4867
   51CHL1  H15A 3719   4.297   7.102   7.521  0.1426  0.6160 -0.2136
   51CHL1  H15B 3720   4.133   7.166   7.485  2.1661  1.0952 -0.6914
   51CHL1   C16 3721   4.142   7.062   7.678  0.0545  0.2168  0.0765
   51CHL1  H16A 3722   4.235   7.077   7.737  0.5293 -1.2091 -0.2870
   51CHL1  H16B 3723   4.068   7.132   7.720 -0.3046 -0.5102  0.6763
   51CHL1   C17 3724   4.089   6.913   7.683 -0.7247  0.0538  0.4427
   51CHL1   H17 3725   3.980   6.913   7.661 -0.3329 -0.1352 -1.6203
   51CHL1   C13 3726   4.164   6.848   7.565  0.5704  0.0203  0.2436
   51CHL1   C18 3727   4.305   6.811   7.588  0.5416  0.4346 -0.6428
   51CHL1  H18A 3728   4.349   6.901   7.636  2.0774 -1.2818  1.2531
   51CHL1  H18B 3729   4.310   6.728   7.663  0.1715  0.5634 -0.4744
   51CHL1  H18C 3730   4.364   6.781   7.499  1.3152  0.5848 -0.1820
   51CHL1   C12 3731   4.087   6.727   7.504  0.1371 -1.0397  0.0541
   51CHL1  H12A 3732   4.094   6.636   7.568  1.2892 -0.9673  0.0374
   51CHL1  H12B 3733   3.982   6.755   7.482  0.8045  1.1509 -0.4785
   51CHL1   C11 3734   4.152   6.686   7.368 -0.2188 -0.2840 -0.0096
   51CHL1  H11A 3735   4.251   6.643   7.393  0.5693  1.2349 -0.4134
   51CHL1  H11B 3736   4.100   6.596   7.330  1.3164 -0.3634 -2.0687
   51CHL1    C9 3737   4.160   6.811   7.269  0.0854 -0.3897  0.0580
   51CHL1    H9 3738   4.053   6.839   7.259 -0.2973 -1.6393  0.5977
   51CHL1   C10 3739   4.235   6.776   7.135 -0.1393 -1.1399 -0.3141
   51CHL1   C19 3740   4.372   6.716   7.167 -0.6672  0.2497  0.4483
   51CHL1  H19A 3741   4.445   6.708   7.084  1.7146  0.1940  2.4775
   51CHL1  H19B 3742   4.436   6.764   7.244  1.7036  0.6831 -1.7101
   51CHL1  H19C 3743   4.361   6.610   7.199  0.9754 -1.2493 -3.5605
   51CHL1    C1 3744   4.142   6.683   7.059  0.4976 -0.0273 -0.5480
   51CHL1   H1A 3745   4.132   6.583   7.107  0.1695 -0.0479 -0.6586
   51CHL1   H1B 3746   4.038   6.718   7.043  0.6692  0.3080 -0.9292
   51CHL1    C2 3747   4.208   6.650   6.917 -0.2603 -0.1607  0.2740
   51CHL1   H2A 3748   4.148   6.569   6.871 -0.8563 -0.5411  1.6755
   51CHL1   H2B 3749   4.310   6.615   6.943  0.1491  0.4067 -0.5740
   51CHL1   C20 3750   4.117   6.858   7.820  0.9722  0.5253  0.4309
   51CHL1   H20 3751   4.225   6.838   7.837  0.8162  0.4103  1.3217
   51CHL1   C21 3752   4.039   6.729   7.838 -0.0772 -0.2746 -0.4505
   51CHL1  H21A 3753   3.928   6.732   7.843 -0.1060 -1.5095 -0.1008
   51CHL1  H21B 3754   4.081   6.668   7.920 -2.7191 -2.2652 -0.5313
   51CHL1  H21C 3755   4.060   6.662   7.752 -5.2002 -0.2856 -1.8710
   51CHL1   C22 3756   4.073   6.957   7.932  0.2216  0.2018 -0.4616
   51CHL1  H22A 3757   4.141   7.045   7.927  1.2117 -0.5300 -0.0297
   51CHL1  H22B 3758   3.967   6.987   7.918 -0.5770 -1.8228  0.9910
   51CHL1   C23 3759   4.086   6.894   8.071 -0.0132 -0.3116 -0.3506
   51CHL1  H23A 3760   4.029   6.800   8.081  1.2542 -1.0920 -0.4335
   51CHL1  H23B 3761   4.196   6.879   8.076  0.1595  1.3971  1.7435
   51CHL1   C24 3762   4.045   6.991   8.177  0.3970 -0.1430  0.2484
   51CHL1  H24A 3763   4.103   7.085   8.187  0.0518  0.1976 -0.9328
   51CHL1  H24B 3764   3.940   7.024   8.162  1.1148  2.4599  0.7481
   51CHL1   C25 3765   4.072   6.932   8.320 -0.2659 -0.0825  0.0741
   51CHL1   H25 3766   4.018   6.838   8.341 -1.3163  0.8533  1.6946
   51CHL1   C26 3767   4.219   6.919   8.351  0.2336  0.2882  0.2226
   51CHL1  H26A 3768   4.275   7.007   8.313 -0.8606  0.5887 -0.7544
   51CHL1  H26B 3769   4.247   6.906   8.457  1.6643  1.6018  0.0242
   51CHL1  H26C 3770   4.257   6.834   8.291  1.0383  2.4903 -2.5076
   51CHL1   C27 3771   4.008   7.023   8.424  0.5168 -0.3362  0.4334
   51CHL1  H27A 3772   4.035   6.985   8.525  0.0112  1.8296  1.4166
   51CHL1  H27B 3773   4.039   7.128   8.404 -1.8759 -0.2602 -3.3200
   51CHL1  H27C 3774   3.897   7.019   8.415  0.4186  0.2389  1.2798
   52CHL1    C3 3775   6.194   0.822   6.953 -0.2854  0.7692  0.1852
   52CHL1    H3 3776   6.242   0.722   6.946 -0.2320  0.6729  1.6657
   52CHL1    O3 3777   6.195   0.887   6.827 -0.0599 -0.2890 -0.2657
   52CHL1   H3' 3778   6.154   0.971   6.847 -0.1747  0.0508 -1.8861
   52CHL1    C4 3779   6.050   0.797   6.990 -0.2868  0.1508  0.4220
   52CHL1   H4A 3780   5.995   0.893   7.002  1.1035  0.8688  1.3176
   52CHL1   H4B 3781   5.998   0.739   6.911  0.3742 -0.6831  0.6009
   52CHL1    C5 3782   6.047   0.731   7.122  0.2914 -0.4388 -0.3501
   52CHL1    C6 3783   6.000   0.605   7.138  0.6491  0.1094 -0.2389
   52CHL1    H6 3784   5.955   0.563   7.047  0.2280  0.6495 -0.2815
   52CHL1    C7 3785   5.987   0.528   7.264  0.3805  0.1535 -0.2427
   52CHL1   H7A 3786   5.883   0.490   7.276  1.1113 -1.0659  2.5893
   52CHL1   H7B 3787   6.062   0.449   7.286  0.8112  0.9187  1.0737
   52CHL1    C8 3788   6.006   0.627   7.386  0.6094  0.3938 -0.3417
   52CHL1    H8 3789   5.919   0.695   7.385  1.2543  1.2932  1.8138
   52CHL1   C14 3790   6.015   0.558   7.519 -0.3322 -0.0040 -0.5858
   52CHL1   H14 3791   6.104   0.492   7.513 -0.4945 -0.2207 -0.6148
   52CHL1   C15 3792   5.892   0.461   7.554  0.9251 -0.8606 -0.1277
   52CHL1  H15A 3793   5.801   0.523   7.537  1.1694 -0.5393 -0.2771
   52CHL1  H15B 3794   5.878   0.363   7.504  0.6662 -0.9385  0.0980
   52CHL1   C16 3795   5.911   0.437   7.703  0.7298  0.1586 -0.1751
   52CHL1  H16A 3796   5.818   0.468   7.754  2.0485  1.6357  1.3975
   52CHL1  H16B 3797   5.940   0.331   7.721 -1.1780 -0.7485 -2.2315
   52CHL1   C17 3798   6.032   0.524   7.741 -0.1884  0.7623  0.3558
   52CHL1   H17 3799   6.121   0.460   7.725  0.3677  1.6548 -0.2171
   52CHL1   C13 3800   6.034   0.640   7.639  1.0336  0.2077  0.5335
   52CHL1   C18 3801   5.926   0.738   7.653 -0.5365 -0.0367 -0.1247
   52CHL1  H18A 3802   5.824   0.701   7.676 -1.5533  1.4246 -2.1559
   52CHL1  H18B 3803   5.954   0.803   7.739  0.8841  0.5578 -1.0107
   52CHL1  H18C 3804   5.920   0.810   7.568 -2.2643 -0.7353 -0.6212
   52CHL1   C12 3805   6.169   0.710   7.639  0.2264  0.3646  1.1032
   52CHL1  H12A 3806   6.176   0.778   7.726 -4.2370  1.4101  0.7714
   52CHL1  H12B 3807   6.243   0.628   7.652 -0.5075 -0.7005 -1.1072
   52CHL1   C11 3808   6.185   0.785   7.508  0.0137 -0.1621 -0.5455
   52CHL1  H11A 3809   6.126   0.878   7.524 -1.4503 -1.5261  2.4428
   52CHL1  H11B 3810   6.287   0.826   7.492 -0.7446  2.4099  0.9060
   52CHL1    C9 3811   6.136   0.710   7.377  0.4194  0.0936  0.4348
   52CHL1    H9 3812   6.213   0.631   7.368 -0.4958 -0.6799 -0.8389
   52CHL1   C10 3813   6.124   0.802   7.250  0.6321 -0.1115  0.3895
   52CHL1   C19 3814   6.052   0.930   7.294  0.0517 -0.4978  0.0685
   52CHL1  H19A 3815   6.027   0.986   7.201 -1.2484 -1.3534 -0.1238
   52CHL1  H19B 3816   5.956   0.913   7.347  0.9327 -0.9418  1.5483
   52CHL1  H19C 3817   6.119   0.993   7.356 -0.0841  0.7790 -1.0750
   52CHL1    C1 3818   6.265   0.840   7.188 -0.1314 -0.2067 -0.5729
   52CHL1   H1A 3819   6.296   0.925   7.254  3.1936 -0.3260 -1.9028
   52CHL1   H1B 3820   6.339   0.758   7.190 -0.0058 -0.1326 -1.8578
   52CHL1    C2 3821   6.270   0.913   7.058  0.6171 -0.7932  0.2486
   52CHL1   H2A 3822   6.377   0.936   7.035 -0.4399  2.3161 -1.9559
   52CHL1   H2B 3823   6.203   1.001   7.069  0.6423 -0.6571 -0.5971
   52CHL1   C20 3824   6.030   0.555   7.895  0.7521 -0.0077  0.3607
   52CHL1   H20 3825   6.081   0.652   7.904 -0.0746  0.2589  2.3781
   52CHL1   C21 3826   6.117   0.450   7.972 -0.3106 -0.8747  0.0538
   52CHL1  H21A 3827   6.223   0.428   7.948 -0.5428 -3.6173  1.4536
   52CHL1  H21B 3828   6.063   0.355   7.950  1.2418 -1.7441 -0.0675
   52CHL1  H21C 3829   6.113   0.458   8.082  0.3899 -1.7958  0.1493
   52CHL1   C22 3830   5.896   0.574   7.958 -0.1190 -0.3049 -0.0304
   52CHL1  H22A 3831   5.822   0.635   7.902  0.1364  0.1258  0.0960
   52CHL1  H22B 3832   5.851   0.473   7.972 -1.0991  0.2830  1.1768
   52CHL1   C23 3833   5.921   0.648   8.093 -0.3114 -0.0586  0.3753
   52CHL1  H23A 3834   5.974   0.580   8.163  1.4616 -0.4368 -1.2883
   52CHL1  H23B 3835   5.970   0.747   8.084 -0.4524  0.3350  3.3362
   52CHL1   C24 3836   5.793   0.672   8.160 -0.2424 -0.2334 -0.3867
   52CHL1  H24A 3837   5.719   0.712   8.087 -1.5284  2.4015  2.2456
   52CHL1  H24B 3838   5.761   0.581   8.215  2.2884 -1.4771 -0.9335
   52CHL1   C25 3839   5.801   0.777   8.268 -0.1036  0.6236  0.1633
   52CHL1   H25 3840   5.884   0.751   8.337 -2.9205 -2.6707  2.4603
   52CHL1   C26 3841   5.812   0.920   8.209 -0.7497  0.6342 -0.3836
   52CHL1  H26A 3842   5.905   0.934   8.151  0.7221  0.4060  1.8747
   52CHL1  H26B 3843   5.726   0.929   8.138  0.6797 -1.3312 -2.4418
   52CHL1  H26C 3844   5.816   0.990   8.294  0.2150 -1.2215  1.1380
   52CHL1   C27 3845   5.670   0.757   8.351  0.8656 -0.3295  0.3191
   52CHL1  H27A 3846   5.688   0.663   8.406  2.5435 -0.2575 -0.0983
   52CHL1  H27B 3847   5.661   0.836   8.428 -0.3585  0.4033 -0.5473
   52CHL1  H27C 3848   5.586   0.759   8.278  1.0054  1.5745  0.1835
   53CHL1    C3 3849   2.095   4.082   6.848 -0.1542 -0.8941  0.1905
   53CHL1    H3 3850   2.018   4.002   6.854 -3.4800  2.1119  0.0908
   53CHL1    O3 3851   2.151   4.070   6.719 -0.2492 -0.7762  0.1094
   53CHL1   H3' 3852   2.065   4.054   6.681 -1.1062  0.6787  1.3679
   53CHL1    C4 3853   2.026   4.217   6.876  0.6143 -0.3618  0.4764
   53CHL1   H4A 3854   2.090   4.304   6.850  1.7008 -1.0273  0.8651
   53CHL1   H4B 3855   1.946   4.218   6.800  1.4193 -0.7285 -0.3891
   53CHL1    C5 3856   1.984   4.240   7.020 -0.0081  1.0233 -0.4689
   53CHL1    C6 3857   1.859   4.275   7.056  0.0692 -0.1877  0.1201
   53CHL1    H6 3858   1.778   4.297   6.985  1.0701  0.2120 -0.9063
   53CHL1    C7 3859   1.809   4.298   7.198 -0.1947  0.4340  0.4688
   53CHL1   H7A 3860   1.757   4.396   7.196 -2.4681 -0.6890  1.8736
   53CHL1   H7B 3861   1.738   4.220   7.232  1.6158 -1.0938  0.8724
   53CHL1    C8 3862   1.926   4.311   7.299 -0.6786 -0.3435 -0.3825
   53CHL1    H8 3863   1.957   4.414   7.272 -0.9890 -0.0861  0.2335
   53CHL1   C14 3864   1.885   4.307   7.443 -0.1776 -0.2379 -0.0638
   53CHL1   H14 3865   1.835   4.208   7.453  0.9852 -1.0617 -2.2654
   53CHL1   C15 3866   1.784   4.415   7.481  0.3964  0.1237 -0.3652
   53CHL1  H15A 3867   1.808   4.517   7.445 -1.8147  0.4722 -0.9095
   53CHL1  H15B 3868   1.682   4.403   7.438  0.3323 -0.6895 -0.0091
   53CHL1   C16 3869   1.786   4.426   7.636 -0.4394  0.8733  0.8766
   53CHL1  H16A 3870   1.814   4.532   7.656 -0.4012  0.9948  0.1695
   53CHL1  H16B 3871   1.694   4.385   7.684 -0.1100 -1.4232 -0.4189
   53CHL1   C17 3872   1.908   4.337   7.680 -0.6219 -0.4165  0.1240
   53CHL1   H17 3873   1.865   4.235   7.688 -2.5890  0.4336  0.5853
   53CHL1   C13 3874   1.996   4.331   7.548 -0.3221  0.8415 -0.4169
   53CHL1   C18 3875   2.067   4.468   7.532 -0.4437 -0.2654  0.4410
   53CHL1  H18A 3876   1.998   4.544   7.575  0.4357  1.2474 -0.7769
   53CHL1  H18B 3877   2.164   4.467   7.586  1.3296 -3.7915 -2.5794
   53CHL1  H18C 3878   2.092   4.493   7.427  2.3516 -3.1793  0.3531
   53CHL1   C12 3879   2.101   4.215   7.533  0.5097  0.0952 -0.7256
   53CHL1  H12A 3880   2.195   4.231   7.590  0.7423 -0.6953 -0.8790
   53CHL1  H12B 3881   2.053   4.118   7.555  2.0366 -0.9437 -1.8283
   53CHL1   C11 3882   2.147   4.216   7.385  0.5938 -0.5165  0.3152
   53CHL1  H11A 3883   2.202   4.311   7.368 -0.1858 -0.4274 -1.8027
   53CHL1  H11B 3884   2.217   4.133   7.364  0.6305 -0.1650 -1.0062
   53CHL1    C9 3885   2.036   4.209   7.276  0.0227  0.5497 -0.2333
   53CHL1    H9 3886   1.989   4.109   7.285 -0.2068  0.8737  2.4159
   53CHL1   C10 3887   2.090   4.212   7.129 -0.2743 -0.6312 -0.5590
   53CHL1   C19 3888   2.199   4.318   7.113 -0.3068 -0.2010  0.5676
   53CHL1  H19A 3889   2.278   4.302   7.190  1.0853  2.2596 -0.3046
   53CHL1  H19B 3890   2.249   4.321   7.014  0.6162 -1.5238  0.9819
   53CHL1  H19C 3891   2.159   4.420   7.133 -0.9377 -0.7766  2.3291
   53CHL1    C1 3892   2.161   4.073   7.101 -0.7791 -0.0093 -0.2611
   53CHL1   H1A 3893   2.261   4.070   7.148 -1.4205  0.7016  1.2043
   53CHL1   H1B 3894   2.091   3.992   7.131  1.2648 -2.2755 -1.5315
   53CHL1    C2 3895   2.207   4.054   6.954  0.0007 -0.2032 -0.6528
   53CHL1   H2A 3896   2.258   3.957   6.932 -1.7019 -1.1605 -0.4859
   53CHL1   H2B 3897   2.299   4.116   6.955 -1.2134  1.6051 -0.7488
   53CHL1   C20 3898   1.972   4.371   7.813  0.3593  0.3376 -0.4125
   53CHL1   H20 3899   2.022   4.470   7.814  0.4773  0.2760  0.2574
   53CHL1   C21 3900   2.075   4.261   7.850 -0.0657 -0.5500 -0.0031
   53CHL1  H21A 3901   2.105   4.258   7.957 -1.4585 -0.4682  0.4016
   53CHL1  H21B 3902   2.160   4.267   7.779 -0.3913 -2.9079 -0.6439
   53CHL1  H21C 3903   2.022   4.163   7.842 -2.3852  0.3205  3.5579
   53CHL1   C22 3904   1.867   4.379   7.933 -0.1521 -0.0981  0.1088
   53CHL1  H22A 3905   1.762   4.393   7.899  0.0166  1.6371  0.2717
   53CHL1  H22B 3906   1.865   4.285   7.993  0.3574 -0.6096 -0.6588
   53CHL1   C23 3907   1.888   4.489   8.042  0.5852 -0.5839  0.4859
   53CHL1  H23A 3908   1.986   4.473   8.093  0.1321 -2.5538  0.7443
   53CHL1  H23B 3909   1.910   4.588   7.996 -0.2245  0.2186  1.8064
   53CHL1   C24 3910   1.775   4.487   8.143 -0.4521  0.2982  0.4026
   53CHL1  H24A 3911   1.681   4.469   8.088 -0.7467  1.1346  0.6304
   53CHL1  H24B 3912   1.781   4.401   8.213 -2.8399 -0.2715 -0.0485
   53CHL1   C25 3913   1.756   4.617   8.224  0.3824  0.7100  0.5589
   53CHL1   H25 3914   1.745   4.709   8.163  1.4905  0.9249  0.6751
   53CHL1   C26 3915   1.622   4.619   8.305 -0.8581 -0.6609 -0.0031
   53CHL1  H26A 3916   1.596   4.719   8.346 -1.3787 -1.4997  1.7467
   53CHL1  H26B 3917   1.546   4.588   8.230 -0.9229  0.5380 -0.4466
   53CHL1  H26C 3918   1.637   4.542   8.384  2.7893  0.3568  0.3758
   53CHL1   C27 3919   1.873   4.643   8.314 -0.7971  0.9531  1.4630
   53CHL1  H27A 3920   1.875   4.726   8.387 -0.0556  1.8588  0.4302
   53CHL1  H27B 3921   1.898   4.549   8.368  3.2092  0.4106 -1.1017
   53CHL1  H27C 3922   1.962   4.660   8.248 -1.2470  0.9945  0.8625
   54CHL1    C3 3923   2.844   6.048   6.884 -0.3228 -0.1364 -0.0508
   54CHL1    H3 3924   2.833   6.158   6.892 -0.1755 -0.2484  1.9053
   54CHL1    O3 3925   2.842   6.010   6.745 -0.4982  0.6823 -0.4670
   54CHL1   H3' 3926   2.764   6.055   6.712  0.5679  1.8200 -1.4579
   54CHL1    C4 3927   2.985   6.002   6.938  0.1851 -0.3118 -0.2500
   54CHL1   H4A 3928   3.000   5.895   6.911 -1.3938 -1.0256  1.5864
   54CHL1   H4B 3929   3.056   6.063   6.879  0.4853 -0.3859  0.0343
   54CHL1    C5 3930   2.986   6.031   7.085 -0.0747  0.0566  0.5808
   54CHL1    C6 3931   3.084   6.104   7.138 -0.0640 -0.2388 -0.6974
   54CHL1    H6 3932   3.163   6.139   7.069  0.6830  0.9862  0.7495
   54CHL1    C7 3933   3.087   6.144   7.284  0.0534  0.1892 -0.1705
   54CHL1   H7A 3934   3.194   6.151   7.311 -0.3271  2.1438  0.9604
   54CHL1   H7B 3935   3.048   6.248   7.297 -0.1445 -0.1461  1.9838
   54CHL1    C8 3936   3.008   6.043   7.368 -0.6241 -0.5884 -0.2130
   54CHL1    H8 3937   3.062   5.946   7.361 -0.7977 -0.8329  1.4302
   54CHL1   C14 3938   2.998   6.101   7.504 -0.1074 -0.5066  0.2991
   54CHL1   H14 3939   2.940   6.195   7.486 -1.9648 -1.4183  1.3588
   54CHL1   C15 3940   3.129   6.146   7.569  0.4434 -0.1677  0.0896
   54CHL1  H15A 3941   3.188   6.052   7.563  0.1359 -0.3845  0.3978
   54CHL1  H15B 3942   3.179   6.232   7.519  0.4970 -0.5416 -0.5036
   54CHL1   C16 3943   3.093   6.172   7.717 -0.6207  0.2401 -0.0828
   54CHL1  H16A 3944   3.183   6.142   7.777  0.7313  1.7357 -1.3057
   54CHL1  H16B 3945   3.077   6.281   7.736 -2.1838 -0.1798  1.0780
   54CHL1   C17 3946   2.961   6.093   7.736  0.8409  0.0775  0.3247
   54CHL1   H17 3947   2.882   6.171   7.727  0.3358 -0.3040  1.4748
   54CHL1   C13 3948   2.928   6.012   7.608  0.2641  0.1048  0.2909
   54CHL1   C18 3949   3.006   5.879   7.620  0.3678 -0.3197  0.7410
   54CHL1  H18A 3950   3.112   5.886   7.650  0.2022 -2.1188  1.7922
   54CHL1  H18B 3951   2.957   5.814   7.696 -1.6280 -0.3051 -0.4925
   54CHL1  H18C 3952   3.002   5.832   7.520 -0.4868 -2.6459  1.8269
   54CHL1   C12 3953   2.789   5.997   7.558  0.1095 -0.1019  0.0779
   54CHL1  H12A 3954   2.727   5.930   7.621 -1.8847  1.3718 -0.2561
   54CHL1  H12B 3955   2.736   6.095   7.561  0.5606  0.1592 -0.4190
   54CHL1   C11 3956   2.786   5.944   7.414 -0.1797  0.3336  0.3326
   54CHL1  H11A 3957   2.835   5.845   7.413  2.4672  1.5831  0.8311
   54CHL1  H11B 3958   2.678   5.932   7.392  0.0941 -0.9664 -0.2952
   54CHL1    C9 3959   2.867   6.025   7.315  0.8486  0.2919  0.5752
   54CHL1    H9 3960   2.825   6.127   7.312  0.8518  0.2982  0.7354
   54CHL1   C10 3961   2.869   5.973   7.169 -0.5965  1.0354  0.5171
   54CHL1   C19 3962   2.891   5.819   7.168 -0.7192 -0.0950  0.0436
   54CHL1  H19A 3963   2.959   5.788   7.251  1.2403  0.6105 -1.2611
   54CHL1  H19B 3964   2.794   5.765   7.174 -2.9521  3.8638  1.4768
   54CHL1  H19C 3965   2.930   5.777   7.073  1.5902  0.8196  0.5423
   54CHL1    C1 3966   2.737   6.009   7.115 -0.5206 -0.0132  0.0342
   54CHL1   H1A 3967   2.663   5.960   7.181 -1.2229 -0.1648 -0.8725
   54CHL1   H1B 3968   2.737   6.119   7.132  2.4560  0.0621 -0.0299
   54CHL1    C2 3969   2.730   5.982   6.966 -0.2738 -0.0283 -0.3865
   54CHL1   H2A 3970   2.629   6.007   6.926  0.2541  1.5610 -0.7471
   54CHL1   H2B 3971   2.760   5.876   6.953 -0.9769 -0.4763  1.4368
   54CHL1   C20 3972   2.941   6.030   7.875  0.0435 -0.1887  0.0741
   54CHL1   H20 3973   3.029   5.964   7.891  0.0943  0.1492  1.2324
   54CHL1   C21 3974   2.808   5.949   7.877 -0.1989 -1.4317 -0.4937
   54CHL1  H21A 3975   2.772   5.943   7.981 -0.4412 -2.5926 -0.6299
   54CHL1  H21B 3976   2.821   5.845   7.840 -1.3093 -1.4963 -0.7174
   54CHL1  H21C 3977   2.730   6.000   7.817  0.4835  2.0169  1.4055
   54CHL1   C22 3978   2.953   6.134   7.983 -0.1494  0.1879  0.2884
   54CHL1  H22A 3979   3.047   6.193   7.982 -0.0883  0.1385  1.5644
   54CHL1  H22B 3980   2.865   6.201   7.974  0.6222  1.0804 -0.7132
   54CHL1   C23 3981   2.963   6.085   8.133  0.6129  0.5067  0.4743
   54CHL1  H23A 3982   2.869   6.032   8.161  1.7112  0.2832  3.9357
   54CHL1  H23B 3983   3.038   6.005   8.150  0.6082  0.1352 -1.1688
   54CHL1   C24 3984   2.973   6.199   8.228  0.5193  0.0006  0.5424
   54CHL1  H24A 3985   3.056   6.267   8.200  0.9852 -0.6758  0.2547
   54CHL1  H24B 3986   2.879   6.258   8.226  0.8155  0.4717 -2.4080
   54CHL1   C25 3987   3.007   6.158   8.377  0.1576  0.2839 -0.7627
   54CHL1   H25 3988   2.922   6.100   8.420  0.6292  0.3522  0.2896
   54CHL1   C26 3989   3.125   6.059   8.387 -0.4843  0.3000  0.3170
   54CHL1  H26A 3990   3.215   6.112   8.349 -0.3899  0.2157  0.4235
   54CHL1  H26B 3991   3.131   6.025   8.492 -0.5657  1.3667  0.6750
   54CHL1  H26C 3992   3.121   5.965   8.328 -0.8419 -0.1048  0.9867
   54CHL1   C27 3993   3.033   6.277   8.479 -0.1953 -0.1770 -0.5152
   54CHL1  H27A 3994   3.036   6.239   8.583  1.9245  0.2624 -0.3827
   54CHL1  H27B 3995   3.127   6.330   8.451 -0.6122  0.6994 -0.2717
   54CHL1  H27C 3996   2.951   6.352   8.473 -0.7457 -0.8196 -1.1163
   55CHL1    C3 3997   2.133   0.333   7.156  0.3445  0.1149  0.0446
   55CHL1    H3 3998   2.047   0.267   7.180  0.0924  0.0268 -1.0616
   55CHL1    O3 3999   2.156   0.317   7.016  0.0023 -0.1932 -0.1908
   55CHL1   H3' 4000   2.250   0.316   7.000 -0.3255 -0.4088 -2.3412
   55CHL1    C4 4001   2.096   0.480   7.184 -0.3244  0.4206  0.6656
   55CHL1   H4A 4002   2.182   0.544   7.154  0.4065 -1.1933 -0.7563
   55CHL1   H4B 4003   2.014   0.504   7.114  0.7794  1.9117 -0.1444
   55CHL1    C5 4004   2.067   0.502   7.335 -0.6761  0.0602  0.2224
   55CHL1    C6 4005   1.955   0.553   7.375  0.5613 -0.5407  0.2196
   55CHL1    H6 4006   1.876   0.580   7.303 -0.7645 -1.0531  1.4561
   55CHL1    C7 4007   1.926   0.564   7.519 -0.5559 -0.0263 -0.1188
   55CHL1   H7A 4008   1.886   0.665   7.543  1.7841  0.5876  1.3051
   55CHL1   H7B 4009   1.847   0.492   7.549 -0.3292 -0.2285 -0.0070
   55CHL1    C8 4010   2.047   0.562   7.615  0.9713 -0.2492 -0.2004
   55CHL1    H8 4011   2.115   0.649   7.605  0.4390  0.1181 -0.6621
   55CHL1   C14 4012   1.996   0.554   7.766  0.3652 -0.0954  0.1299
   55CHL1   H14 4013   1.940   0.459   7.774 -1.3064  0.7710 -1.1056
   55CHL1   C15 4014   1.895   0.650   7.825  0.7728 -0.4531  0.6228
   55CHL1  H15A 4015   1.940   0.746   7.789  0.8743 -1.4572 -2.0861
   55CHL1  H15B 4016   1.795   0.647   7.777  0.8081 -0.6160  0.5586
   55CHL1   C16 4017   1.905   0.631   7.978  0.5083 -0.7135 -0.0310
   55CHL1  H16A 4018   1.934   0.728   8.023 -2.1184 -0.4363  1.1099
   55CHL1  H16B 4019   1.812   0.590   8.022 -0.5077 -0.3073 -1.7664
   55CHL1   C17 4020   2.015   0.520   7.994  0.4199 -0.3875 -0.2716
   55CHL1   H17 4021   1.965   0.421   7.993  0.5435 -0.4635  0.5935
   55CHL1   C13 4022   2.107   0.537   7.878  1.0208 -0.1092  0.8269
   55CHL1   C18 4023   2.197   0.658   7.905  0.2906  0.0512 -0.2468
   55CHL1  H18A 4024   2.285   0.617   7.959 -0.7942  0.2696  1.7073
   55CHL1  H18B 4025   2.225   0.708   7.810  0.0813  0.1980 -0.2320
   55CHL1  H18C 4026   2.147   0.739   7.962 -0.2831  1.2939 -2.4515
   55CHL1   C12 4027   2.181   0.412   7.833  0.5023 -0.5079 -0.5521
   55CHL1  H12A 4028   2.258   0.375   7.904  0.3263 -1.7127 -0.9723
   55CHL1  H12B 4029   2.105   0.331   7.834 -1.3233  1.1769  0.7901
   55CHL1   C11 4030   2.233   0.406   7.692  0.2184 -0.4180 -0.3586
   55CHL1  H11A 4031   2.323   0.472   7.693 -0.2441  0.3012 -3.2521
   55CHL1  H11B 4032   2.275   0.304   7.678 -2.8649 -2.0354  1.5362
   55CHL1    C9 4033   2.126   0.441   7.584  0.4429 -0.0330  0.2267
   55CHL1    H9 4034   2.070   0.345   7.592  3.2814 -1.8237 -0.8553
   55CHL1   C10 4035   2.174   0.450   7.434 -0.1554 -0.4258  0.5961
   55CHL1   C19 4036   2.298   0.539   7.432  0.2009 -0.2131 -0.6720
   55CHL1  H19A 4037   2.382   0.496   7.490  0.5698  2.1739  0.6503
   55CHL1  H19B 4038   2.324   0.561   7.326  0.1531  1.3744 -0.3714
   55CHL1  H19C 4039   2.265   0.639   7.470 -0.8213 -1.4601  1.8301
   55CHL1    C1 4040   2.216   0.305   7.391 -0.2075  0.7619  0.1016
   55CHL1   H1A 4041   2.294   0.276   7.464 -2.6915 -0.9234  2.1932
   55CHL1   H1B 4042   2.123   0.248   7.411  1.8053 -2.8076 -0.3427
   55CHL1    C2 4043   2.249   0.289   7.237 -0.2084 -0.4123 -0.1426
   55CHL1   H2A 4044   2.254   0.179   7.224  0.0322 -0.3224 -0.8316
   55CHL1   H2B 4045   2.342   0.344   7.210  0.2414 -1.1046 -0.0163
   55CHL1   C20 4046   2.071   0.526   8.143 -0.2073 -0.6538  0.3631
   55CHL1   H20 4047   2.128   0.621   8.146 -1.7632  0.4102 -2.0554
   55CHL1   C21 4048   2.162   0.410   8.163  0.1191 -0.3966  0.2721
   55CHL1  H21A 4049   2.266   0.417   8.123 -0.8298 -3.2064 -2.9628
   55CHL1  H21B 4050   2.118   0.319   8.117 -1.4177 -0.9807  2.8229
   55CHL1  H21C 4051   2.165   0.379   8.269 -1.6502  0.6316  0.6348
   55CHL1   C22 4052   1.958   0.532   8.252 -0.9257 -0.1887 -0.2186
   55CHL1  H22A 4053   1.998   0.581   8.344 -0.4370  0.6536 -0.8729
   55CHL1  H22B 4054   1.870   0.593   8.222 -0.9684 -0.1637 -0.0436
   55CHL1   C23 4055   1.895   0.392   8.278  0.9409  0.5727 -0.4361
   55CHL1  H23A 4056   1.836   0.382   8.184  1.9933 -0.1365 -1.0410
   55CHL1  H23B 4057   1.962   0.304   8.272 -0.8483 -0.6982 -2.9230
   55CHL1   C24 4058   1.803   0.398   8.401 -0.4420 -0.7016  0.8959
   55CHL1  H24A 4059   1.722   0.470   8.379  2.3082  2.2067 -0.1698
   55CHL1  H24B 4060   1.749   0.302   8.415 -0.5268 -0.5693  1.4546
   55CHL1   C25 4061   1.868   0.422   8.535  0.4730  0.3271 -1.2217
   55CHL1   H25 4062   1.927   0.516   8.535  2.5726 -0.9535 -0.5934
   55CHL1   C26 4063   1.763   0.436   8.646 -0.0253  0.5041 -0.0173
   55CHL1  H26A 4064   1.703   0.343   8.651 -0.1922  0.5958 -0.3136
   55CHL1  H26B 4065   1.816   0.442   8.743 -1.7175  0.4748  0.9249
   55CHL1  H26C 4066   1.689   0.517   8.625 -2.1864 -2.1289 -3.1058
   55CHL1   C27 4067   1.972   0.306   8.562  0.3474  0.0533 -0.1210
   55CHL1  H27A 4068   2.006   0.312   8.668 -2.0399  1.6842  0.5850
   55CHL1  H27B 4069   1.939   0.200   8.555  2.2340 -0.5890  0.4052
   55CHL1  H27C 4070   2.061   0.309   8.495  2.0057 -0.2216  2.0215
   56CHL1    C3 4071   1.817   5.811   6.902 -0.2770 -0.3995  0.7256
   56CHL1    H3 4072   1.811   5.921   6.913 -1.8652 -0.2106 -1.7157
   56CHL1    O3 4073   1.859   5.803   6.767  0.1672 -0.2779  0.4431
   56CHL1   H3' 4074   1.912   5.723   6.762  0.1182 -0.1550 -3.4027
   56CHL1    C4 4075   1.925   5.743   6.993 -0.2096  0.4959  0.3297
   56CHL1   H4A 4076   1.956   5.643   6.957  0.3088  0.5089  0.7255
   56CHL1   H4B 4077   2.015   5.807   6.983  0.8999 -0.8190  1.5743
   56CHL1    C5 4078   1.875   5.752   7.134 -0.1535 -0.1331  0.5704
   56CHL1    C6 4079   1.948   5.807   7.232 -0.3444  0.1161 -0.5195
   56CHL1    H6 4080   2.044   5.855   7.205  0.4907 -1.5924 -0.6789
   56CHL1    C7 4081   1.903   5.820   7.379 -0.0404  0.0074 -0.1851
   56CHL1   H7A 4082   1.989   5.787   7.441 -0.3075 -0.7648 -0.2208
   56CHL1   H7B 4083   1.884   5.927   7.403  3.9289  0.5950  0.6912
   56CHL1    C8 4084   1.776   5.732   7.422 -0.0056 -0.1126 -0.1170
   56CHL1    H8 4085   1.801   5.624   7.427  1.1068  0.1974  1.3589
   56CHL1   C14 4086   1.705   5.783   7.550  0.2142  0.5983 -0.4798
   56CHL1   H14 4087   1.658   5.881   7.529 -1.5169 -0.2419 -0.5394
   56CHL1   C15 4088   1.793   5.816   7.675  0.2164  0.3396 -0.3654
   56CHL1  H15A 4089   1.876   5.744   7.696  0.6819  0.4357 -1.7876
   56CHL1  H15B 4090   1.835   5.918   7.663  0.9488  0.1005  0.1388
   56CHL1   C16 4091   1.689   5.801   7.791  0.7457  0.6768 -0.7280
   56CHL1  H16A 4092   1.710   5.720   7.865 -0.8030  0.1961 -0.7919
   56CHL1  H16B 4093   1.673   5.893   7.851 -2.2126  0.3500 -0.9667
   56CHL1   C17 4094   1.548   5.764   7.730 -0.2083  1.0057 -0.0522
   56CHL1   H17 4095   1.496   5.861   7.713 -0.4247  1.2332  1.8900
   56CHL1   C13 4096   1.589   5.701   7.597 -0.6975 -0.4317 -0.0310
   56CHL1   C18 4097   1.634   5.560   7.625 -0.1588 -0.1235 -0.2041
   56CHL1  H18A 4098   1.681   5.516   7.534  1.8333  0.8493  0.3155
   56CHL1  H18B 4099   1.713   5.561   7.703 -1.0591  1.9360  0.7116
   56CHL1  H18C 4100   1.543   5.504   7.653 -0.5977  0.5148 -0.3413
   56CHL1   C12 4101   1.485   5.696   7.483 -0.2451 -1.0272 -0.0499
   56CHL1  H12A 4102   1.398   5.631   7.507 -1.3816  0.5307  0.1319
   56CHL1  H12B 4103   1.452   5.800   7.498  0.6269 -1.1852  3.3722
   56CHL1   C11 4104   1.539   5.669   7.341  0.5411  0.3547  0.8671
   56CHL1  H11A 4105   1.547   5.558   7.331  0.5216  0.5009 -0.9712
   56CHL1  H11B 4106   1.465   5.696   7.263 -0.6382 -2.5060  0.9387
   56CHL1    C9 4107   1.673   5.738   7.309  0.6038 -0.1722  0.4980
   56CHL1    H9 4108   1.646   5.846   7.308  3.6581  0.7560  5.4334
   56CHL1   C10 4109   1.732   5.696   7.166 -0.0130  0.1921 -0.3900
   56CHL1   C19 4110   1.742   5.540   7.167  0.2446  0.1237 -0.4573
   56CHL1  H19A 4111   1.763   5.500   7.269  0.1414  2.6054  0.5790
   56CHL1  H19B 4112   1.645   5.493   7.141  0.0777  1.7762 -2.9995
   56CHL1  H19C 4113   1.810   5.501   7.088  1.3595 -0.7208  0.8878
   56CHL1    C1 4114   1.629   5.751   7.056 -0.3376 -0.2564 -0.1256
   56CHL1   H1A 4115   1.533   5.695   7.058 -1.9950  2.3893 -1.8730
   56CHL1   H1B 4116   1.610   5.853   7.097  0.2379 -0.3795  0.4520
   56CHL1    C2 4117   1.680   5.742   6.918  0.2112  0.5695  0.0962
   56CHL1   H2A 4118   1.609   5.775   6.839  0.8336  1.5294 -0.0713
   56CHL1   H2B 4119   1.689   5.633   6.895 -2.2928  0.5451 -0.9320
   56CHL1   C20 4120   1.461   5.674   7.835  0.3696  0.4295 -0.4028
   56CHL1   H20 4121   1.515   5.582   7.863 -0.3750 -0.0577 -0.5544
   56CHL1   C21 4122   1.329   5.638   7.778  1.1037  0.3080  0.3075
   56CHL1  H21A 4123   1.340   5.575   7.687 -1.7145 -1.3734  1.0761
   56CHL1  H21B 4124   1.278   5.732   7.750 -0.9166 -0.3605  1.6200
   56CHL1  H21C 4125   1.267   5.582   7.851  0.2772 -0.2068 -0.7767
   56CHL1   C22 4126   1.442   5.755   7.968  0.4940 -0.3325  0.2596
   56CHL1  H22A 4127   1.540   5.762   8.020  1.0362  0.2023 -0.8293
   56CHL1  H22B 4128   1.400   5.855   7.947 -0.6476 -1.2899 -2.2444
   56CHL1   C23 4129   1.361   5.669   8.073 -0.3879  0.2251 -0.3779
   56CHL1  H23A 4130   1.253   5.650   8.054 -0.0953 -1.4891 -0.4314
   56CHL1  H23B 4131   1.406   5.568   8.078  1.5738  0.9292 -2.8593
   56CHL1   C24 4132   1.371   5.732   8.206  0.1661  1.1268 -0.3322
   56CHL1  H24A 4133   1.479   5.724   8.231  0.7932  1.2416 -2.8951
   56CHL1  H24B 4134   1.354   5.841   8.199  0.3005  1.1765  0.0648
   56CHL1   C25 4135   1.281   5.669   8.317  0.3153  0.4414 -0.1510
   56CHL1   H25 4136   1.179   5.686   8.277 -0.1983 -1.1453  0.4566
   56CHL1   C26 4137   1.298   5.513   8.328 -0.0952 -0.2418  0.3402
   56CHL1  H26A 4138   1.244   5.464   8.412  0.7161 -1.0050  0.4180
   56CHL1  H26B 4139   1.401   5.491   8.364  0.1015  1.9028  1.2215
   56CHL1  H26C 4140   1.293   5.468   8.227  0.8226  1.9660 -0.7356
   56CHL1   C27 4141   1.307   5.736   8.451 -0.3033  0.3580 -0.2216
   56CHL1  H27A 4142   1.289   5.846   8.446  0.2612  0.4532 -0.1929
   56CHL1  H27B 4143   1.233   5.703   8.526 -0.0899  0.9297  0.2439
   56CHL1  H27C 4144   1.411   5.733   8.491 -0.9372  0.4740  1.4618
   57SAPC     N 4145   1.482   2.076  11.099  0.1897  0.0796  0.2363
   57SAPC   C12 4146   1.394   2.154  11.008 -0.0279  0.2772  0.0180
   57SAPC  H12A 4147   1.447   2.244  10.979 -2.5922  2.1050  0.7669
   57SAPC  H12B 4148   1.309   2.173  11.072 -0.0968 -3.0146  0.9724
   57SAPC   C13 4149   1.510   2.144  11.222 -0.2942 -0.0227 -0.6303
   57SAPC  H13A 4150   1.421   2.163  11.280  0.8681 -0.4147  1.3003
   57SAPC  H13B 4151   1.573   2.080  11.281 -0.4903  1.2583  1.0123
   57SAPC  H13C 4152   1.559   2.240  11.213  1.4376 -0.9571 -1.3268
   57SAPC   C14 4153   1.425   1.937  11.127  0.1204  0.5551 -0.1410
   57SAPC  H14A 4154   1.337   1.946  11.189  0.7470  1.3878  0.6491
   57SAPC  H14B 4155   1.405   1.895  11.030  2.5190  1.3422 -1.0127
   57SAPC  H14C 4156   1.493   1.877  11.185  1.7490  1.9516 -0.5506
   57SAPC   C15 4157   1.613   2.047  11.033  0.0821 -1.0713  0.1377
   57SAPC  H15A 4158   1.595   2.010  10.933  0.3295 -1.3231  0.1872
   57SAPC  H15B 4159   1.673   2.136  11.039  2.2532 -2.4680 -0.4645
   57SAPC  H15C 4160   1.669   1.973  11.088  1.2036  0.7439  1.4630
   57SAPC   C11 4161   1.331   2.090  10.881  0.3257  0.2261 -0.0216
   57SAPC  H11A 4162   1.417   2.038  10.835  0.2863  2.6619 -2.9640
   57SAPC  H11B 4163   1.285   2.161  10.809 -0.3540  0.5672  0.7354
   57SAPC     P 4164   1.187   1.867  10.852  0.0305  0.1240 -0.0093
   57SAPC   O13 4165   1.299   1.771  10.864 -0.1264 -0.2530  0.2135
   57SAPC   O14 4166   1.060   1.827  10.917 -0.0976  0.2626 -0.5378
   57SAPC   O12 4167   1.230   2.008  10.913 -0.5147  0.1330 -0.1238
   57SAPC   O11 4168   1.160   1.893  10.701 -0.2859 -0.0490  0.8927
   57SAPC    C1 4169   1.041   1.970  10.658 -0.2303  0.2074 -0.5250
   57SAPC    HA 4170   0.948   1.917  10.688 -1.6092  2.7496 -0.1724
   57SAPC    HB 4171   1.034   2.070  10.706  1.1633  0.7548 -1.4217
   57SAPC    C2 4172   1.046   1.995  10.502 -0.6374  0.1969  0.0307
   57SAPC    HS 4173   0.947   2.011  10.455 -0.9306  0.0286  0.5910
   57SAPC   O21 4174   1.106   1.883  10.433 -0.0182 -0.0579  0.1665
   57SAPC   C21 4175   1.019   1.779  10.428  0.3334  0.3019 -0.3687
   57SAPC   O22 4176   0.901   1.778  10.460  0.2331 -0.4578  0.0639
   57SAPC   C22 4177   1.110   1.659  10.415 -0.2927  0.0752  0.6191
   57SAPC   H2R 4178   1.136   1.653  10.307 -0.7073  0.9029  0.4680
   57SAPC   H2S 4179   1.205   1.677  10.468  0.7692 -1.7655 -0.5853
   57SAPC    C3 4180   1.128   2.125  10.474  0.2600  0.4623  0.3805
   57SAPC    HX 4181   1.235   2.105  10.498  0.7579  0.6553 -1.5586
   57SAPC    HY 4182   1.105   2.217  10.532 -1.8435  0.1636  0.0540
   57SAPC   O31 4183   1.119   2.140  10.336  0.0891 -0.2034  0.0094
   57SAPC   C31 4184   1.028   2.229  10.277 -1.0246 -0.2063 -0.0131
   57SAPC   O32 4185   0.940   2.287  10.334 -0.2824 -0.0434 -0.1371
   57SAPC   C32 4186   1.048   2.235  10.121  0.4374 -0.0762 -0.8662
   57SAPC   H2X 4187   1.004   2.136  10.094 -3.0015  1.6216 -1.7305
   57SAPC   H2Y 4188   1.158   2.229  10.104  0.7428 -1.8083  1.4022
   57SAPC   C23 4189   1.044   1.529  10.470 -0.2027 -0.7677  0.7821
   57SAPC   H3R 4190   0.980   1.556  10.557  1.0340 -0.7928  1.6971
   57SAPC   H3S 4191   1.103   1.441  10.501 -1.9649 -2.6536 -1.0499
   57SAPC   C24 4192   0.931   1.472  10.378  1.1245 -0.2386  0.6596
   57SAPC   H4R 4193   0.865   1.554  10.341 -0.4734 -0.6143  2.5843
   57SAPC   H4S 4194   0.873   1.409  10.449  1.0088  0.9498  1.6534
   57SAPC   C25 4195   0.977   1.380  10.272  0.5638  0.0319  0.1280
   57SAPC   H5R 4196   1.045   1.298  10.301 -0.9063 -1.6560 -1.1427
   57SAPC   C26 4197   0.950   1.384  10.140 -0.1486 -0.9810 -0.2674
   57SAPC   H6R 4198   0.995   1.318  10.064  0.9997 -2.1009  1.3445
   57SAPC   C27 4199   0.860   1.483  10.070  0.3630  0.1188  0.6866
   57SAPC   H7R 4200   0.819   1.566  10.131 -0.6863  0.5311 -0.5430
   57SAPC   H7S 4201   0.768   1.430  10.039  0.9750  0.0029 -0.9991
   57SAPC   C28 4202   0.931   1.533   9.944 -0.1914 -0.0899  0.1620
   57SAPC   H8R 4203   1.039   1.550   9.952  0.5443 -2.3718 -3.8829
   57SAPC   C29 4204   0.881   1.538   9.820  0.1360  0.1844 -0.1593
   57SAPC   H9R 4205   0.939   1.572   9.733 -0.2018  2.5213  0.4873
   57SAPC  C210 4206   0.748   1.489   9.791 -0.2003 -0.3772  0.3946
   57SAPC  H10R 4207   0.676   1.524   9.868  0.9965 -0.5179  1.6071
   57SAPC  H10S 4208   0.740   1.380   9.812  1.4799 -0.6648 -0.3653
   57SAPC  C211 4209   0.703   1.522   9.643 -0.5969 -0.5729 -0.5642
   57SAPC  H11R 4210   0.713   1.427   9.588  2.0440 -0.2664 -0.6698
   57SAPC  C212 4211   0.655   1.633   9.583  0.0022  0.7513 -1.1064
   57SAPC  H12R 4212   0.628   1.629   9.476 -1.0789  0.0833 -0.8219
   57SAPC  C213 4213   0.635   1.764   9.661  0.0106  0.0296 -0.4852
   57SAPC  H13R 4214   0.640   1.737   9.768 -1.1754 -3.3402 -1.2020
   57SAPC  H13S 4215   0.533   1.808   9.652  0.0215  0.2298  0.3403
   57SAPC  C214 4216   0.744   1.855   9.639 -0.1628 -0.3228  0.2963
   57SAPC  H14R 4217   0.812   1.822   9.559 -0.8903 -1.7080  0.2342
   57SAPC  C215 4218   0.777   1.969   9.708  0.3595 -0.3566  0.0113
   57SAPC  H15R 4219   0.862   2.029   9.671  1.5734 -1.8174  0.3639
   57SAPC  C216 4220   0.702   2.031   9.827  0.0509  0.0835  0.1419
   57SAPC  H16R 4221   0.597   1.994   9.831 -0.4020  1.4621  1.6436
   57SAPC  H16S 4222   0.680   2.139   9.813 -0.2408  0.1540  1.0753
   57SAPC  C217 4223   0.766   2.004   9.958  0.0265 -0.3310 -0.8779
   57SAPC  H17R 4224   0.873   2.033   9.952  0.6861 -2.2679  0.8796
   57SAPC  H17S 4225   0.753   1.896   9.979  1.8843 -0.7526 -1.8469
   57SAPC  C218 4226   0.699   2.084  10.075  0.5424  0.4152  0.2346
   57SAPC  H18R 4227   0.594   2.056  10.053  1.0230 -0.9295 -0.4495
   57SAPC  H18S 4228   0.710   2.194  10.074 -0.0805  0.4802  0.6458
   57SAPC  C219 4229   0.735   2.029  10.211  0.1148 -0.4719  0.1418
   57SAPC  H19R 4230   0.845   2.028  10.224  0.6018 -1.0345 -3.5306
   57SAPC  H19S 4231   0.712   1.921  10.222 -1.3758 -0.1854 -0.0807
   57SAPC  C220 4232   0.661   2.110  10.321 -0.3224 -0.4381  0.7576
   57SAPC  H20R 4233   0.554   2.086  10.304 -0.6571 -1.1198  3.6077
   57SAPC  H20S 4234   0.680   2.219  10.309 -2.0815 -0.6027 -4.9355
   57SAPC  H20T 4235   0.683   2.082  10.426  1.8130  1.1867  0.7726
   57SAPC   C33 4236   0.985   2.356  10.046  0.3173  0.2436 -1.0354
   57SAPC   H3X 4237   1.033   2.449  10.083  3.8475 -2.1325  0.6396
   57SAPC   H3Y 4238   0.878   2.365  10.075  0.0135 -1.8875 -1.4020
   57SAPC   C34 4239   1.002   2.346   9.896  0.6277  0.5632 -0.0632
   57SAPC   H4X 4240   0.963   2.248   9.861  0.6787  1.0719 -1.5639
   57SAPC   H4Y 4241   1.111   2.351   9.880  0.8745  0.0985  1.4169
   57SAPC   C35 4242   0.913   2.456   9.828 -0.0832 -0.0508 -0.6363
   57SAPC   H5X 4243   0.958   2.556   9.849  1.3038 -1.0322  1.2279
   57SAPC   H5Y 4244   0.809   2.447   9.865 -0.2342  1.1760 -0.7298
   57SAPC   C36 4245   0.929   2.464   9.673 -0.4518  1.1285 -0.1280
   57SAPC   H6X 4246   1.036   2.456   9.645  0.4789 -0.0149  3.4342
   57SAPC   H6Y 4247   0.905   2.571   9.658  0.0316  1.3412  0.5732
   57SAPC   C37 4248   0.852   2.364   9.574  0.2309 -0.4528  0.2918
   57SAPC   H7X 4249   0.744   2.376   9.593  0.0806  0.4497 -1.0710
   57SAPC   H7Y 4250   0.884   2.262   9.605 -1.4538 -0.8751  0.6631
   57SAPC   C38 4251   0.877   2.408   9.425 -0.2953 -0.0301 -0.1293
   57SAPC   H8X 4252   0.980   2.384   9.393  0.0383  2.1020 -0.7277
   57SAPC   H8Y 4253   0.848   2.514   9.406  0.6064 -0.1321 -2.1562
   57SAPC   C39 4254   0.785   2.323   9.338 -0.4199  0.0771 -0.3555
   57SAPC   H9X 4255   0.677   2.349   9.351 -1.5977 -4.3112 -0.4163
   57SAPC   H9Y 4256   0.803   2.215   9.358  1.3611  0.4926  0.3324
   57SAPC  C310 4257   0.826   2.349   9.190  0.1540  0.8166 -0.3511
   57SAPC  H10X 4258   0.936   2.354   9.174  0.0736  0.3164 -1.0700
   57SAPC  H10Y 4259   0.785   2.447   9.157 -1.8826  0.2498  0.3764
   57SAPC  C311 4260   0.779   2.234   9.101 -0.0553 -0.3134 -0.7386
   57SAPC  H11X 4261   0.668   2.232   9.092 -0.2624  0.7123  1.2075
   57SAPC  H11Y 4262   0.812   2.139   9.147 -1.5926 -0.2700  0.5000
   57SAPC  C312 4263   0.848   2.235   8.963 -0.3017 -0.1685  0.1995
   57SAPC  H12X 4264   0.958   2.232   8.977 -0.5010  1.8271  2.5538
   57SAPC  H12Y 4265   0.818   2.332   8.918  0.1415  0.7430  1.8026
   57SAPC  C313 4266   0.817   2.118   8.867  0.0492  0.4561 -0.0755
   57SAPC  H13X 4267   0.829   2.017   8.913  1.6804 -0.6768 -2.8588
   57SAPC  H13Y 4268   0.896   2.126   8.790  0.0220  0.7817 -0.0713
   57SAPC  C314 4269   0.671   2.125   8.812 -0.4068 -0.0424 -0.4289
   57SAPC  H14X 4270   0.652   2.231   8.785 -0.1231  0.6505  1.9906
   57SAPC  H14Y 4271   0.612   2.102   8.903  4.3151 -1.8155  2.3268
   57SAPC  C315 4272   0.642   2.039   8.691 -0.2157  0.2217 -0.4224
   57SAPC  H15X 4273   0.730   2.019   8.626 -0.2717  4.1571 -1.8162
   57SAPC  H15Y 4274   0.566   2.096   8.633 -1.7583 -1.3652 -0.0246
   57SAPC  C316 4275   0.600   1.898   8.735  0.0461 -0.0554  0.2751
   57SAPC  H16X 4276   0.537   1.906   8.826 -0.7524 -2.2150 -0.0659
   57SAPC  H16Y 4277   0.689   1.836   8.761  0.1149 -0.5680 -1.1621
   57SAPC  C317 4278   0.508   1.833   8.628  0.6569 -0.1390 -1.5299
   57SAPC  H17X 4279   0.554   1.819   8.529  0.3312  0.4497 -1.7697
   57SAPC  H17Y 4280   0.419   1.894   8.601 -1.5363 -1.2236  2.7046
   57SAPC  C318 4281   0.469   1.690   8.667  0.2205 -0.4638 -0.3333
   57SAPC  H18X 4282   0.396   1.648   8.595 -0.4589  0.9815 -0.5115
   57SAPC  H18Y 4283   0.412   1.668   8.760  0.9554 -1.4490 -0.1054
   57SAPC  H18Z 4284   0.560   1.626   8.670  0.8807  0.4314 -1.1312
   58SAPC     N 4285   3.545   6.742  10.812  0.2125  0.2090 -0.4748
   58SAPC   C12 4286   3.484   6.810  10.692 -0.0477  0.0689  0.1008
   58SAPC  H12A 4287   3.568   6.817  10.624 -1.0872  0.3240 -1.1721
   58SAPC  H12B 4288   3.464   6.915  10.709  0.5119  0.1966  0.0121
   58SAPC   C13 4289   3.647   6.821  10.889 -0.0508 -0.6799  0.1850
   58SAPC  H13A 4290   3.678   6.770  10.979 -0.7739 -0.0595  0.7935
   58SAPC  H13B 4291   3.732   6.845  10.828 -0.0602  1.5638  0.9982
   58SAPC  H13C 4292   3.610   6.916  10.925 -2.0189 -1.1306 -0.5884
   58SAPC   C14 4293   3.443   6.720  10.916  0.5537  0.3376 -0.3825
   58SAPC  H14A 4294   3.477   6.647  10.989  0.5463  1.0484  0.3300
   58SAPC  H14B 4295   3.410   6.810  10.964 -1.9722 -0.2680 -0.8965
   58SAPC  H14C 4296   3.355   6.680  10.867 -0.7174  2.2064  0.3066
   58SAPC   C15 4297   3.605   6.609  10.778 -0.2845 -0.1162 -0.6134
   58SAPC  H15A 4298   3.525   6.536  10.779 -1.8018  1.5301  1.3722
   58SAPC  H15B 4299   3.646   6.614  10.678 -1.3036 -0.8523 -1.0767
   58SAPC  H15C 4300   3.674   6.573  10.853 -2.2142  0.0322  1.2970
   58SAPC   C11 4301   3.377   6.740  10.607  0.4643 -0.6163  0.0079
   58SAPC  H11A 4302   3.423   6.646  10.571 -1.4448 -1.2339 -0.9147
   58SAPC  H11B 4303   3.364   6.790  10.508  1.6703  0.1480  0.2213
   58SAPC     P 4304   3.162   6.862  10.684 -0.1832 -0.3192 -0.1653
   58SAPC   O13 4305   3.112   6.866  10.822 -0.2993  0.7339  0.0897
   58SAPC   O14 4306   3.231   6.983  10.631 -0.0551  0.4983  0.5684
   58SAPC   O12 4307   3.249   6.735  10.672  0.0948 -0.1145  0.0752
   58SAPC   O11 4308   3.040   6.834  10.592 -0.2024 -0.3560 -0.7962
   58SAPC    C1 4309   2.969   6.715  10.592  0.7023  0.3302  0.2409
   58SAPC    HA 4310   2.981   6.646  10.679 -1.4710 -0.7070 -0.2624
   58SAPC    HB 4311   2.863   6.737  10.567  1.1194  0.3594 -1.4999
   58SAPC    C2 4312   3.023   6.619  10.475 -0.1730 -0.0795 -0.0644
   58SAPC    HS 4313   3.134   6.625  10.482 -0.2971  0.4532  1.9481
   58SAPC   O21 4314   2.968   6.657  10.350 -0.4103  0.1859  0.4131
   58SAPC   C21 4315   3.055   6.701  10.264 -1.1526 -0.1102  0.7478
   58SAPC   O22 4316   3.179   6.708  10.276  0.4328  0.5464  0.5405
   58SAPC   C22 4317   2.978   6.725  10.130 -0.3025  0.6404 -0.5779
   58SAPC   H2R 4318   2.961   6.624  10.087  1.3225  0.2194 -0.2609
   58SAPC   H2S 4319   2.880   6.771  10.152 -1.1490 -1.3158 -0.1416
   58SAPC    C3 4320   2.962   6.474  10.494 -0.0827  0.4340 -0.5851
   58SAPC    HX 4321   2.851   6.480  10.488 -0.3180 -1.9197  0.5945
   58SAPC    HY 4322   2.973   6.429  10.596 -1.6235 -1.8913 -1.3912
   58SAPC   O31 4323   2.989   6.369  10.400  0.0331 -0.4613  0.0062
   58SAPC   C31 4324   3.116   6.338  10.381 -0.2085  0.0879  1.1293
   58SAPC   O32 4325   3.210   6.376  10.447 -0.2635 -0.3189 -0.0236
   58SAPC   C32 4326   3.133   6.248  10.259 -0.4158  0.1328  0.2627
   58SAPC   H2X 4327   3.066   6.159  10.259 -0.8982  0.4097 -3.5107
   58SAPC   H2Y 4328   3.237   6.211  10.243 -0.3817  0.2885  0.1187
   58SAPC   C23 4329   3.047   6.816  10.030  0.0956 -0.6241 -0.3687
   58SAPC   H3R 4330   3.054   6.767   9.930  0.0361  2.3802 -1.8835
   58SAPC   H3S 4331   3.148   6.845  10.065  0.7372  0.1099 -2.7278
   58SAPC   C24 4332   2.965   6.946   9.991 -0.5990 -0.5443 -0.8387
   58SAPC   H4R 4333   2.935   7.000  10.083  1.7495 -0.6093 -0.0011
   58SAPC   H4S 4334   2.870   6.918   9.941  0.1253  0.0289 -2.5839
   58SAPC   C25 4335   3.035   7.041   9.905 -0.0732  0.2940 -0.5587
   58SAPC   H5R 4336   3.094   7.117   9.959 -0.8901  1.9049 -1.8869
   58SAPC   C26 4337   3.045   7.026   9.769 -0.4327  0.1392  0.6976
   58SAPC   H6R 4338   3.096   7.104   9.710  0.7865 -1.0777  0.1173
   58SAPC   C27 4339   2.965   6.921   9.696 -0.1182  0.6110 -0.4508
   58SAPC   H7R 4340   2.884   6.960   9.630 -1.6137 -0.5132  0.6771
   58SAPC   H7S 4341   2.923   6.848   9.769  0.8958  1.5681  1.1342
   58SAPC   C28 4342   3.059   6.847   9.607 -0.3870 -0.1844 -0.0099
   58SAPC   H8R 4343   3.120   6.778   9.666  0.7404  2.0898  1.5667
   58SAPC   C29 4344   3.079   6.863   9.472 -0.6022  0.6413 -0.3804
   58SAPC   H9R 4345   3.157   6.803   9.422 -0.6657  0.7645 -0.6301
   58SAPC  C210 4346   3.001   6.963   9.383  0.8491  0.5067 -0.0094
   58SAPC  H10R 4347   2.890   6.964   9.393  0.8811 -0.5539  0.4677
   58SAPC  H10S 4348   3.025   6.927   9.281  0.4392  0.7159 -0.1840
   58SAPC  C211 4349   3.053   7.108   9.398  0.2638 -0.0035  0.4101
   58SAPC  H11R 4350   3.013   7.153   9.489 -0.1903 -2.5558  1.5272
   58SAPC  C212 4351   3.133   7.171   9.313  0.2446  0.0834  0.4233
   58SAPC  H12R 4352   3.182   7.266   9.337 -0.0321  0.4850 -0.5739
   58SAPC  C213 4353   3.181   7.122   9.172 -0.4649  0.4029 -0.9980
   58SAPC  H13R 4354   3.170   7.212   9.108  1.7031  1.1144 -0.3996
   58SAPC  H13S 4355   3.110   7.046   9.133 -2.5019  1.3665  0.7797
   58SAPC  C214 4356   3.322   7.056   9.170 -0.8286 -0.4317  0.6256
   58SAPC  H14R 4357   3.393   7.133   9.201  0.9302 -0.6766 -2.5140
   58SAPC  C215 4358   3.357   6.933   9.134  0.2192 -0.0981  0.1040
   58SAPC  H15R 4359   3.463   6.902   9.138  0.4542  0.7819  0.9808
   58SAPC  C216 4360   3.271   6.829   9.078  0.3526  0.0775 -0.2265
   58SAPC  H16R 4361   3.164   6.847   9.103  0.0967 -0.5891 -0.7877
   58SAPC  H16S 4362   3.298   6.730   9.121  2.6307 -1.0131 -3.8875
   58SAPC  C217 4363   3.271   6.813   8.923 -0.3170 -0.1864 -0.1242
   58SAPC  H17R 4364   3.251   6.913   8.879  0.9666 -0.1592 -0.6595
   58SAPC  H17S 4365   3.194   6.736   8.900 -0.4010 -0.1639  0.0797
   58SAPC  C218 4366   3.410   6.778   8.879 -0.6314  0.7646  0.0184
   58SAPC  H18R 4367   3.448   6.685   8.926 -1.9043  0.5069  0.5323
   58SAPC  H18S 4368   3.478   6.862   8.905  1.7186 -0.2530 -2.4568
   58SAPC  C219 4369   3.422   6.782   8.725  0.1389 -0.5949 -0.2761
   58SAPC  H19R 4370   3.527   6.775   8.689 -0.0371 -0.5665 -0.8077
   58SAPC  H19S 4371   3.395   6.882   8.685  1.5339  0.4059  1.2346
   58SAPC  C220 4372   3.334   6.683   8.660 -0.0525 -0.2494 -0.0774
   58SAPC  H20R 4373   3.230   6.719   8.643 -0.0323  0.0724  0.4760
   58SAPC  H20S 4374   3.321   6.595   8.727 -1.5217  0.4924  0.6361
   58SAPC  H20T 4375   3.359   6.648   8.557  0.5381  1.0570 -0.3850
   58SAPC   C33 4376   3.093   6.328  10.137 -0.1232 -0.1247 -0.7985
   58SAPC   H3X 4377   3.138   6.428  10.149 -0.3398 -0.2935  1.6854
   58SAPC   H3Y 4378   2.982   6.334  10.138 -0.4032 -3.7952  0.0761
   58SAPC   C34 4379   3.135   6.267  10.005  0.5848 -0.1566 -0.0920
   58SAPC   H4X 4380   3.103   6.160  10.002  0.8804 -0.2105 -2.8509
   58SAPC   H4Y 4381   3.246   6.260  10.002  0.5180 -1.4947  0.3008
   58SAPC   C35 4382   3.081   6.338   9.882  0.6038 -0.0243 -0.1139
   58SAPC   H5X 4383   3.094   6.447   9.901 -0.5261 -0.3826  3.1177
   58SAPC   H5Y 4384   2.971   6.326   9.874  0.3679  0.7632  1.6581
   58SAPC   C36 4385   3.163   6.306   9.757  0.9177  0.3283  0.0239
   58SAPC   H6X 4386   3.158   6.200   9.723  1.1403  0.4174 -0.3040
   58SAPC   H6Y 4387   3.268   6.332   9.784  1.0169  0.0749 -0.1037
   58SAPC   C37 4388   3.109   6.384   9.635  0.0313 -0.4332  0.9948
   58SAPC   H7X 4389   3.136   6.490   9.649 -1.4598 -0.0214  0.8609
   58SAPC   H7Y 4390   2.998   6.381   9.633  0.0355  0.7039 -0.9003
   58SAPC   C38 4391   3.174   6.324   9.516  0.3991  1.0498 -0.1396
   58SAPC   H8X 4392   3.146   6.217   9.517 -0.7792  1.2874 -2.6821
   58SAPC   H8Y 4393   3.285   6.333   9.522  0.6024  0.5997 -2.5691
   58SAPC   C39 4394   3.139   6.396   9.382  0.2848 -0.2883 -0.1307
   58SAPC   H9X 4395   3.185   6.497   9.378  1.8534 -1.0005 -0.3916
   58SAPC   H9Y 4396   3.029   6.406   9.377  0.3076  1.7523  1.9895
   58SAPC  C310 4397   3.187   6.320   9.262  0.3830  0.5206  0.0350
   58SAPC  H10X 4398   3.123   6.229   9.254  0.0934  0.7138  0.1281
   58SAPC  H10Y 4399   3.291   6.283   9.274  0.0267 -0.3139  0.5605
   58SAPC  C311 4400   3.158   6.399   9.142  0.5830  0.9078 -0.5611
   58SAPC  H11X 4401   3.202   6.501   9.148  0.9727  0.8930 -2.5692
   58SAPC  H11Y 4402   3.049   6.418   9.139  0.6320  1.2134 -0.4460
   58SAPC  C312 4403   3.191   6.330   9.009 -0.3972  0.5710  0.4406
   58SAPC  H12X 4404   3.125   6.371   8.929 -0.3450 -0.8968 -0.3769
   58SAPC  H12Y 4405   3.174   6.220   9.015  0.6733  0.5226  2.6789
   58SAPC  C313 4406   3.331   6.362   8.969 -0.9694  0.3032  0.2611
   58SAPC  H13X 4407   3.399   6.330   9.051 -1.9271  0.5011  1.1458
   58SAPC  H13Y 4408   3.337   6.472   8.958 -1.9069  0.2959 -0.3707
   58SAPC  C314 4409   3.377   6.295   8.842  1.1181  0.2243  0.4149
   58SAPC  H14X 4410   3.301   6.296   8.761  1.0079  2.1323  0.5233
   58SAPC  H14Y 4411   3.374   6.187   8.869  0.0469  0.3560  0.8106
   58SAPC  C315 4412   3.514   6.358   8.785  0.0715 -0.8138  0.0231
   58SAPC  H15X 4413   3.588   6.345   8.867  0.8299  0.5883 -0.4182
   58SAPC  H15Y 4414   3.507   6.468   8.770  1.1992 -0.4559  1.9344
   58SAPC  C316 4415   3.567   6.278   8.665  0.5092  0.0215  0.1781
   58SAPC  H16X 4416   3.481   6.250   8.602  0.5345  0.2702  0.0336
   58SAPC  H16Y 4417   3.601   6.179   8.702  1.3498  1.4041  3.2713
   58SAPC  C317 4418   3.675   6.347   8.583  0.0334  0.5848  0.0895
   58SAPC  H17X 4419   3.639   6.442   8.538  1.5646  0.4046 -1.6169
   58SAPC  H17Y 4420   3.690   6.271   8.502 -1.6765 -0.8152  1.0573
   58SAPC  C318 4421   3.802   6.369   8.664 -0.2952  0.2659  0.1734
   58SAPC  H18X 4422   3.888   6.408   8.606 -0.1184 -0.9922 -0.4153
   58SAPC  H18Y 4423   3.850   6.274   8.693  1.2830  0.9457 -0.1834
   58SAPC  H18Z 4424   3.777   6.434   8.750  0.8275  1.3704 -0.3306
   59SAPC     N 4425   4.541   1.686  11.216 -0.0934 -0.5130  0.5333
   59SAPC   C12 4426   4.656   1.727  11.134 -0.1601 -0.6271 -0.3521
   59SAPC  H12A 4427   4.697   1.819  11.173 -2.2086  0.4565 -0.6727
   59SAPC  H12B 4428   4.625   1.744  11.032  1.6460 -3.2527 -1.4163
   59SAPC   C13 4429   4.571   1.677  11.362  0.1410 -0.2029 -0.1386
   59SAPC  H13A 4430   4.476   1.653  11.408 -0.6193 -0.2904 -1.7197
   59SAPC  H13B 4431   4.646   1.604  11.387  0.7742  0.0616 -1.2765
   59SAPC  H13C 4432   4.611   1.770  11.402  2.3847 -1.2617  0.1358
   59SAPC   C14 4433   4.426   1.777  11.188 -0.4694 -0.0422  0.0891
   59SAPC  H14A 4434   4.336   1.764  11.247 -0.9582 -0.6727 -0.7826
   59SAPC  H14B 4435   4.456   1.881  11.192  0.0590 -0.1820 -0.3110
   59SAPC  H14C 4436   4.385   1.759  11.090 -1.6454 -1.7342  0.8547
   59SAPC   C15 4437   4.485   1.554  11.174  0.7408 -0.0948 -0.7123
   59SAPC  H15A 4438   4.429   1.560  11.082 -0.5557 -0.3197  0.0522
   59SAPC  H15B 4439   4.565   1.481  11.167  0.4020 -0.6571  0.8945
   59SAPC  H15C 4440   4.407   1.505  11.230  1.3377 -3.4459 -2.6919
   59SAPC   C11 4441   4.780   1.638  11.127  0.5490 -0.7753 -0.6152
   59SAPC  H11A 4442   4.747   1.549  11.070  2.0522 -2.1163  0.5726
   59SAPC  H11B 4443   4.811   1.601  11.226  1.4194  0.6125 -0.3507
   59SAPC     P 4444   4.987   1.783  11.128  0.3079  0.3080  0.5448
   59SAPC   O13 4445   4.941   1.846  11.256 -0.0717  0.3927  0.5261
   59SAPC   O14 4446   5.118   1.707  11.132 -0.1748  0.1784 -0.3227
   59SAPC   O12 4447   4.880   1.699  11.055  0.9329 -0.4199 -0.3785
   59SAPC   O11 4448   5.018   1.901  11.021 -0.4871 -0.8067  0.5510
   59SAPC    C1 4449   4.921   1.952  10.933  0.1078 -0.1280 -0.3009
   59SAPC    HA 4450   4.814   1.943  10.959  0.6455 -2.4043  1.3479
   59SAPC    HB 4451   4.946   2.060  10.933  1.6599 -0.4593  1.7208
   59SAPC    C2 4452   4.921   1.895  10.789 -0.3918  0.2179  0.6926
   59SAPC    HS 4453   4.874   1.795  10.796  1.0939 -0.3818  2.7466
   59SAPC   O21 4454   5.054   1.887  10.737  0.3104 -0.3484  0.0080
   59SAPC   C21 4455   5.104   1.764  10.717  0.0904 -0.3473 -0.4264
   59SAPC   O22 4456   5.048   1.657  10.737 -0.0311 -0.7144 -0.2510
   59SAPC   C22 4457   5.248   1.776  10.665  0.3746  0.4527 -0.2019
   59SAPC   H2R 4458   5.245   1.828  10.567 -3.1391  0.5391 -0.1026
   59SAPC   H2S 4459   5.308   1.843  10.730  0.1572 -0.4990  0.9931
   59SAPC    C3 4460   4.842   1.976  10.686 -0.0320 -0.3105  0.0889
   59SAPC    HX 4461   4.884   2.079  10.678 -0.3221 -0.3483 -2.2152
   59SAPC    HY 4462   4.738   1.979  10.728 -0.3924  0.9827 -0.8599
   59SAPC   O31 4463   4.857   1.920  10.552 -0.6314 -0.2131 -0.4417
   59SAPC   C31 4464   4.768   1.832  10.520  0.0123 -0.1579 -0.7411
   59SAPC   O32 4465   4.660   1.812  10.570 -0.3856 -0.4763  0.4931
   59SAPC   C32 4466   4.825   1.733  10.415  0.2391  0.1293  0.6232
   59SAPC   H2X 4467   4.821   1.634  10.466  1.6703 -1.8602 -2.9929
   59SAPC   H2Y 4468   4.932   1.756  10.395  0.1919 -1.0404 -1.0224
   59SAPC   C23 4469   5.325   1.639  10.658 -0.1616 -0.4668 -0.0868
   59SAPC   H3R 4470   5.290   1.569  10.737  0.9795 -0.5137  0.3822
   59SAPC   H3S 4471   5.433   1.657  10.676 -0.2494  0.8915 -0.8597
   59SAPC   C24 4472   5.330   1.586  10.519 -0.4138  0.7187 -0.7804
   59SAPC   H4R 4473   5.412   1.513  10.505  0.0761  1.2906 -0.9532
   59SAPC   H4S 4474   5.367   1.669  10.454  2.9041  0.9041  1.2145
   59SAPC   C25 4475   5.195   1.540  10.468  0.3336  0.4156  0.1074
   59SAPC   H5R 4476   5.132   1.496  10.547  0.6729 -0.2469  0.0062
   59SAPC   C26 4477   5.150   1.553  10.341  0.0222  0.6169 -0.5613
   59SAPC   H6R 4478   5.048   1.519  10.323 -0.5019  1.3734  0.9059
   59SAPC   C27 4479   5.218   1.606  10.216 -0.2701  0.2842 -0.0376
   59SAPC   H7R 4480   5.250   1.517  10.159 -0.8965 -0.5219  0.8675
   59SAPC   H7S 4481   5.314   1.659  10.238  0.4699 -0.3676 -1.5865
   59SAPC   C28 4482   5.134   1.697  10.130  0.0215 -0.0123  0.2953
   59SAPC   H8R 4483   5.053   1.749  10.183  0.4120 -0.4137  1.2983
   59SAPC   C29 4484   5.150   1.742  10.004 -0.3211  0.5457 -0.0725
   59SAPC   H9R 4485   5.088   1.822   9.961  0.1671  1.5443  1.0378
   59SAPC  C210 4486   5.269   1.698   9.922  0.7342  0.5430 -0.4483
   59SAPC  H10R 4487   5.353   1.658   9.982 -0.6007  2.3007  2.7268
   59SAPC  H10S 4488   5.326   1.778   9.868 -2.0698  1.7781 -1.6751
   59SAPC  C211 4489   5.223   1.589   9.825  0.4318  0.0171  0.1793
   59SAPC  H11R 4490   5.172   1.509   9.880  0.0823  1.4346  1.9703
   59SAPC  C212 4491   5.233   1.586   9.693  0.1239  0.1421  0.5576
   59SAPC  H12R 4492   5.178   1.510   9.634 -1.9591  0.8649  1.4909
   59SAPC  C213 4493   5.297   1.693   9.614  0.0262  0.1824  0.5045
   59SAPC  H13R 4494   5.407   1.682   9.610 -0.0854 -0.7036 -0.2863
   59SAPC  H13S 4495   5.281   1.794   9.658 -1.1729  1.1400 -1.9610
   59SAPC  C214 4496   5.235   1.711   9.478 -0.5348  0.5892  0.0178
   59SAPC  H14R 4497   5.132   1.749   9.484 -1.0333 -0.5418 -1.2861
   59SAPC  C215 4498   5.293   1.687   9.362  0.0433 -0.9488  0.4892
   59SAPC  H15R 4499   5.246   1.703   9.264  1.5334 -1.6339 -0.3537
   59SAPC  C216 4500   5.428   1.627   9.343 -0.3179  0.7286  0.4276
   59SAPC  H16R 4501   5.438   1.527   9.392  1.9480 -1.1446 -3.6692
   59SAPC  H16S 4502   5.501   1.695   9.391  1.1060 -1.6772  1.7932
   59SAPC  C217 4503   5.474   1.618   9.193  0.3813  0.1629 -0.1527
   59SAPC  H17R 4504   5.391   1.574   9.133  1.0898  0.7407 -1.5658
   59SAPC  H17S 4505   5.560   1.548   9.187 -0.4075 -0.7007 -1.5486
   59SAPC  C218 4506   5.516   1.753   9.130  0.0790 -0.4187 -0.0799
   59SAPC  H18R 4507   5.613   1.785   9.175 -0.3136 -1.5305  1.5907
   59SAPC  H18S 4508   5.440   1.825   9.165 -0.5762 -0.8336 -0.6528
   59SAPC  C219 4509   5.526   1.764   8.979 -0.1829  1.5041 -0.0288
   59SAPC  H19R 4510   5.557   1.869   8.963  2.1334  0.9697  0.6684
   59SAPC  H19S 4511   5.431   1.739   8.928 -0.8571  0.1936  1.8160
   59SAPC  C220 4512   5.647   1.689   8.919 -0.2434  1.0044 -0.0180
   59SAPC  H20R 4513   5.629   1.581   8.904  0.1301  0.9163  0.1679
   59SAPC  H20S 4514   5.731   1.694   8.991  0.0077  0.3874 -0.2621
   59SAPC  H20T 4515   5.680   1.736   8.823 -3.8863  1.4845 -1.1025
   59SAPC   C33 4516   4.742   1.730  10.294  0.4529 -0.8563  0.3925
   59SAPC   H3X 4517   4.637   1.704  10.318  0.0082  0.2209 -0.3632
   59SAPC   H3Y 4518   4.765   1.639  10.234 -0.8915 -1.0689  0.1775
   59SAPC   C34 4519   4.753   1.848  10.194  0.7469 -0.1224 -0.4163
   59SAPC   H4X 4520   4.846   1.835  10.136  0.0267  1.8552 -2.0689
   59SAPC   H4Y 4521   4.753   1.949  10.242  0.9705 -1.0167  1.5300
   59SAPC   C35 4522   4.642   1.842  10.072  0.0454 -0.2566  0.3909
   59SAPC   H5X 4523   4.568   1.921  10.097  0.6638  0.5428 -0.2622
   59SAPC   H5Y 4524   4.586   1.752  10.104  1.1612 -0.0535  3.0317
   59SAPC   C36 4525   4.692   1.864   9.928  0.1432 -0.6340 -0.2192
   59SAPC   H6X 4526   4.774   1.939   9.924  0.7878 -1.3833 -1.3237
   59SAPC   H6Y 4527   4.607   1.899   9.867 -0.4421  0.0201  0.9696
   59SAPC   C37 4528   4.755   1.735   9.872  0.4691 -0.2979 -0.2391
   59SAPC   H7X 4529   4.685   1.651   9.890 -0.7563  1.2113  2.2620
   59SAPC   H7Y 4530   4.833   1.696   9.941 -2.7968 -1.1023  3.1212
   59SAPC   C38 4531   4.814   1.740   9.728  0.3140 -0.6076  0.2160
   59SAPC   H8X 4532   4.862   1.642   9.708  0.2176 -0.6481  0.1820
   59SAPC   H8Y 4533   4.891   1.820   9.723 -1.7119  1.4255  0.1198
   59SAPC   C39 4534   4.713   1.768   9.612 -0.1798  0.2440  0.3000
   59SAPC   H9X 4535   4.670   1.870   9.622 -0.4075  0.0902  0.9517
   59SAPC   H9Y 4536   4.628   1.697   9.620 -2.2823  2.7820  1.3197
   59SAPC  C310 4537   4.784   1.763   9.472 -0.5132  0.5226  0.0854
   59SAPC  H10X 4538   4.862   1.842   9.471  0.0501 -0.0289 -0.2295
   59SAPC  H10Y 4539   4.711   1.795   9.395 -0.3968  1.0735  0.1969
   59SAPC  C311 4540   4.837   1.623   9.435  0.0485 -0.4156 -0.3597
   59SAPC  H11X 4541   4.743   1.564   9.436 -0.7482  0.8318 -0.6071
   59SAPC  H11Y 4542   4.907   1.577   9.508  0.6278 -0.8948 -1.2106
   59SAPC  C312 4543   4.886   1.616   9.288  0.0962 -0.0310  0.7709
   59SAPC  H12X 4544   4.983   1.670   9.286  0.7624 -1.2417 -1.3311
   59SAPC  H12Y 4545   4.819   1.654   9.209  0.5800 -1.3409 -0.2953
   59SAPC  C313 4546   4.913   1.468   9.241 -0.2794  0.3252 -0.1149
   59SAPC  H13X 4547   4.810   1.426   9.244 -0.0018 -0.3232  0.6270
   59SAPC  H13Y 4548   4.970   1.416   9.321  0.2199 -0.8565 -1.2211
   59SAPC  C314 4549   4.991   1.458   9.111 -0.0498 -0.4134  0.6090
   59SAPC  H14X 4550   5.085   1.517   9.108 -0.7568  0.7574  1.0112
   59SAPC  H14Y 4551   4.938   1.517   9.033 -0.2184 -1.5414 -0.1404
   59SAPC  C315 4552   5.017   1.315   9.073  0.3655 -0.6967 -0.3440
   59SAPC  H15X 4553   4.928   1.249   9.061  0.7736 -1.6189  1.5751
   59SAPC  H15Y 4554   5.077   1.268   9.153  1.9450 -0.3324 -1.3119
   59SAPC  C316 4555   5.106   1.294   8.944  0.4386  0.1427 -0.3297
   59SAPC  H16X 4556   5.206   1.341   8.959 -0.0779  1.2152 -0.1448
   59SAPC  H16Y 4557   5.048   1.348   8.865 -0.2905  0.4204  0.3858
   59SAPC  C317 4558   5.139   1.154   8.900  0.6511 -0.2192 -0.2652
   59SAPC  H17X 4559   5.044   1.107   8.867 -0.0867  0.6273  0.6143
   59SAPC  H17Y 4560   5.180   1.101   8.989  2.5007 -0.4413 -1.2334
   59SAPC  C318 4561   5.232   1.156   8.774 -0.4863  0.0739 -0.0764
   59SAPC  H18X 4562   5.189   1.218   8.693  2.0518  1.4536 -0.4183
   59SAPC  H18Y 4563   5.246   1.053   8.735 -0.0370 -0.1142  0.5624
   59SAPC  H18Z 4564   5.331   1.200   8.797 -0.9975  0.4065  1.5599
   60SAPC     N 4565   6.202   6.516  11.017  0.1768 -0.3276  0.2159
   60SAPC   C12 4566   6.168   6.432  10.901  0.1979 -0.3022  0.6749
   60SAPC  H12A 4567   6.061   6.424  10.910  0.1538  0.6727  1.0950
   60SAPC  H12B 4568   6.212   6.334  10.910  0.9057 -0.0791 -0.1947
   60SAPC   C13 4569   6.101   6.624  11.042  0.2837 -0.4276 -0.0762
   60SAPC  H13A 4570   6.127   6.667  11.138  1.1799  2.2020 -1.4643
   60SAPC  H13B 4571   6.088   6.689  10.957 -1.9577  0.5344  0.9407
   60SAPC  H13C 4572   6.001   6.585  11.053  0.4961 -1.3270 -1.3379
   60SAPC   C14 4573   6.204   6.433  11.151 -0.0539  0.1767  0.1635
   60SAPC  H14A 4574   6.241   6.497  11.229 -2.1113  1.1748  0.3563
   60SAPC  H14B 4575   6.104   6.408  11.182 -0.6965  1.9603 -0.4053
   60SAPC  H14C 4576   6.256   6.338  11.146 -1.3450 -0.6801  2.3938
   60SAPC   C15 4577   6.333   6.588  11.013  0.9296  0.0263  0.4806
   60SAPC  H15A 4578   6.338   6.646  10.922  2.8584  0.3233  0.7401
   60SAPC  H15B 4579   6.354   6.651  11.099  0.7876  0.1087  0.4537
   60SAPC  H15C 4580   6.423   6.529  11.007  1.2159 -0.0301  3.9288
   60SAPC   C11 4581   6.214   6.488  10.762  0.2045  0.5992  0.0508
   60SAPC  H11A 4582   6.158   6.422  10.692  1.3039  0.7490 -0.9822
   60SAPC  H11B 4583   6.322   6.470  10.741  0.1042 -0.2922  0.2618
   60SAPC     P 4584   6.284   6.730  10.676 -0.0373 -0.2927  0.2551
   60SAPC   O13 4585   6.211   6.857  10.673  0.2241  0.2211  0.4659
   60SAPC   O14 4586   6.417   6.727  10.741  0.1419  0.5146 -0.3773
   60SAPC   O12 4587   6.187   6.628  10.741 -0.1573 -0.2398 -0.0157
   60SAPC   O11 4588   6.312   6.684  10.525  0.8695  0.3247 -0.7487
   60SAPC    C1 4589   6.200   6.629  10.451 -0.4345 -0.0593 -0.9836
   60SAPC    HA 4590   6.237   6.536  10.403 -0.3279 -0.9087  0.7311
   60SAPC    HB 4591   6.107   6.603  10.505  0.4718 -3.8675 -1.1355
   60SAPC    C2 4592   6.164   6.727  10.332 -0.2096 -0.1641 -0.8935
   60SAPC    HS 4593   6.116   6.822  10.366  0.8198 -0.7555  2.3809
   60SAPC   O21 4594   6.073   6.661  10.241 -0.3617 -0.4833 -0.3708
   60SAPC   C21 4595   5.948   6.653  10.275 -0.5203 -0.8904 -0.0133
   60SAPC   O22 4596   5.892   6.697  10.372  0.1500  0.5794  0.2983
   60SAPC   C22 4597   5.873   6.560  10.168  0.4691 -0.6017  0.6161
   60SAPC   H2R 4598   5.953   6.515  10.105  0.1200 -1.7946  1.0192
   60SAPC   H2S 4599   5.812   6.485  10.223 -1.7960 -0.0483 -1.0575
   60SAPC    C3 4600   6.299   6.767  10.260 -0.0477 -0.3127  0.2647
   60SAPC    HX 4601   6.367   6.680  10.268 -1.3844 -1.9106 -4.3265
   60SAPC    HY 4602   6.356   6.832  10.331 -2.3048  0.8099  1.0846
   60SAPC   O31 4603   6.288   6.819  10.125  0.3599  0.1241  0.1766
   60SAPC   C31 4604   6.278   6.954  10.121 -0.5002 -0.1563 -0.5446
   60SAPC   O32 4605   6.284   7.021  10.225  0.0236  0.4505  0.0807
   60SAPC   C32 4606   6.270   6.993   9.981 -0.1371  0.1995  0.5061
   60SAPC   H2X 4607   6.164   7.017   9.956 -0.1084  1.3624  1.4427
   60SAPC   H2Y 4608   6.290   6.906   9.915 -0.7923  0.1700  0.3441
   60SAPC   C23 4609   5.760   6.641  10.102 -0.0404 -0.3024 -0.4919
   60SAPC   H3R 4610   5.679   6.660  10.176  0.5652 -1.0451  0.3729
   60SAPC   H3S 4611   5.731   6.578  10.016 -0.0882  0.2017 -0.8518
   60SAPC   C24 4612   5.791   6.786  10.042 -0.2297 -0.6409 -0.4650
   60SAPC   H4R 4613   5.814   6.859  10.122  0.6525 -1.8638  0.4173
   60SAPC   H4S 4614   5.694   6.815   9.996 -0.6699  2.2399  2.1034
   60SAPC   C25 4615   5.914   6.786   9.951  0.0490  0.6882  0.2163
   60SAPC   H5R 4616   6.005   6.755  10.005  0.3169 -1.4016 -1.3537
   60SAPC   C26 4617   5.922   6.802   9.811  0.0997 -0.2042  0.1399
   60SAPC   H6R 4618   6.017   6.792   9.758  0.0616  0.3957 -0.0495
   60SAPC   C27 4619   5.805   6.835   9.719 -0.4650 -0.3100 -0.2364
   60SAPC   H7R 4620   5.719   6.867   9.781 -1.6816 -1.1476 -1.4565
   60SAPC   H7S 4621   5.767   6.743   9.669 -0.1708 -2.3497  3.1589
   60SAPC   C28 4622   5.832   6.941   9.612  0.2172  0.6670 -0.5558
   60SAPC   H8R 4623   5.888   7.032   9.638 -0.9608  1.5370 -0.9569
   60SAPC   C29 4624   5.795   6.937   9.482 -0.0144  0.6487 -0.5447
   60SAPC   H9R 4625   5.821   7.010   9.404 -0.3278  0.8034 -0.5090
   60SAPC  C210 4626   5.702   6.828   9.427  0.5635 -0.5351 -0.9313
   60SAPC  H10R 4627   5.766   6.737   9.427  2.1842  0.5574 -0.2589
   60SAPC  H10S 4628   5.678   6.852   9.321 -0.5017 -0.1153 -0.6013
   60SAPC  C211 4629   5.572   6.803   9.503 -0.3625  0.4890 -0.5634
   60SAPC  H11R 4630   5.516   6.879   9.560  0.5160  0.2861  0.6093
   60SAPC  C212 4631   5.502   6.687   9.487  0.5248  0.0017  0.1292
   60SAPC  H12R 4632   5.409   6.669   9.543 -0.5472 -0.2364 -1.6754
   60SAPC  C213 4633   5.545   6.572   9.405  0.2903 -0.4064  0.4222
   60SAPC  H13R 4634   5.512   6.476   9.451  1.1461 -1.0051 -0.2001
   60SAPC  H13S 4635   5.655   6.566   9.395  0.2001  0.1136 -0.8734
   60SAPC  C214 4636   5.493   6.576   9.265 -0.5045  0.0002  0.0264
   60SAPC  H14R 4637   5.410   6.647   9.249 -0.8443 -0.4373 -0.1676
   60SAPC  C215 4638   5.530   6.509   9.152 -0.2462  0.8077  0.6947
   60SAPC  H15R 4639   5.471   6.526   9.061 -0.7178  1.5035  1.1305
   60SAPC  C216 4640   5.635   6.400   9.141 -1.1140 -0.5153  0.1404
   60SAPC  H16R 4641   5.638   6.331   9.228  1.2666 -0.0830  0.4287
   60SAPC  H16S 4642   5.734   6.449   9.151 -1.9649  1.5465 -1.1472
   60SAPC  C217 4643   5.617   6.309   9.019 -0.2488 -0.4396 -0.2649
   60SAPC  H17R 4644   5.511   6.281   9.009  0.2009 -2.8925  1.4096
   60SAPC  H17S 4645   5.686   6.223   9.033  0.6126  0.5297  1.7572
   60SAPC  C218 4646   5.667   6.374   8.894 -0.0360  0.0659  0.2354
   60SAPC  H18R 4647   5.763   6.426   8.916 -0.9544  2.1142 -0.4565
   60SAPC  H18S 4648   5.597   6.446   8.848  1.0390  0.6747 -0.4675
   60SAPC  C219 4649   5.708   6.282   8.775 -0.4810 -0.0123  1.2470
   60SAPC  H19R 4650   5.625   6.234   8.719 -1.2634  1.9235  0.6970
   60SAPC  H19S 4651   5.782   6.210   8.815 -0.8017 -0.3319  1.2574
   60SAPC  C220 4652   5.808   6.348   8.672  0.0623  0.0860 -0.3220
   60SAPC  H20R 4653   5.827   6.283   8.584  1.0149 -0.3518  0.1913
   60SAPC  H20S 4654   5.903   6.364   8.727 -1.0909  0.1458  1.7128
   60SAPC  H20T 4655   5.772   6.450   8.648 -0.7287  0.0693  0.7266
   60SAPC   C33 4656   6.352   7.114   9.942  0.2983 -0.4370  1.0850
   60SAPC   H3X 4657   6.458   7.104   9.976  0.5286 -0.1168  0.4675
   60SAPC   H3Y 4658   6.318   7.210   9.987  1.1659  0.2681  0.2849
   60SAPC   C34 4659   6.357   7.126   9.785  1.1698  0.1603  0.1356
   60SAPC   H4X 4660   6.371   7.235   9.768 -1.9711  0.5671 -0.0666
   60SAPC   H4Y 4661   6.262   7.086   9.745  0.0527  0.9408  1.9259
   60SAPC   C35 4662   6.454   7.032   9.714 -0.2939 -0.1063 -0.7956
   60SAPC   H5X 4663   6.438   6.930   9.755 -1.8932 -0.0746 -1.3209
   60SAPC   H5Y 4664   6.559   7.062   9.735 -1.3473  1.9600  1.8650
   60SAPC   C36 4665   6.442   7.027   9.564  0.0357 -0.2004 -0.5091
   60SAPC   H6X 4666   6.348   6.970   9.553  0.6946 -1.4206  0.1396
   60SAPC   H6Y 4667   6.526   6.979   9.508  0.6706  1.0961 -0.7068
   60SAPC   C37 4668   6.416   7.169   9.500 -0.2816 -0.0412 -0.0744
   60SAPC   H7X 4669   6.496   7.240   9.531 -0.6762 -0.6478  2.4346
   60SAPC   H7Y 4670   6.321   7.214   9.537  0.3614  1.6807 -0.4376
   60SAPC   C38 4671   6.401   7.171   9.348 -0.5728 -0.5167 -0.2225
   60SAPC   H8X 4672   6.504   7.137   9.321  0.0195  0.1946  1.0682
   60SAPC   H8Y 4673   6.386   7.265   9.292  0.4428 -0.9760 -1.3008
   60SAPC   C39 4674   6.276   7.088   9.308  0.7022 -0.9576  0.0915
   60SAPC   H9X 4675   6.189   7.152   9.333  2.4304  1.3840  0.2476
   60SAPC   H9Y 4676   6.275   6.988   9.356  0.6403 -1.1662 -0.3428
   60SAPC  C310 4677   6.278   7.045   9.164 -0.6319  0.9284 -0.5760
   60SAPC  H10X 4678   6.200   6.970   9.141  2.1475 -1.8796 -1.1360
   60SAPC  H10Y 4679   6.376   7.008   9.126 -0.9140  1.2915 -1.6572
   60SAPC  C311 4680   6.245   7.165   9.066 -0.4492 -0.0969 -0.1146
   60SAPC  H11X 4681   6.314   7.251   9.071 -1.4211  0.7615 -1.3223
   60SAPC  H11Y 4682   6.141   7.197   9.087 -0.0706  1.6337 -0.8252
   60SAPC  C312 4683   6.245   7.118   8.918 -0.0862  0.3745 -0.2696
   60SAPC  H12X 4684   6.207   7.013   8.917  2.9517 -0.7928 -2.4166
   60SAPC  H12Y 4685   6.351   7.125   8.885  0.1910  0.3012  0.5824
   60SAPC  C313 4686   6.165   7.211   8.823  0.6946 -0.1603  0.0863
   60SAPC  H13X 4687   6.221   7.304   8.800  2.2175 -1.1471 -0.2783
   60SAPC  H13Y 4688   6.064   7.225   8.867  0.1045 -1.4099 -0.8626
   60SAPC  C314 4689   6.153   7.140   8.681 -0.6422  0.6541 -0.5544
   60SAPC  H14X 4690   6.099   7.044   8.694 -0.5363  0.8473  1.6150
   60SAPC  H14Y 4691   6.254   7.137   8.636 -0.5928  0.9380 -0.4699
   60SAPC  C315 4692   6.062   7.226   8.589 -0.1691  0.7425  0.1117
   60SAPC  H15X 4693   6.089   7.333   8.580  0.8739  0.2629 -3.2847
   60SAPC  H15Y 4694   5.964   7.225   8.642 -1.7615 -1.4511 -2.7624
   60SAPC  C316 4695   6.051   7.177   8.443 -0.2074  0.5367 -0.9123
   60SAPC  H16X 4696   6.141   7.197   8.381  0.7781 -1.7502 -0.2694
   60SAPC  H16Y 4697   5.970   7.239   8.397 -0.5022  0.6846 -0.1970
   60SAPC  C317 4698   6.008   7.033   8.433 -0.1284  0.4716  0.9429
   60SAPC  H17X 4699   5.915   7.027   8.494 -2.5869  3.1865 -2.2869
   60SAPC  H17Y 4700   6.083   6.970   8.485  0.7021 -0.2584 -1.0806
   60SAPC  C318 4701   5.970   6.971   8.297  0.0247 -0.0019 -0.3013
   60SAPC  H18X 4702   5.894   7.025   8.236  1.3507  1.3688 -0.7565
   60SAPC  H18Y 4703   5.933   6.867   8.309  0.3487 -0.3965 -2.4165
   60SAPC  H18Z 4704   6.061   6.958   8.235 -0.4085 -2.8615 -0.4237
   61SAPC     N 4705   6.554   5.166  11.391  0.3618 -0.0937  0.6423
   61SAPC   C12 4706   6.640   5.102  11.288 -0.0080  0.3399 -0.3757
   61SAPC  H12A 4707   6.642   4.995  11.290 -0.4430  0.2442 -3.2499
   61SAPC  H12B 4708   6.740   5.139  11.306 -0.0120  0.3594 -0.3964
   61SAPC   C13 4709   6.555   5.316  11.370  0.0791 -0.8525 -0.1305
   61SAPC  H13A 4710   6.485   5.356  11.441  1.2517  0.8233  0.0939
   61SAPC  H13B 4711   6.653   5.351  11.397  0.7184 -2.0477 -0.8082
   61SAPC  H13C 4712   6.533   5.346  11.268 -1.8580 -0.2331  0.4472
   61SAPC   C14 4713   6.410   5.118  11.390 -0.5695 -0.8165 -0.3232
   61SAPC  H14A 4714   6.412   5.010  11.391  1.6983 -0.8692 -3.0078
   61SAPC  H14B 4715   6.364   5.144  11.484 -2.2760 -2.4200 -0.6905
   61SAPC  H14C 4716   6.349   5.146  11.305 -0.7977  0.0117  0.1105
   61SAPC   C15 4717   6.621   5.137  11.527 -0.2039 -0.0286  0.3586
   61SAPC  H15A 4718   6.633   5.033  11.552 -1.0832 -0.0927  0.5182
   61SAPC  H15B 4719   6.722   5.175  11.527 -0.5601  0.9449 -0.0922
   61SAPC  H15C 4720   6.572   5.193  11.606 -0.7535 -1.8599  1.3473
   61SAPC   C11 4721   6.607   5.127  11.138 -0.5280 -0.5086  0.4350
   61SAPC  H11A 4722   6.636   5.231  11.112 -0.7688 -0.4212  0.5226
   61SAPC  H11B 4723   6.498   5.110  11.131 -0.2055 -2.7304  0.2253
   61SAPC     P 4724   6.632   4.966  10.930 -0.2737  0.2762  0.0820
   61SAPC   O13 4725   6.717   4.848  10.911 -0.0889  0.3301 -0.5687
   61SAPC   O14 4726   6.486   4.941  10.923 -0.1869 -0.5436  0.0646
   61SAPC   O12 4727   6.677   5.014  11.069  0.3595  0.4251  0.0103
   61SAPC   O11 4728   6.670   5.084  10.830  0.3361 -0.2395 -1.2156
   61SAPC    C1 4729   6.784   5.169  10.850  0.4110  0.0329  0.2355
   61SAPC    HA 4730   6.823   5.174  10.954 -0.2356 -0.9311  0.5305
   61SAPC    HB 4731   6.863   5.123  10.787  1.1704  3.0409 -1.0761
   61SAPC    C2 4732   6.745   5.313  10.813 -0.5380  0.1328  0.0550
   61SAPC    HS 4733   6.658   5.345  10.874 -1.0105 -0.3319 -0.3768
   61SAPC   O21 4734   6.712   5.315  10.673  0.1515  0.1014 -0.4518
   61SAPC   C21 4735   6.630   5.414  10.641 -0.1718 -0.6791  0.6598
   61SAPC   O22 4736   6.569   5.481  10.725 -0.2329 -0.2238 -0.4299
   61SAPC   C22 4737   6.616   5.421  10.486 -0.4986  0.1977  0.0387
   61SAPC   H2R 4738   6.713   5.389  10.442  0.8197 -0.1092  3.0466
   61SAPC   H2S 4739   6.540   5.351  10.443 -0.2831 -0.6708  1.0487
   61SAPC    C3 4740   6.863   5.416  10.851 -0.0803  0.4752  0.6548
   61SAPC    HX 4741   6.893   5.412  10.958 -1.0693  0.4396  0.9439
   61SAPC    HY 4742   6.826   5.520  10.837 -1.2829  0.4207  3.1463
   61SAPC   O31 4743   6.975   5.369  10.776  0.1440  0.4610 -0.0603
   61SAPC   C31 4744   7.054   5.451  10.720  0.6161 -0.0032 -0.9296
   61SAPC   O32 4745   7.069   5.571  10.738 -0.1451  0.8562 -0.1473
   61SAPC   C32 4746   7.142   5.371  10.620 -0.4925  0.0117 -0.5399
   61SAPC   H2X 4747   7.134   5.262  10.637 -1.3783 -0.0143 -1.1126
   61SAPC   H2Y 4748   7.241   5.414  10.647 -0.9418  1.5460 -1.2637
   61SAPC   C23 4749   6.587   5.561  10.429  0.3292 -0.8892  0.1161
   61SAPC   H3R 4750   6.679   5.622  10.429 -0.4692  0.3293 -0.6242
   61SAPC   H3S 4751   6.503   5.611  10.483 -0.9290 -2.2849 -0.4884
   61SAPC   C24 4752   6.556   5.560  10.276 -0.4381 -0.3740 -0.8054
   61SAPC   H4R 4753   6.549   5.663  10.235 -0.9350  0.1255  0.5035
   61SAPC   H4S 4754   6.452   5.522  10.269 -0.3568 -0.5043 -1.3119
   61SAPC   C25 4755   6.650   5.487  10.184  0.1301 -0.0703  0.6261
   61SAPC   H5R 4756   6.715   5.411  10.229  0.8148 -1.7485 -3.0863
   61SAPC   C26 4757   6.675   5.525  10.058  0.5273 -0.5954  0.0241
   61SAPC   H6R 4758   6.754   5.465  10.010  1.6406 -1.8118  3.2066
   61SAPC   C27 4759   6.618   5.636   9.979  0.1468 -0.3830 -0.3938
   61SAPC   H7R 4760   6.514   5.655  10.013  0.6789  2.5094 -0.2945
   61SAPC   H7S 4761   6.600   5.597   9.876 -1.0867 -1.0901  0.0840
   61SAPC   C28 4762   6.680   5.770   9.992 -0.0027  0.1589 -0.1798
   61SAPC   H8R 4763   6.646   5.816  10.086 -1.0830  2.0740 -1.4562
   61SAPC   C29 4764   6.728   5.846   9.890 -0.8448 -0.1939  0.6953
   61SAPC   H9R 4765   6.768   5.948   9.903  0.6363 -0.4613 -1.6198
   61SAPC  C210 4766   6.745   5.798   9.757 -0.3113 -0.1649  0.3988
   61SAPC  H10R 4767   6.666   5.839   9.691  0.5784  1.2963  0.2318
   61SAPC  H10S 4768   6.735   5.688   9.750  0.4124 -0.1723 -0.7198
   61SAPC  C211 4769   6.884   5.834   9.701 -0.1166  0.2884 -0.8980
   61SAPC  H11R 4770   6.953   5.885   9.770 -0.7295  0.0280 -0.0874
   61SAPC  C212 4771   6.927   5.817   9.574  0.2388  0.3720 -0.7000
   61SAPC  H12R 4772   7.029   5.846   9.547  0.6095 -0.0116  0.2507
   61SAPC  C213 4773   6.849   5.755   9.458 -0.0592 -0.1595  0.1760
   61SAPC  H13R 4774   6.810   5.835   9.390  1.2301  2.6774  2.6701
   61SAPC  H13S 4775   6.756   5.701   9.486  0.2978 -0.6147  0.4797
   61SAPC  C214 4776   6.936   5.667   9.378 -0.4193  0.4202  0.1471
   61SAPC  H14R 4777   7.011   5.619   9.442  0.5988  0.5459 -0.9383
   61SAPC  C215 4778   6.938   5.641   9.245  0.3193  0.3119 -0.6525
   61SAPC  H15R 4779   7.003   5.560   9.210 -0.1823 -0.4720  0.2031
   61SAPC  C216 4780   6.846   5.712   9.146 -0.5376  0.7253 -0.5156
   61SAPC  H16R 4781   6.788   5.790   9.200  1.6043  0.4391  2.2647
   61SAPC  H16S 4782   6.778   5.631   9.109  0.5445 -0.0955 -0.7211
   61SAPC  C217 4783   6.926   5.772   9.030  0.4734 -0.0758 -0.0941
   61SAPC  H17R 4784   6.879   5.754   8.931 -0.9965  0.9111  0.4115
   61SAPC  H17S 4785   7.027   5.726   9.029  1.2149  1.5066 -0.0805
   61SAPC  C218 4786   6.942   5.922   9.041 -0.1502 -0.1654  0.3213
   61SAPC  H18R 4787   6.982   5.941   9.142  1.7598  0.9473 -0.6163
   61SAPC  H18S 4788   6.839   5.964   9.050 -1.0088 -1.2621 -3.2618
   61SAPC  C219 4789   7.023   5.986   8.932  0.2072 -0.4330  0.1586
   61SAPC  H19R 4790   7.124   5.940   8.934  0.2371 -0.4518 -1.2953
   61SAPC  H19S 4791   7.034   6.096   8.948  0.4393 -0.8364  3.0011
   61SAPC  C220 4792   6.965   5.970   8.785 -0.0251  0.0363 -0.1521
   61SAPC  H20R 4793   6.959   5.863   8.754 -0.8168 -0.1556  0.6532
   61SAPC  H20S 4794   7.037   6.019   8.715  0.1824 -1.1080 -0.7613
   61SAPC  H20T 4795   6.873   6.029   8.767 -0.4881 -0.9269 -1.0530
   61SAPC   C33 4796   7.106   5.407  10.468  0.1102  0.2562 -0.2268
   61SAPC   H3X 4797   7.092   5.517  10.463 -1.1494  0.1601  0.9750
   61SAPC   H3Y 4798   7.008   5.359  10.449 -0.7284  1.3323  1.2095
   61SAPC   C34 4799   7.212   5.374  10.353 -0.1915  0.6715 -0.7838
   61SAPC   H4X 4800   7.173   5.418  10.259 -0.3649 -0.9484 -1.4877
   61SAPC   H4Y 4801   7.224   5.265  10.339  1.1870  0.7065  0.0827
   61SAPC   C35 4802   7.352   5.430  10.381  0.1605  0.2057  0.0413
   61SAPC   H5X 4803   7.386   5.376  10.472 -1.1239 -0.9200 -0.1095
   61SAPC   H5Y 4804   7.342   5.540  10.391 -1.5762  0.1386 -0.6524
   61SAPC   C36 4805   7.436   5.372  10.269 -0.5217 -0.2349  0.2993
   61SAPC   H6X 4806   7.370   5.366  10.180 -1.4682 -3.1202  1.1350
   61SAPC   H6Y 4807   7.470   5.269  10.291 -0.8968 -0.1357  1.3313
   61SAPC   C37 4808   7.558   5.465  10.249 -0.9568 -0.4665  0.5999
   61SAPC   H7X 4809   7.620   5.455  10.341 -0.7737 -1.0305  0.4221
   61SAPC   H7Y 4810   7.520   5.566  10.222  0.7612 -0.0967 -0.4473
   61SAPC   C38 4811   7.657   5.409  10.141  0.3673  0.1386 -0.3433
   61SAPC   H8X 4812   7.693   5.308  10.170 -0.9871 -1.3527 -3.6354
   61SAPC   H8Y 4813   7.749   5.470  10.157 -0.8544  1.8698  0.1383
   61SAPC   C39 4814   7.614   5.434   9.997  0.0149  1.3934  0.8931
   61SAPC   H9X 4815   7.585   5.541   9.990 -1.2620  0.9184 -1.6543
   61SAPC   H9Y 4816   7.518   5.378   9.991  1.3531 -0.8658  0.1794
   61SAPC  C310 4817   7.724   5.417   9.890 -0.1282 -0.1606  0.1229
   61SAPC  H10X 4818   7.774   5.321   9.912  1.2280  0.1923 -1.4063
   61SAPC  H10Y 4819   7.800   5.497   9.900 -1.6285  1.5328 -1.6111
   61SAPC  C311 4820   7.669   5.398   9.751  0.1505 -0.1776 -0.8715
   61SAPC  H11X 4821   7.639   5.498   9.712  0.9076  1.1568  1.8565
   61SAPC  H11Y 4822   7.581   5.330   9.745 -0.0829 -0.0387  0.7732
   61SAPC  C312 4823   7.779   5.344   9.654 -0.4660  0.4095  1.1268
   61SAPC  H12X 4824   7.813   5.246   9.694  0.8309 -0.4223 -1.8803
   61SAPC  H12Y 4825   7.872   5.404   9.649  0.4005 -1.0401 -0.5884
   61SAPC  C313 4826   7.744   5.333   9.504  0.1672 -0.0704  0.2072
   61SAPC  H13X 4827   7.745   5.434   9.459 -0.6010 -0.8133 -1.5278
   61SAPC  H13Y 4828   7.642   5.295   9.484  0.9572 -3.0084  1.5005
   61SAPC  C314 4829   7.840   5.251   9.416  0.3978  0.1693 -0.0201
   61SAPC  H14X 4830   7.850   5.156   9.472 -0.2078 -0.2102 -0.5515
   61SAPC  H14Y 4831   7.938   5.305   9.420  1.0325 -0.8969 -1.1536
   61SAPC  C315 4832   7.793   5.211   9.272  0.0971  0.7557 -0.5922
   61SAPC  H15X 4833   7.688   5.177   9.267  0.1830  0.5374 -0.8856
   61SAPC  H15Y 4834   7.850   5.129   9.225 -1.8551 -0.3191 -1.1402
   61SAPC  C316 4835   7.795   5.338   9.178 -0.0351  0.4627  0.2961
   61SAPC  H16X 4836   7.898   5.380   9.185  0.8862 -1.8895  1.5661
   61SAPC  H16Y 4837   7.718   5.415   9.199  0.4116  1.2833 -1.0029
   61SAPC  C317 4838   7.795   5.287   9.027  0.9971 -0.2875  0.0782
   61SAPC  H17X 4839   7.699   5.234   9.009 -0.3210  2.4890 -1.3907
   61SAPC  H17Y 4840   7.876   5.214   9.009  0.8295  0.2746 -3.2627
   61SAPC  C318 4841   7.817   5.401   8.922 -0.0088  0.0521  0.4060
   61SAPC  H18X 4842   7.918   5.446   8.939  1.0954 -1.5682 -1.6615
   61SAPC  H18Y 4843   7.752   5.489   8.940  0.7231  1.1282 -1.9360
   61SAPC  H18Z 4844   7.790   5.383   8.816 -1.0969  1.1669  0.4895
   62SAPC     N 4845   6.742   4.390  10.762 -0.1485  0.0733  0.3205
   62SAPC   C12 4846   6.628   4.476  10.808 -0.5625  0.2209  1.0700
   62SAPC  H12A 4847   6.629   4.496  10.914  1.0003 -2.8128  1.6762
   62SAPC  H12B 4848   6.537   4.418  10.793  0.5528 -1.3360  0.1114
   62SAPC   C13 4849   6.752   4.272  10.843  0.3097 -0.5185 -0.8223
   62SAPC  H13A 4850   6.843   4.218  10.823  1.6985  1.8069 -1.0021
   62SAPC  H13B 4851   6.745   4.295  10.948  0.8240 -3.3152 -0.1336
   62SAPC  H13C 4852   6.676   4.198  10.824 -3.1945  1.6730  3.7589
   62SAPC   C14 4853   6.726   4.351  10.615  0.2273  0.7709  0.7044
   62SAPC  H14A 4854   6.651   4.274  10.608  0.6429  0.2040  2.2730
   62SAPC  H14B 4855   6.688   4.429  10.552  1.3428  1.6405  1.0866
   62SAPC  H14C 4856   6.817   4.319  10.567 -1.7634  0.3701 -2.9535
   62SAPC   C15 4857   6.873   4.474  10.774  0.1125 -0.7757 -0.1743
   62SAPC  H15A 4858   6.958   4.411  10.753  0.1970 -2.0451  3.6794
   62SAPC  H15B 4859   6.868   4.547  10.695  2.5114  2.0386  2.1652
   62SAPC  H15C 4860   6.873   4.534  10.863  0.3564  0.3654 -0.9344
   62SAPC   C11 4861   6.595   4.605  10.738  0.1577 -0.3888  0.5688
   62SAPC  H11A 4862   6.687   4.667  10.732  1.5119 -2.3072  1.3301
   62SAPC  H11B 4863   6.516   4.655  10.798  0.2654  1.6357 -0.9285
   62SAPC     P 4864   6.414   4.569  10.547 -0.4503  0.6717  0.1475
   62SAPC   O13 4865   6.328   4.497  10.642 -0.1103 -0.0716 -0.0345
   62SAPC   O14 4866   6.373   4.709  10.514  0.2857  0.3800 -0.4716
   62SAPC   O12 4867   6.565   4.566  10.601  0.3907  0.0238 -0.3143
   62SAPC   O11 4868   6.442   4.483  10.416 -0.1998 -0.2441  0.0669
   62SAPC    C1 4869   6.523   4.531  10.311 -0.5191  0.1254  0.3608
   62SAPC    HA 4870   6.536   4.641  10.319  1.7363  0.1349 -2.6979
   62SAPC    HB 4871   6.625   4.489  10.324 -0.6303 -0.2933 -0.1164
   62SAPC    C2 4872   6.458   4.513  10.178  0.4206  0.4883 -0.0006
   62SAPC    HS 4873   6.493   4.412  10.148  0.1201  0.6420 -0.8831
   62SAPC   O21 4874   6.506   4.615  10.089  0.3073  0.4615 -0.2001
   62SAPC   C21 4875   6.527   4.577   9.963 -0.4454  0.0744  0.2465
   62SAPC   O22 4876   6.512   4.469   9.914 -0.1530 -0.0585 -0.1202
   62SAPC   C22 4877   6.600   4.700   9.892  0.0020  0.3508 -0.9529
   62SAPC   H2R 4878   6.523   4.778   9.902  1.1105  1.1822  1.4158
   62SAPC   H2S 4879   6.687   4.735   9.951  0.3007 -0.3060 -0.9999
   62SAPC    C3 4880   6.307   4.521  10.202 -0.2524 -0.0718 -0.3087
   62SAPC    HX 4881   6.289   4.624  10.238  1.0175 -0.0546  0.2990
   62SAPC    HY 4882   6.267   4.456  10.283  1.7298 -0.6098  0.2764
   62SAPC   O31 4883   6.237   4.504  10.081 -0.1015  0.7178 -0.1413
   62SAPC   C31 4884   6.226   4.371  10.043  0.4074  0.0143 -0.0719
   62SAPC   O32 4885   6.284   4.288  10.110 -0.6560  0.4534  0.9571
   62SAPC   C32 4886   6.139   4.352   9.926  0.4110 -0.5258  0.5666
   62SAPC   H2X 4887   6.062   4.432   9.929  0.8875  0.0121 -0.6335
   62SAPC   H2Y 4888   6.104   4.247   9.933 -1.1548  0.0091  0.8602
   62SAPC   C23 4889   6.629   4.665   9.746  0.3804  0.3846  0.2401
   62SAPC   H3R 4890   6.529   4.654   9.698  1.0355 -2.2372 -0.5790
   62SAPC   H3S 4891   6.691   4.574   9.743  0.4665  0.4391  0.4068
   62SAPC   C24 4892   6.705   4.779   9.676 -0.0845  0.4456 -0.3150
   62SAPC   H4R 4893   6.675   4.880   9.711  1.4893  0.3657  1.3351
   62SAPC   H4S 4894   6.685   4.775   9.567  2.1852  1.5162 -0.7927
   62SAPC   C25 4895   6.848   4.759   9.717 -0.0067 -0.4498  0.4702
   62SAPC   H5R 4896   6.864   4.744   9.825 -0.8814 -1.2482  0.4996
   62SAPC   C26 4897   6.956   4.746   9.638 -0.5369  0.1010 -0.5242
   62SAPC   H6R 4898   7.043   4.700   9.687 -0.3157 -0.6651 -1.6093
   62SAPC   C27 4899   6.955   4.758   9.485  0.3238 -0.4898 -0.2738
   62SAPC   H7R 4900   6.863   4.806   9.445 -0.7756 -2.1970  0.1277
   62SAPC   H7S 4901   6.952   4.651   9.455 -2.0414 -0.6222  0.3531
   62SAPC   C28 4902   7.070   4.825   9.425 -0.2698  0.1072  0.0418
   62SAPC   H8R 4903   7.070   4.932   9.449 -0.1306 -0.0128  0.5845
   62SAPC   C29 4904   7.170   4.766   9.351 -0.1116 -0.4240  0.5688
   62SAPC   H9R 4905   7.245   4.833   9.308 -0.0751  0.3393  1.7777
   62SAPC  C210 4906   7.186   4.619   9.315  0.2860 -0.0413  0.6635
   62SAPC  H10R 4907   7.096   4.584   9.260 -0.6630  0.1422  2.0526
   62SAPC  H10S 4908   7.194   4.557   9.407  0.5883 -0.9921  0.0027
   62SAPC  C211 4909   7.296   4.594   9.213  0.4111  0.6021  0.1726
   62SAPC  H11R 4910   7.386   4.648   9.244 -1.0911  3.2929  0.0352
   62SAPC  C212 4911   7.296   4.541   9.090  0.8290 -0.3907  0.2881
   62SAPC  H12R 4912   7.384   4.555   9.024  1.1078  0.3044  0.8057
   62SAPC  C213 4913   7.170   4.498   9.015  0.4028 -0.3991  0.2506
   62SAPC  H13R 4914   7.172   4.527   8.908 -0.7443 -1.5858 -0.1016
   62SAPC  H13S 4915   7.077   4.547   9.050 -0.0978 -1.4429  0.4237
   62SAPC  C214 4916   7.136   4.352   9.030  0.2696 -0.4588 -0.6298
   62SAPC  H14R 4917   7.098   4.325   9.130  0.8453 -1.3819 -0.6570
   62SAPC  C215 4918   7.161   4.246   8.955  1.1804  0.1908  0.1391
   62SAPC  H15R 4919   7.132   4.145   8.988 -1.7777  0.8374 -0.3450
   62SAPC  C216 4920   7.236   4.246   8.823  0.5545 -0.3432 -0.5870
   62SAPC  H16R 4921   7.327   4.184   8.836 -0.4870 -1.8680 -0.4678
   62SAPC  H16S 4922   7.281   4.347   8.810  1.5277 -0.0556  4.1227
   62SAPC  C217 4923   7.169   4.211   8.689 -0.4579 -0.8075 -0.1084
   62SAPC  H17R 4924   7.104   4.122   8.703 -0.5218 -0.8331 -0.5626
   62SAPC  H17S 4925   7.240   4.195   8.606 -0.2791 -0.9219  0.0647
   62SAPC  C218 4926   7.074   4.332   8.654  0.1851  0.6579  1.4750
   62SAPC  H18R 4927   7.132   4.425   8.636 -0.1271  0.3406 -1.4765
   62SAPC  H18S 4928   7.000   4.349   8.735 -1.0482 -0.1481  0.5381
   62SAPC  C219 4929   6.985   4.292   8.528 -0.7545 -0.1853 -0.0078
   62SAPC  H19R 4930   6.928   4.199   8.548  2.2632 -1.4284  3.2489
   62SAPC  H19S 4931   7.068   4.266   8.458  1.2263  0.6532  1.9657
   62SAPC  C220 4932   6.912   4.413   8.469  0.0863  0.2196  0.7087
   62SAPC  H20R 4933   6.978   4.500   8.455  0.8823 -0.3256  1.0407
   62SAPC  H20S 4934   6.835   4.431   8.548  0.5079  0.5620  1.0419
   62SAPC  H20T 4935   6.880   4.380   8.368 -0.8045 -0.1171  1.0972
   62SAPC   C33 4936   6.216   4.370   9.794 -0.2182 -0.2437  0.3531
   62SAPC   H3X 4937   6.296   4.293   9.789  3.5340  3.5629 -2.0698
   62SAPC   H3Y 4938   6.264   4.470   9.792 -2.9925  1.1341 -0.3821
   62SAPC   C34 4939   6.123   4.373   9.677  0.1328  0.3119  0.2340
   62SAPC   H4X 4940   6.085   4.478   9.676 -3.1084 -0.8050  1.4226
   62SAPC   H4Y 4941   6.038   4.302   9.688  1.4648 -0.9380  2.9923
   62SAPC   C35 4942   6.188   4.331   9.543 -0.0442  0.1565  0.1780
   62SAPC   H5X 4943   6.128   4.280   9.465 -2.3753  0.1029  1.9541
   62SAPC   H5Y 4944   6.255   4.247   9.569 -0.1257  0.3442  1.0189
   62SAPC   C36 4945   6.281   4.438   9.484 -0.0507  0.1214  0.4727
   62SAPC   H6X 4946   6.366   4.455   9.554 -0.7911  1.4770  1.0516
   62SAPC   H6Y 4947   6.238   4.541   9.488  0.2185  0.7390 -6.5881
   62SAPC   C37 4948   6.331   4.410   9.340 -0.9211  0.1904 -0.4705
   62SAPC   H7X 4949   6.248   4.402   9.266 -1.4162 -0.9675  0.1912
   62SAPC   H7Y 4950   6.382   4.311   9.338 -0.2349  0.5497 -0.6875
   62SAPC   C38 4951   6.422   4.525   9.288 -0.4861 -0.8470  0.2046
   62SAPC   H8X 4952   6.491   4.550   9.372 -0.5437 -0.9297  0.2774
   62SAPC   H8Y 4953   6.350   4.610   9.284  0.7543  0.1235 -2.2105
   62SAPC   C39 4954   6.486   4.503   9.156  0.9392  0.0783  0.3594
   62SAPC   H9X 4955   6.402   4.482   9.087  1.1666  1.8689 -0.4975
   62SAPC   H9Y 4956   6.555   4.416   9.146 -2.1791 -2.1514 -2.9847
   62SAPC  C310 4957   6.570   4.620   9.120 -0.1013 -0.1129  0.4639
   62SAPC  H10X 4958   6.510   4.712   9.107 -0.6410 -0.0684  2.9209
   62SAPC  H10Y 4959   6.599   4.598   9.015  0.4871  2.5522  0.0424
   62SAPC  C311 4960   6.692   4.666   9.204  0.5648  0.2138 -0.0499
   62SAPC  H11X 4961   6.773   4.591   9.216 -0.4962 -1.2917 -1.8936
   62SAPC  H11Y 4962   6.664   4.703   9.304 -1.8735 -0.0287 -0.6167
   62SAPC  C312 4963   6.771   4.791   9.136  0.2304 -0.2955  0.0391
   62SAPC  H12X 4964   6.869   4.813   9.184  0.5681 -0.5603 -0.5309
   62SAPC  H12Y 4965   6.706   4.881   9.146 -1.5211 -1.5894  0.5750
   62SAPC  C313 4966   6.793   4.779   8.984 -0.3468  0.1070  0.1285
   62SAPC  H13X 4967   6.831   4.676   8.966  3.1734  1.3671 -0.1572
   62SAPC  H13Y 4968   6.877   4.849   8.963 -0.4660  0.7038  1.6280
   62SAPC  C314 4969   6.684   4.809   8.883  0.0081  1.1197 -0.5414
   62SAPC  H14X 4970   6.640   4.911   8.891  1.0233  1.7653 -2.6660
   62SAPC  H14Y 4971   6.594   4.744   8.879 -1.2806  2.8101  0.2571
   62SAPC  C315 4972   6.737   4.787   8.741  0.0180  0.0088 -0.4031
   62SAPC  H15X 4973   6.662   4.826   8.669 -2.0426  1.7865  2.5999
   62SAPC  H15Y 4974   6.763   4.681   8.721  0.2616  0.2088 -1.1775
   62SAPC  C316 4975   6.845   4.879   8.694 -0.3503 -0.2919 -0.2133
   62SAPC  H16X 4976   6.916   4.826   8.627 -0.1358 -1.2434  0.7568
   62SAPC  H16Y 4977   6.903   4.900   8.786  0.1743 -0.7351 -0.4469
   62SAPC  C317 4978   6.794   5.014   8.632  0.2804  0.0408 -0.2700
   62SAPC  H17X 4979   6.717   5.048   8.704  0.1930  1.9778 -1.2513
   62SAPC  H17Y 4980   6.746   4.992   8.534  2.4870  0.3337 -1.4582
   62SAPC  C318 4981   6.900   5.124   8.617 -0.3450  0.2612 -0.7075
   62SAPC  H18X 4982   6.932   5.161   8.717  0.4902 -0.6694 -0.6108
   62SAPC  H18Y 4983   6.867   5.215   8.563  0.4320  1.5147  0.9023
   62SAPC  H18Z 4984   6.997   5.088   8.576  0.0012 -0.3850  0.6419
   63SAPC     N 4985   4.294   3.518   6.249 -0.3517 -0.2520 -0.1703
   63SAPC   C12 4986   4.286   3.556   6.395 -0.2059  0.8140  0.0188
   63SAPC  H12A 4987   4.270   3.460   6.444 -2.0772  1.2804  0.3416
   63SAPC  H12B 4988   4.191   3.605   6.409  0.2810  1.6858  0.2611
   63SAPC   C13 4989   4.176   3.439   6.215 -0.4981 -0.6466  0.0734
   63SAPC  H13A 4990   4.178   3.339   6.256 -1.5203 -0.9563 -0.6032
   63SAPC  H13B 4991   4.085   3.492   6.237 -0.6971 -0.7703 -0.4436
   63SAPC  H13C 4992   4.172   3.423   6.108 -2.0370  1.7722 -0.2685
   63SAPC   C14 4993   4.316   3.626   6.152  0.4548  0.0112 -0.7745
   63SAPC  H14A 4994   4.411   3.672   6.175 -0.2988  1.1260  0.1683
   63SAPC  H14B 4995   4.316   3.603   6.047  0.4037 -2.3895 -0.2815
   63SAPC  H14C 4996   4.239   3.701   6.162  3.8929  3.8699 -1.7582
   63SAPC   C15 4997   4.416   3.428   6.226 -0.7449 -0.8110  0.6136
   63SAPC  H15A 4998   4.405   3.345   6.158  0.9241 -0.0118 -0.6560
   63SAPC  H15B 4999   4.505   3.484   6.201 -1.5585 -0.6067 -1.9677
   63SAPC  H15C 5000   4.429   3.375   6.319 -0.2995 -0.3845  0.7944
   63SAPC   C11 5001   4.413   3.628   6.463  0.2449 -0.0712  0.0210
   63SAPC  H11A 5002   4.502   3.563   6.476 -1.2564 -2.7141 -2.3963
   63SAPC  H11B 5003   4.403   3.662   6.568 -1.6716 -1.5707  0.3399
   63SAPC     P 5004   4.388   3.880   6.400  0.0924 -0.1215 -0.1019
   63SAPC   O13 5005   4.430   3.950   6.280 -0.4601 -0.3488 -0.6205
   63SAPC   O14 5006   4.237   3.880   6.413 -0.1769  0.3306  0.1298
   63SAPC   O12 5007   4.453   3.737   6.390 -0.2679 -0.0334  0.4314
   63SAPC   O11 5008   4.461   3.938   6.523 -0.3674 -0.1923  0.0781
   63SAPC    C1 5009   4.605   3.944   6.525 -0.1015 -0.4713  0.2724
   63SAPC    HA 5010   4.656   3.933   6.427  0.6259  0.1765  0.5791
   63SAPC    HB 5011   4.624   4.048   6.557 -0.3434 -1.0402  2.3890
   63SAPC    C2 5012   4.668   3.855   6.634  0.5864  0.0278 -0.0606
   63SAPC    HS 5013   4.653   3.749   6.602  1.2532  0.0063 -0.2915
   63SAPC   O21 5014   4.616   3.897   6.755  0.0443 -0.3972 -0.7876
   63SAPC   C21 5015   4.649   3.807   6.850  0.1381 -0.2571  0.2666
   63SAPC   O22 5016   4.705   3.698   6.830 -0.2728  0.1210  1.0858
   63SAPC   C22 5017   4.595   3.862   6.983 -0.0044 -0.6073  0.6025
   63SAPC   H2R 5018   4.672   3.939   7.007  0.5091 -0.9145 -0.0623
   63SAPC   H2S 5019   4.492   3.903   6.967  0.3100  0.3515  1.0064
   63SAPC    C3 5020   4.822   3.861   6.626  0.2732  0.0161  0.3064
   63SAPC    HX 5021   4.842   3.820   6.525  0.4766  2.1549 -0.5604
   63SAPC    HY 5022   4.873   3.792   6.697 -0.2881 -1.4682 -0.7103
   63SAPC   O31 5023   4.862   4.001   6.638 -0.0790 -0.1783 -0.3773
   63SAPC   C31 5024   4.986   4.020   6.601  0.3450  0.2354 -0.6192
   63SAPC   O32 5025   5.063   3.930   6.576 -0.0036 -0.2744 -0.4878
   63SAPC   C32 5026   5.028   4.166   6.609  0.6543 -0.5418  0.2827
   63SAPC   H2X 5027   4.957   4.227   6.549  1.3132  0.8493  0.8978
   63SAPC   H2Y 5028   5.125   4.176   6.557 -0.3795  1.2062 -1.3459
   63SAPC   C23 5029   4.608   3.752   7.098  0.4278  0.1094  0.1872
   63SAPC   H3R 5030   4.708   3.703   7.095  0.4274  0.1259 -0.2655
   63SAPC   H3S 5031   4.529   3.679   7.072  0.0831  1.2789 -2.2830
   63SAPC   C24 5032   4.587   3.821   7.231  0.1499 -0.3128 -0.7369
   63SAPC   H4R 5033   4.674   3.890   7.229 -0.9438  1.0374 -4.3277
   63SAPC   H4S 5034   4.595   3.739   7.307  0.2537 -1.3451 -1.8432
   63SAPC   C25 5035   4.458   3.901   7.258 -0.3129  0.3888 -0.3687
   63SAPC   H5R 5036   4.435   3.984   7.189 -1.4204  1.0680  0.8046
   63SAPC   C26 5037   4.362   3.873   7.352 -0.0926  0.1330  0.2396
   63SAPC   H6R 5038   4.274   3.936   7.335  1.2631  1.8196 -0.7744
   63SAPC   C27 5039   4.352   3.761   7.453  0.2476  0.2530  0.1559
   63SAPC   H7R 5040   4.412   3.677   7.413 -2.2347 -2.8228  2.5948
   63SAPC   H7S 5041   4.246   3.728   7.466  0.3369 -0.2342 -0.3181
   63SAPC   C28 5042   4.419   3.810   7.583  0.1664 -0.4068  0.5754
   63SAPC   H8R 5043   4.520   3.849   7.565 -0.9332  2.3242  0.0063
   63SAPC   C29 5044   4.366   3.807   7.707 -0.9642 -0.0978 -0.5392
   63SAPC   H9R 5045   4.430   3.851   7.785 -1.3066  1.7197 -1.2610
   63SAPC  C210 5046   4.234   3.752   7.753 -0.4106 -0.4533  0.3745
   63SAPC  H10R 5047   4.169   3.712   7.672 -0.2059 -3.4886  1.6275
   63SAPC  H10S 5048   4.172   3.829   7.804  1.6797  1.4550  0.1150
   63SAPC  C211 5049   4.248   3.632   7.839  0.0913  0.4330  0.1332
   63SAPC  H11R 5050   4.223   3.535   7.793 -1.3733 -1.8924  5.4067
   63SAPC  C212 5051   4.272   3.628   7.971 -0.4420 -1.1337 -0.0937
   63SAPC  H12R 5052   4.257   3.532   8.023 -0.1281 -0.5807  1.0574
   63SAPC  C213 5053   4.290   3.749   8.058 -0.2670 -0.3762 -0.3617
   63SAPC  H13R 5054   4.237   3.734   8.154  3.2263 -1.8335  1.4153
   63SAPC  H13S 5055   4.257   3.842   8.007 -1.5037 -0.8494 -0.4478
   63SAPC  C214 5056   4.438   3.757   8.090  0.3414 -0.4042  0.6942
   63SAPC  H14R 5057   4.505   3.742   8.003 -1.1962  1.8474 -0.9253
   63SAPC  C215 5058   4.493   3.771   8.209  0.6562 -0.3961 -0.7040
   63SAPC  H15R 5059   4.602   3.788   8.217  0.3824  0.8349  0.7635
   63SAPC  C216 5060   4.425   3.786   8.344  0.1702  0.1652 -0.4109
   63SAPC  H16R 5061   4.351   3.869   8.344 -0.6931 -0.5939 -0.1899
   63SAPC  H16S 5062   4.509   3.811   8.412  1.1120 -2.1636 -0.6387
   63SAPC  C217 5063   4.354   3.661   8.404 -0.2411  0.1057 -0.1170
   63SAPC  H17R 5064   4.429   3.580   8.412  0.1534  0.3176 -1.4461
   63SAPC  H17S 5065   4.273   3.623   8.338  1.0086 -3.4563  0.3530
   63SAPC  C218 5066   4.298   3.698   8.543 -0.2551 -0.7872 -0.3159
   63SAPC  H18R 5067   4.195   3.735   8.523 -0.2065  0.3180  1.3747
   63SAPC  H18S 5068   4.343   3.787   8.593 -0.7038 -0.1248 -1.0818
   63SAPC  C219 5069   4.302   3.579   8.630 -0.0469  0.1577  0.0872
   63SAPC  H19R 5070   4.267   3.615   8.729  2.6850  0.9417  0.8097
   63SAPC  H19S 5071   4.406   3.541   8.639 -0.2731 -0.3172  0.7686
   63SAPC  C220 5072   4.224   3.452   8.583  0.7061 -0.0058  0.0254
   63SAPC  H20R 5073   4.273   3.409   8.492 -0.6186 -0.4961 -0.4645
   63SAPC  H20S 5074   4.117   3.470   8.560  0.2478 -1.6724  0.7336
   63SAPC  H20T 5075   4.232   3.372   8.660  0.6761 -0.6267 -0.6020
   63SAPC   C33 5076   5.049   4.212   6.759 -0.0908 -0.1303 -0.3524
   63SAPC   H3X 5077   4.967   4.175   6.825  0.3660 -0.0825  0.2509
   63SAPC   H3Y 5078   5.069   4.321   6.760  1.1478 -0.3427 -0.5675
   63SAPC   C34 5079   5.186   4.167   6.819 -0.1419 -0.5017 -0.7320
   63SAPC   H4X 5080   5.277   4.202   6.765  0.6936  2.3065  2.3190
   63SAPC   H4Y 5081   5.190   4.057   6.811 -0.8922 -0.6209  0.4934
   63SAPC   C35 5082   5.207   4.212   6.964  0.4026  0.1266  0.2168
   63SAPC   H5X 5083   5.124   4.172   7.026  1.0128 -2.5578 -0.6705
   63SAPC   H5Y 5084   5.204   4.323   6.970  2.1938  0.3080 -1.6165
   63SAPC   C36 5085   5.343   4.167   7.023  0.3945  0.1847  0.0067
   63SAPC   H6X 5086   5.432   4.201   6.965  0.1923 -2.2335 -1.7938
   63SAPC   H6Y 5087   5.344   4.056   7.029  0.9324  0.0167 -2.7351
   63SAPC   C37 5088   5.347   4.212   7.174 -0.4127 -0.1424  0.4943
   63SAPC   H7X 5089   5.415   4.151   7.237 -0.0472  0.4975  0.7336
   63SAPC   H7Y 5090   5.244   4.192   7.212 -0.2433 -2.2555 -0.1075
   63SAPC   C38 5091   5.392   4.350   7.200 -0.1303  0.1362 -0.4020
   63SAPC   H8X 5092   5.331   4.420   7.139  0.8650  0.2313 -1.2935
   63SAPC   H8Y 5093   5.493   4.349   7.155 -0.5969 -2.6569 -1.4427
   63SAPC   C39 5094   5.398   4.394   7.350 -1.0476 -0.3064 -0.0175
   63SAPC   H9X 5095   5.432   4.499   7.361 -0.1764 -0.7237  1.4352
   63SAPC   H9Y 5096   5.472   4.328   7.401 -1.3922  0.4469  1.4785
   63SAPC  C310 5097   5.278   4.343   7.431 -0.3632  0.8184 -0.3744
   63SAPC  H10X 5098   5.273   4.232   7.430  0.5051  0.7679 -1.2963
   63SAPC  H10Y 5099   5.188   4.390   7.386  0.6146  2.9577 -0.1442
   63SAPC  C311 5100   5.290   4.378   7.588 -0.7018 -0.0984 -0.0292
   63SAPC  H11X 5101   5.297   4.487   7.607  1.4906 -0.0090 -1.2455
   63SAPC  H11Y 5102   5.385   4.337   7.629 -0.8025  0.4164  0.7224
   63SAPC  C312 5103   5.172   4.322   7.663 -0.6846 -0.5596  0.7368
   63SAPC  H12X 5104   5.164   4.213   7.646 -0.9196 -0.7525  2.0262
   63SAPC  H12Y 5105   5.080   4.359   7.613  0.3213  0.6312 -0.2481
   63SAPC  C313 5106   5.147   4.353   7.817 -0.5661 -0.3336 -0.8650
   63SAPC  H13X 5107   5.166   4.460   7.840 -2.6972  0.1391 -1.2353
   63SAPC  H13Y 5108   5.227   4.293   7.865  1.0853  1.0568 -1.8232
   63SAPC  C314 5109   5.007   4.322   7.865 -0.2222 -0.3470 -0.4265
   63SAPC  H14X 5110   5.019   4.216   7.898  3.4969 -0.6180 -2.4601
   63SAPC  H14Y 5111   4.934   4.348   7.786  0.2828 -0.2606 -0.8598
   63SAPC  C315 5112   4.978   4.395   7.999 -0.0117 -0.1083  0.3999
   63SAPC  H15X 5113   4.879   4.361   8.037 -0.4437  0.9050  0.1989
   63SAPC  H15Y 5114   4.977   4.504   7.975  0.7987 -0.2423 -0.2485
   63SAPC  C316 5115   5.090   4.382   8.104  0.2712  0.3036  0.3734
   63SAPC  H16X 5116   5.183   4.433   8.069  0.3908  1.4306  2.2630
   63SAPC  H16Y 5117   5.112   4.273   8.104  1.4901  0.5374 -0.1043
   63SAPC  C317 5118   5.062   4.430   8.244 -0.0172  0.7500  1.1326
   63SAPC  H17X 5119   4.978   4.365   8.277 -0.4535 -0.2774 -1.8645
   63SAPC  H17Y 5120   5.033   4.537   8.251  2.5024  1.4499  1.4187
   63SAPC  C318 5121   5.183   4.418   8.335  0.2579  0.0579  0.2177
   63SAPC  H18X 5122   5.247   4.508   8.320 -0.4374  0.5143 -0.0220
   63SAPC  H18Y 5123   5.248   4.329   8.326  2.4493  1.8368 -2.1960
   63SAPC  H18Z 5124   5.145   4.416   8.440 -3.5832 -0.7862 -1.1260
   64SAPC     N 5125   0.306   5.006   6.036  0.3221  0.4950 -0.6725
   64SAPC   C12 5126   0.181   4.918   6.058 -0.7083 -0.4136 -0.9292
   64SAPC  H12A 5127   0.163   4.859   5.969 -3.0626 -1.7520  0.4106
   64SAPC  H12B 5128   0.095   4.981   6.073 -0.9581 -0.7962 -0.7459
   64SAPC   C13 5129   0.286   5.112   5.936  0.6771 -0.0111  0.0996
   64SAPC  H13A 5130   0.220   5.186   5.978  1.0328  0.3566  0.0151
   64SAPC  H13B 5131   0.381   5.162   5.917  0.9651 -0.5253  0.1867
   64SAPC  H13C 5132   0.247   5.082   5.840 -0.0870  0.5960  0.2164
   64SAPC   C14 5133   0.338   5.077   6.163  0.4058 -0.3032  0.6009
   64SAPC  H14A 5134   0.325   5.013   6.248 -0.1410  0.0823  0.8097
   64SAPC  H14B 5135   0.437   5.122   6.155  0.1347 -0.1131 -2.1724
   64SAPC  H14C 5136   0.274   5.163   6.176  1.1470  0.2184  0.8642
   64SAPC   C15 5137   0.426   4.919   5.997 -1.1746 -0.1609 -0.0437
   64SAPC  H15A 5138   0.433   4.855   6.084  3.0498 -0.0819 -0.2051
   64SAPC  H15B 5139   0.403   4.869   5.905 -2.5449  0.1689  0.1080
   64SAPC  H15C 5140   0.521   4.970   5.989 -1.9140  1.5400  1.5142
   64SAPC   C11 5141   0.176   4.822   6.178 -0.9783 -0.3498 -0.4590
   64SAPC  H11A 5142   0.074   4.777   6.174 -1.0874 -0.3441  1.9883
   64SAPC  H11B 5143   0.178   4.871   6.277  1.2673  1.2414 -1.2552
   64SAPC     P 5144   0.263   4.577   6.153  0.2429  0.3171  0.0649
   64SAPC   O13 5145   0.190   4.545   6.024 -0.4644  0.5997 -0.1298
   64SAPC   O14 5146   0.387   4.498   6.161 -0.4541 -0.4379  0.6389
   64SAPC   O12 5147   0.286   4.730   6.177 -0.0315 -0.9195 -1.0130
   64SAPC   O11 5148   0.181   4.530   6.281 -0.7214  0.1123  0.1370
   64SAPC    C1 5149   0.226   4.562   6.409 -0.2920  0.1491  0.1267
   64SAPC    HA 5150   0.337   4.557   6.418 -0.2403 -0.6254 -0.8158
   64SAPC    HB 5151   0.186   4.660   6.441  0.2579  0.7107 -0.8847
   64SAPC    C2 5152   0.171   4.456   6.517  0.0769  0.3960  0.6184
   64SAPC    HS 5153   0.225   4.457   6.614 -0.7412 -1.9002  1.1267
   64SAPC   O21 5154   0.176   4.320   6.471  1.0054 -0.0158 -0.0300
   64SAPC   C21 5155   0.292   4.269   6.435 -0.9220 -0.7755  0.3648
   64SAPC   O22 5156   0.396   4.315   6.479 -0.7125 -0.6658 -0.4499
   64SAPC   C22 5157   0.276   4.146   6.347  0.8612  1.3747  0.4201
   64SAPC   H2R 5158   0.195   4.157   6.271  0.2488 -1.0749  0.6894
   64SAPC   H2S 5159   0.372   4.119   6.300  0.7759  0.4981  0.7512
   64SAPC    C3 5160   0.029   4.486   6.561 -0.2957  0.5726 -0.3361
   64SAPC    HX 5161  -0.031   4.462   6.470 -0.2623 -0.0561 -0.1891
   64SAPC    HY 5162   0.022   4.594   6.588 -0.6054  0.3308  0.5626
   64SAPC   O31 5163  -0.004   4.408   6.679 -0.0270 -0.0978 -0.3374
   64SAPC   C31 5164  -0.071   4.293   6.654  0.0250 -0.4297  0.0178
   64SAPC   O32 5165  -0.120   4.258   6.543  0.9368 -0.4616 -0.2430
   64SAPC   C32 5166  -0.085   4.215   6.780  0.1714  0.4802 -0.1310
   64SAPC   H2X 5167   0.017   4.175   6.800 -0.7898 -0.3094  3.6836
   64SAPC   H2Y 5168  -0.142   4.120   6.769  2.3250 -0.7543 -0.8997
   64SAPC   C23 5169   0.252   4.021   6.437 -0.1168 -0.0095 -0.1249
   64SAPC   H3R 5170   0.241   3.932   6.371 -0.0865 -0.5724  0.6210
   64SAPC   H3S 5171   0.151   4.035   6.481  0.2502  1.9445  0.1366
   64SAPC   C24 5172   0.350   3.994   6.551  0.4489 -0.2831  0.2377
   64SAPC   H4R 5173   0.453   4.017   6.516 -0.3520  1.4593 -1.0632
   64SAPC   H4S 5174   0.349   3.884   6.567 -0.5796 -0.4894 -1.1150
   64SAPC   C25 5175   0.320   4.059   6.688 -0.4361  0.7438 -0.2867
   64SAPC   H5R 5176   0.376   4.149   6.714  0.9766  0.5623 -2.5483
   64SAPC   C26 5177   0.235   4.016   6.777  0.1894  0.2376 -0.3239
   64SAPC   H6R 5178   0.234   4.086   6.862 -0.3188  1.9342 -1.6971
   64SAPC   C27 5179   0.134   3.904   6.776  0.3296  0.2538  0.3478
   64SAPC   H7R 5180   0.187   3.806   6.772  1.8750  1.0481  0.9185
   64SAPC   H7S 5181   0.075   3.899   6.682 -1.1668 -1.1506  1.3370
   64SAPC   C28 5182   0.047   3.905   6.902 -0.7909 -0.2666 -0.2648
   64SAPC   H8R 5183  -0.060   3.898   6.876 -0.8438 -0.1917 -0.0727
   64SAPC   C29 5184   0.091   3.901   7.029  0.1470  0.1772  0.2470
   64SAPC   H9R 5185   0.019   3.923   7.109  1.5416  1.2217  1.2421
   64SAPC  C210 5186   0.225   3.878   7.088 -0.7206  0.0589 -0.1664
   64SAPC  H10R 5187   0.296   3.851   7.007 -0.3187  1.2614 -0.2167
   64SAPC  H10S 5188   0.210   3.788   7.152 -0.4140  0.2898  0.2282
   64SAPC  C211 5189   0.283   3.994   7.170 -0.1317 -0.9591  0.0469
   64SAPC  H11R 5190   0.364   4.056   7.130 -0.0337 -0.6244  0.7613
   64SAPC  C212 5191   0.242   4.027   7.288 -0.1509  0.1397  0.0998
   64SAPC  H12R 5192   0.287   4.117   7.332 -0.6296  0.4120  0.0262
   64SAPC  C213 5193   0.138   3.964   7.382  0.2225 -0.0478 -0.1142
   64SAPC  H13R 5194   0.188   3.876   7.426 -0.4770 -1.3991 -1.9614
   64SAPC  H13S 5195   0.047   3.933   7.327  1.3170 -1.9099 -0.9087
   64SAPC  C214 5196   0.102   4.065   7.489  0.3228 -0.3990  0.2220
   64SAPC  H14R 5197   0.056   4.151   7.439 -0.8332 -1.0377  0.1682
   64SAPC  C215 5198   0.110   4.059   7.623  0.0564  0.3066  0.2987
   64SAPC  H15R 5199   0.098   4.147   7.688  2.8605  1.8628 -1.1653
   64SAPC  C216 5200   0.157   3.938   7.701  0.9156 -0.0227 -0.0635
   64SAPC  H16R 5201   0.140   3.844   7.646  3.1216  1.4979 -3.4662
   64SAPC  H16S 5202   0.099   3.935   7.796  1.6018  4.1044  0.5824
   64SAPC  C217 5203   0.307   3.946   7.732 -1.0196 -0.1577  0.0859
   64SAPC  H17R 5204   0.353   3.981   7.637  0.0062 -2.9991 -0.5009
   64SAPC  H17S 5205   0.347   3.844   7.745 -0.2595  0.2063  0.6169
   64SAPC  C218 5206   0.345   4.042   7.844 -0.2105  0.3503  0.6484
   64SAPC  H18R 5207   0.291   4.137   7.827 -1.7769 -0.3064  1.7874
   64SAPC  H18S 5208   0.455   4.055   7.841 -0.3898  1.9730  0.9944
   64SAPC  C219 5209   0.308   3.993   7.993  0.2461  0.5381  0.1455
   64SAPC  H19R 5210   0.198   3.987   8.001  0.1760  0.6039 -0.7035
   64SAPC  H19S 5211   0.345   4.077   8.055 -1.6621  2.2682 -0.9818
   64SAPC  C220 5212   0.366   3.861   8.039  0.5680 -0.0811 -0.0418
   64SAPC  H20R 5213   0.476   3.860   8.018  0.3602  1.1337 -1.2901
   64SAPC  H20S 5214   0.319   3.780   7.979 -0.6233  0.2964  0.3747
   64SAPC  H20T 5215   0.348   3.840   8.147 -0.7370 -4.4357 -1.0026
   64SAPC   C33 5216  -0.152   4.287   6.897  0.0735  0.4681  0.2241
   64SAPC   H3X 5217  -0.261   4.277   6.883  0.1429 -0.2721  0.1851
   64SAPC   H3Y 5218  -0.112   4.391   6.890 -0.0515  0.3665 -2.3495
   64SAPC   C34 5219  -0.102   4.238   7.037 -0.5122 -0.0792 -0.8062
   64SAPC   H4X 5220   0.001   4.271   7.060 -0.1451 -1.3514 -0.5641
   64SAPC   H4Y 5221  -0.109   4.127   7.034  3.0159 -0.4260  1.0460
   64SAPC   C35 5222  -0.205   4.290   7.141  0.5865  0.0584  0.4559
   64SAPC   H5X 5223  -0.313   4.273   7.124  0.9498 -0.4180 -1.5343
   64SAPC   H5Y 5224  -0.184   4.399   7.138  1.2234 -0.1224 -2.9636
   64SAPC   C36 5225  -0.175   4.239   7.284  0.0774 -0.1044  0.5658
   64SAPC   H6X 5226  -0.072   4.269   7.316  0.4387 -0.2126 -0.4687
   64SAPC   H6Y 5227  -0.181   4.128   7.287  0.7857 -0.1374  0.8933
   64SAPC   C37 5228  -0.277   4.303   7.386 -0.1368  0.6800 -0.5990
   64SAPC   H7X 5229  -0.375   4.263   7.352  0.5890 -0.6009 -1.2028
   64SAPC   H7Y 5230  -0.271   4.413   7.371  1.2457  1.1224  2.8529
   64SAPC   C38 5231  -0.236   4.270   7.531 -0.5569  0.0779 -0.3091
   64SAPC   H8X 5232  -0.132   4.307   7.542 -1.4332  3.3304 -2.2755
   64SAPC   H8Y 5233  -0.246   4.160   7.540 -0.5230  0.2622  2.1510
   64SAPC   C39 5234  -0.337   4.322   7.632 -0.0653 -0.7562  0.4883
   64SAPC   H9X 5235  -0.437   4.288   7.597  0.0399  1.4548 -2.1259
   64SAPC   H9Y 5236  -0.330   4.433   7.634 -0.1432 -0.7307 -0.3939
   64SAPC  C310 5237  -0.310   4.273   7.776 -0.0229  1.0552  0.5996
   64SAPC  H10X 5238  -0.316   4.162   7.776 -0.9152  1.0880 -0.6517
   64SAPC  H10Y 5239  -0.393   4.303   7.844  0.7978  0.7692  1.7400
   64SAPC  C311 5240  -0.191   4.321   7.844 -0.6934 -0.5350 -0.3226
   64SAPC  H11X 5241  -0.175   4.431   7.844 -0.0687 -0.6219 -1.1173
   64SAPC  H11Y 5242  -0.105   4.276   7.789  2.1485  1.0514  2.6188
   64SAPC  C312 5243  -0.171   4.255   7.980 -0.4095 -0.1561  0.1090
   64SAPC  H12X 5244  -0.202   4.149   7.987 -0.2968 -0.0931  1.6264
   64SAPC  H12Y 5245  -0.241   4.305   8.050 -0.8070  1.2019 -1.2278
   64SAPC  C313 5246  -0.028   4.261   8.027  0.2347 -0.9094 -0.2127
   64SAPC  H13X 5247   0.030   4.355   8.016  2.1659 -1.8160  1.7157
   64SAPC  H13Y 5248   0.037   4.192   7.969 -1.1455 -2.6168  0.2287
   64SAPC  C314 5249  -0.011   4.220   8.173 -0.0370  0.2110  0.4912
   64SAPC  H14X 5250  -0.090   4.262   8.239 -2.3853 -1.2261 -1.3271
   64SAPC  H14Y 5251   0.090   4.252   8.206 -0.5899  0.0421  2.3927
   64SAPC  C315 5252  -0.024   4.068   8.196 -1.0238  0.5743 -0.2196
   64SAPC  H15X 5253   0.078   4.025   8.205 -0.7954  1.1891  0.1770
   64SAPC  H15Y 5254  -0.081   4.027   8.110  0.0144  0.7258 -1.0022
   64SAPC  C316 5255  -0.113   4.034   8.318 -0.1711 -0.1829 -0.2283
   64SAPC  H16X 5256  -0.207   4.092   8.321 -0.5768 -0.8824  0.7383
   64SAPC  H16Y 5257  -0.053   4.063   8.407  0.4014  0.0823 -0.7013
   64SAPC  C317 5258  -0.154   3.884   8.329 -0.0622  0.1192  0.3232
   64SAPC  H17X 5259  -0.057   3.831   8.331  0.3632  0.8321 -0.6289
   64SAPC  H17Y 5260  -0.214   3.853   8.241 -1.0325 -0.7110  1.2639
   64SAPC  C318 5261  -0.229   3.853   8.455 -0.4578 -0.6334  0.2102
   64SAPC  H18X 5262  -0.252   3.744   8.450 -2.6903 -0.1399 -0.7538
   64SAPC  H18Y 5263  -0.325   3.907   8.462  0.7196  1.6144 -0.4261
   64SAPC  H18Z 5264  -0.165   3.877   8.542 -0.9951  0.1506  0.3897
   65SAPC     N 5265   6.012   5.516   5.695  0.3979  0.4132 -0.8475
   65SAPC   C12 5266   6.145   5.486   5.762 -0.2492  0.5667 -0.1283
   65SAPC  H12A 5267   6.216   5.564   5.740  0.1447  0.4352  0.6459
   65SAPC  H12B 5268   6.190   5.399   5.717 -0.4314 -1.1388  2.8491
   65SAPC   C13 5269   5.908   5.416   5.735  0.2199  0.0832  0.2855
   65SAPC  H13A 5270   5.927   5.318   5.693 -2.1226 -0.5977  0.7372
   65SAPC  H13B 5271   5.915   5.403   5.842  1.3845 -0.6772  0.1219
   65SAPC  H13C 5272   5.808   5.449   5.711 -0.8055 -3.3815 -0.5311
   65SAPC   C14 5273   5.955   5.649   5.725 -0.1116 -0.1097 -0.6777
   65SAPC  H14A 5274   6.015   5.727   5.680 -1.3210  0.9100 -0.5727
   65SAPC  H14B 5275   5.855   5.666   5.686 -0.8486  1.3511  1.6994
   65SAPC  H14C 5276   5.962   5.662   5.832 -0.4307 -0.1564 -0.6492
   65SAPC   C15 5277   6.023   5.503   5.541  0.6651 -0.0013  0.3124
   65SAPC  H15A 5278   6.041   5.402   5.508 -2.4268 -0.1147 -1.2170
   65SAPC  H15B 5279   5.922   5.522   5.509  0.4709  2.4768  2.2392
   65SAPC  H15C 5280   6.089   5.579   5.502  1.2225 -1.3025 -1.3175
   65SAPC   C11 5281   6.148   5.471   5.911  0.5374 -0.1768 -0.1414
   65SAPC  H11A 5282   6.244   5.424   5.939 -0.7263 -1.0956  2.7601
   65SAPC  H11B 5283   6.073   5.396   5.943 -1.1428  2.2167  1.7469
   65SAPC     P 5284   6.231   5.668   6.056 -0.2168  0.1407 -0.3582
   65SAPC   O13 5285   6.349   5.674   5.964 -0.0884  0.0736  0.0033
   65SAPC   O14 5286   6.176   5.791   6.108  0.4036 -0.5016 -0.7773
   65SAPC   O12 5287   6.109   5.597   5.982  0.5953 -0.0511  0.3324
   65SAPC   O11 5288   6.274   5.575   6.173 -0.8301  0.0094  0.4426
   65SAPC    C1 5289   6.372   5.597   6.274 -0.8992  0.0737 -0.1413
   65SAPC    HA 5290   6.439   5.509   6.273 -0.7076  0.1462  2.4243
   65SAPC    HB 5291   6.433   5.687   6.249 -0.9461 -0.3168 -1.7083
   65SAPC    C2 5292   6.316   5.616   6.415 -0.2648  0.2918  0.4051
   65SAPC    HS 5293   6.255   5.708   6.409 -1.7331 -0.6004  1.1762
   65SAPC   O21 5294   6.415   5.613   6.520 -0.3340  0.0900  0.0960
   65SAPC   C21 5295   6.464   5.731   6.560  0.6047  0.7697 -0.0480
   65SAPC   O22 5296   6.412   5.836   6.529 -0.4003 -0.1926  0.3679
   65SAPC   C22 5297   6.585   5.714   6.655  0.2913 -0.0514 -0.0438
   65SAPC   H2R 5298   6.620   5.609   6.663  0.0622 -0.0916  0.4444
   65SAPC   H2S 5299   6.669   5.778   6.620 -0.5670  1.1764  0.1016
   65SAPC    C3 5300   6.212   5.495   6.444 -0.9537  0.8341  0.3635
   65SAPC    HX 5301   6.272   5.403   6.425  0.3708  1.8986 -0.7035
   65SAPC    HY 5302   6.135   5.498   6.364 -2.1338 -0.5589  1.4337
   65SAPC   O31 5303   6.142   5.485   6.568 -0.4877 -0.1317  0.0284
   65SAPC   C31 5304   6.063   5.595   6.604 -0.0965  0.1271  0.1139
   65SAPC   O32 5305   6.065   5.703   6.551 -0.6768 -0.2064 -0.1068
   65SAPC   C32 5306   5.983   5.555   6.727  0.0236 -0.0176  0.5561
   65SAPC   H2X 5307   5.978   5.444   6.729 -2.8443  0.0588 -0.0822
   65SAPC   H2Y 5308   5.880   5.594   6.713 -1.1120 -2.4724  1.7521
   65SAPC   C23 5309   6.545   5.774   6.787  0.0694  0.9477  0.1863
   65SAPC   H3R 5310   6.507   5.878   6.780 -1.0976  0.4653 -0.8836
   65SAPC   H3S 5311   6.634   5.784   6.853  0.2855 -0.3368  0.1016
   65SAPC   C24 5312   6.441   5.689   6.857 -0.0647 -0.0229 -0.6090
   65SAPC   H4R 5313   6.365   5.665   6.780  0.2662  2.7024 -1.8565
   65SAPC   H4S 5314   6.382   5.754   6.926  1.1414  2.0057 -1.4321
   65SAPC   C25 5315   6.496   5.567   6.920  0.2142  0.2879  1.0424
   65SAPC   H5R 5316   6.568   5.509   6.860  0.2073 -0.6021  1.8735
   65SAPC   C26 5317   6.491   5.533   7.050  0.2725  0.2171 -0.5985
   65SAPC   H6R 5318   6.515   5.430   7.079 -0.1736  0.0220 -0.9087
   65SAPC   C27 5319   6.425   5.623   7.158 -0.1009 -0.7259 -0.6841
   65SAPC   H7R 5320   6.360   5.563   7.225 -1.0328  0.4372 -0.5438
   65SAPC   H7S 5321   6.358   5.701   7.117  0.2003  1.4532  2.7912
   65SAPC   C28 5322   6.518   5.714   7.239 -0.1215  0.2020 -0.1006
   65SAPC   H8R 5323   6.618   5.727   7.196  0.4408  2.7181  1.8515
   65SAPC   C29 5324   6.482   5.774   7.353  0.1302 -0.7500  0.0543
   65SAPC   H9R 5325   6.551   5.843   7.405 -1.1433  0.7044 -0.1439
   65SAPC  C210 5326   6.349   5.779   7.422 -0.2856  0.0070 -0.2249
   65SAPC  H10R 5327   6.346   5.715   7.512  0.7329 -0.4924 -0.5537
   65SAPC  H10S 5328   6.266   5.735   7.362 -0.0565 -0.3099 -0.3058
   65SAPC  C211 5329   6.296   5.915   7.461 -0.1785 -0.1689  0.9963
   65SAPC  H11R 5330   6.300   5.983   7.375 -2.1166 -1.7163 -0.3831
   65SAPC  C212 5331   6.283   5.962   7.584  0.5935 -0.3967  0.1480
   65SAPC  H12R 5332   6.232   6.059   7.592  0.1633 -0.6981  1.1183
   65SAPC  C213 5333   6.301   5.884   7.707 -0.1261  0.4890 -0.0163
   65SAPC  H13R 5334   6.236   5.795   7.694  0.6887 -0.1399  0.2442
   65SAPC  H13S 5335   6.260   5.943   7.792 -0.1248 -0.9278  0.9795
   65SAPC  C214 5336   6.447   5.843   7.729  0.0534 -0.2859 -0.7610
   65SAPC  H14R 5337   6.496   5.797   7.642  2.8299  1.1436  0.0085
   65SAPC  C215 5338   6.525   5.890   7.831  0.1434 -0.0857 -0.3730
   65SAPC  H15R 5339   6.632   5.867   7.836  0.5547  1.9353  0.7748
   65SAPC  C216 5340   6.472   5.971   7.951 -1.7301 -0.1332  0.0713
   65SAPC  H16R 5341   6.375   5.929   7.986 -2.7637  1.1256 -1.2561
   65SAPC  H16S 5342   6.449   6.075   7.921  0.3301  0.7853  1.6208
   65SAPC  C217 5343   6.562   5.973   8.073 -0.3211  0.5021  0.1475
   65SAPC  H17R 5344   6.658   6.027   8.055  0.0897  0.5022  2.2643
   65SAPC  H17S 5345   6.590   5.869   8.100 -0.6726  0.7555  1.4984
   65SAPC  C218 5346   6.506   6.040   8.205  0.3126 -0.4216 -0.3488
   65SAPC  H18R 5347   6.503   6.151   8.203 -3.5968 -0.3637  1.9795
   65SAPC  H18S 5348   6.587   6.015   8.277  1.9883 -0.4263 -2.1925
   65SAPC  C219 5349   6.384   5.970   8.252  0.2429  0.2168  0.6992
   65SAPC  H19R 5350   6.366   5.869   8.209  0.9590  1.2605 -2.1984
   65SAPC  H19S 5351   6.292   6.028   8.227  0.6227  1.2913  1.7434
   65SAPC  C220 5352   6.386   5.954   8.408 -0.1489 -0.2124  0.0512
   65SAPC  H20R 5353   6.483   5.914   8.445 -0.4020 -0.8424  0.0356
   65SAPC  H20S 5354   6.304   5.886   8.439 -0.8091 -0.5411 -2.2859
   65SAPC  H20T 5355   6.375   6.050   8.462 -0.3709  0.4702 -1.1713
   65SAPC   C33 5356   6.033   5.609   6.861  0.1522 -1.0134 -0.2360
   65SAPC   H3X 5357   6.132   5.568   6.890  0.6467 -0.7326 -1.5136
   65SAPC   H3Y 5358   5.957   5.577   6.936  0.5266  0.1353  0.6450
   65SAPC   C34 5359   6.036   5.763   6.875 -0.3739 -0.3043 -0.6678
   65SAPC   H4X 5360   5.952   5.799   6.812 -0.8137 -2.2186 -1.1921
   65SAPC   H4Y 5361   6.132   5.789   6.825 -0.2086 -0.4816 -0.4464
   65SAPC   C35 5362   6.037   5.813   7.020 -0.2306 -0.1024 -0.5271
   65SAPC   H5X 5363   6.136   5.786   7.062 -0.8967 -0.0804  1.0815
   65SAPC   H5Y 5364   5.961   5.754   7.076  2.8724 -1.5666  2.3516
   65SAPC   C36 5365   5.998   5.958   7.030 -0.7599  0.3906  0.1810
   65SAPC   H6X 5366   5.892   5.974   6.999 -0.9584 -0.0397  0.6321
   65SAPC   H6Y 5367   6.062   5.998   6.949 -1.1783  0.2491 -0.2239
   65SAPC   C37 5368   6.043   6.037   7.158  0.1738  0.5424  0.4533
   65SAPC   H7X 5369   6.014   6.144   7.155  0.4833  0.6387  0.8506
   65SAPC   H7Y 5370   6.154   6.032   7.168  0.1441  1.2237  1.1271
   65SAPC   C38 5371   5.970   5.980   7.283 -1.0270 -0.1159  0.2677
   65SAPC   H8X 5372   6.018   5.893   7.332  1.2277 -0.1422 -1.8724
   65SAPC   H8Y 5373   5.867   5.962   7.246 -1.1993 -1.0862  1.2064
   65SAPC   C39 5374   5.966   6.084   7.394 -0.8025  0.0944  0.7206
   65SAPC   H9X 5375   5.901   6.174   7.386 -0.0729  0.5699  0.1370
   65SAPC   H9Y 5376   6.073   6.111   7.405 -0.1749 -0.5623 -2.9648
   65SAPC  C310 5377   5.920   6.024   7.525 -0.2592  0.5115  0.3057
   65SAPC  H10X 5378   5.987   5.938   7.547 -1.4865 -0.1281  1.6531
   65SAPC  H10Y 5379   5.813   5.996   7.519  0.7660 -3.3828 -1.0133
   65SAPC  C311 5380   5.932   6.121   7.643  0.4031 -0.4484  0.4025
   65SAPC  H11X 5381   5.866   6.209   7.623  0.5662 -0.7087 -1.3921
   65SAPC  H11Y 5382   6.033   6.163   7.657 -0.7319  2.5023  0.0649
   65SAPC  C312 5383   5.903   6.048   7.778  0.1278 -0.1870 -0.0461
   65SAPC  H12X 5384   5.958   5.952   7.792 -0.1239 -0.9077 -3.4720
   65SAPC  H12Y 5385   5.796   6.021   7.790 -0.4441  2.1828  0.3232
   65SAPC  C313 5386   5.953   6.131   7.901 -0.5733 -0.0899 -0.6174
   65SAPC  H13X 5387   5.913   6.234   7.886 -1.5996 -0.1712  1.4080
   65SAPC  H13Y 5388   6.062   6.109   7.905 -1.0881 -3.4721 -2.8445
   65SAPC  C314 5389   5.884   6.096   8.032 -0.2811 -0.2123  0.6166
   65SAPC  H14X 5390   5.908   5.991   8.062  1.0384  0.0696  0.5823
   65SAPC  H14Y 5391   5.774   6.096   8.016 -0.1292  0.8124 -0.5532
   65SAPC  C315 5392   5.893   6.210   8.146  0.8806 -0.3461 -0.1269
   65SAPC  H15X 5393   5.807   6.210   8.216  0.9061  1.6749 -0.0938
   65SAPC  H15Y 5394   5.901   6.308   8.096  0.6341 -0.8031 -1.0876
   65SAPC  C316 5395   6.026   6.179   8.220  0.1360  0.3156  0.4050
   65SAPC  H16X 5396   6.106   6.175   8.143 -0.8025 -0.6152 -0.5125
   65SAPC  H16Y 5397   6.025   6.079   8.269 -2.4003 -0.8399 -1.9199
   65SAPC  C317 5398   6.062   6.279   8.339  0.4346 -0.2486  0.1632
   65SAPC  H17X 5399   6.154   6.237   8.385  2.0162 -0.0504 -2.7477
   65SAPC  H17Y 5400   5.977   6.279   8.411  0.4608 -1.5230  0.2022
   65SAPC  C318 5401   6.087   6.423   8.289  0.2122 -0.3438 -0.1209
   65SAPC  H18X 5402   6.099   6.492   8.375 -0.7047  0.4405 -0.6145
   65SAPC  H18Y 5403   5.997   6.452   8.230  0.6244  0.5132 -0.3553
   65SAPC  H18Z 5404   6.177   6.425   8.223 -0.7530 -0.6000 -1.4750
   66SAPC     N 5405   4.127   4.902   5.888  1.2173  0.2415 -0.7040
   66SAPC   C12 5406   4.204   4.894   6.020  0.1472  0.5355 -0.5486
   66SAPC  H12A 5407   4.305   4.932   6.011  0.9235 -1.6668 -1.5710
   66SAPC  H12B 5408   4.211   4.788   6.042 -3.5846  0.3421  0.1043
   66SAPC   C13 5409   4.139   5.039   5.824 -0.1483 -0.9092 -0.2923
   66SAPC  H13A 5410   4.244   5.062   5.824  0.3548 -3.0632  1.1370
   66SAPC  H13B 5411   4.097   5.052   5.725 -2.8469 -0.1851  0.8964
   66SAPC  H13C 5412   4.085   5.105   5.891  3.3798  1.2190  0.6252
   66SAPC   C14 5413   4.169   4.797   5.789  0.2018  0.7489 -0.3481
   66SAPC  H14A 5414   4.178   4.700   5.837  0.1631 -0.9297 -3.5702
   66SAPC  H14B 5415   4.107   4.788   5.701  0.0612 -1.0300 -0.0984
   66SAPC  H14C 5416   4.268   4.820   5.753  1.0010  0.0398  1.3244
   66SAPC   C15 5417   3.979   4.887   5.909 -0.1512 -0.1904 -0.1723
   66SAPC  H15A 5418   3.956   4.793   5.958  0.8301  1.6804  4.1183
   66SAPC  H15B 5419   3.946   4.958   5.983  4.0860 -2.7258  4.5334
   66SAPC  H15C 5420   3.923   4.901   5.818 -0.7286  2.3637  0.5511
   66SAPC   C11 5421   4.139   4.969   6.142 -0.0392 -0.4723 -0.1184
   66SAPC  H11A 5422   4.204   4.953   6.230  1.0341  0.4047 -0.7474
   66SAPC  H11B 5423   4.037   4.929   6.165 -0.2410 -0.4178 -0.9135
   66SAPC     P 5424   4.222   5.215   6.113 -0.0463  0.2168 -0.3626
   66SAPC   O13 5425   4.349   5.156   6.158 -0.2755  0.1866 -0.7901
   66SAPC   O14 5426   4.225   5.287   5.985 -0.1827  0.0021 -0.3803
   66SAPC   O12 5427   4.112   5.101   6.100  0.5370 -0.1888  0.8625
   66SAPC   O11 5428   4.162   5.302   6.228  0.7363  0.3778 -0.4842
   66SAPC    C1 5429   4.124   5.233   6.352  0.2461 -0.5319 -0.4791
   66SAPC    HA 5430   4.064   5.142   6.331 -1.7723  1.4111 -3.4440
   66SAPC    HB 5431   4.212   5.199   6.411  0.9780  0.4112 -1.0175
   66SAPC    C2 5432   4.032   5.335   6.444  0.1658 -0.6261  0.7636
   66SAPC    HS 5433   3.961   5.389   6.377 -0.6116 -0.8369  1.4155
   66SAPC   O21 5434   4.120   5.431   6.506 -0.0018  0.0086 -0.3522
   66SAPC   C21 5435   4.060   5.509   6.596 -0.0860 -0.3444 -0.6797
   66SAPC   O22 5436   3.944   5.537   6.608 -0.4442 -0.0813  0.0617
   66SAPC   C22 5437   4.161   5.566   6.696 -0.5360 -0.4772  0.2744
   66SAPC   H2R 5438   4.241   5.489   6.705  1.2711  1.3926  0.6291
   66SAPC   H2S 5439   4.206   5.664   6.667 -0.3385 -0.9506 -1.0513
   66SAPC    C3 5440   3.948   5.251   6.545 -0.8453 -0.1988  0.2501
   66SAPC    HX 5441   3.890   5.183   6.478 -0.2558 -0.7413  0.2822
   66SAPC    HY 5442   3.873   5.305   6.607 -0.4928 -2.1722  2.5082
   66SAPC   O31 5443   4.033   5.190   6.644 -0.1612  0.2892  0.2897
   66SAPC   C31 5444   4.059   5.064   6.638  0.2596  1.2131 -0.8188
   66SAPC   O32 5445   4.039   4.981   6.547 -0.7317 -0.1649 -0.5249
   66SAPC   C32 5446   4.113   5.030   6.781  0.4445 -0.9452 -0.0387
   66SAPC   H2X 5447   4.100   5.116   6.850  3.3180  0.7831 -1.5803
   66SAPC   H2Y 5448   4.222   5.026   6.761  0.4665  2.4848 -0.9119
   66SAPC   C23 5449   4.101   5.581   6.838  0.1179 -0.2354 -0.0806
   66SAPC   H3R 5450   4.018   5.655   6.848  0.0115 -0.4031  0.2845
   66SAPC   H3S 5451   4.180   5.623   6.903  1.1795 -0.7843 -0.9970
   66SAPC   C24 5452   4.070   5.445   6.905  0.0876  0.5124  0.2269
   66SAPC   H4R 5453   4.169   5.394   6.915 -0.8046 -1.2814  0.0248
   66SAPC   H4S 5454   4.007   5.383   6.839 -0.6549 -2.2610  3.4465
   66SAPC   C25 5455   4.003   5.459   7.042 -1.1122  0.4821 -0.0412
   66SAPC   H5R 5456   3.908   5.513   7.035 -0.2146  2.0219 -0.4923
   66SAPC   C26 5457   4.055   5.438   7.163 -0.2510 -0.4335 -0.2824
   66SAPC   H6R 5458   3.992   5.459   7.251 -0.1932  1.7482 -0.7197
   66SAPC   C27 5459   4.201   5.386   7.195  0.6200  0.5690  0.2026
   66SAPC   H7R 5460   4.268   5.457   7.143  0.8811  0.2083  0.0443
   66SAPC   H7S 5461   4.219   5.280   7.167 -2.7665  0.5979 -2.3360
   66SAPC   C28 5462   4.226   5.398   7.342 -0.4851  0.2242 -0.2811
   66SAPC   H8R 5463   4.264   5.497   7.372 -1.8264  1.2332 -1.8384
   66SAPC   C29 5464   4.238   5.302   7.434 -0.3826  0.1352 -0.3486
   66SAPC   H9R 5465   4.254   5.335   7.538  1.9381 -0.1493 -0.5892
   66SAPC  C210 5466   4.214   5.151   7.421  0.1879 -0.3531  0.8099
   66SAPC  H10R 5467   4.147   5.113   7.341  0.5432 -1.1041  0.8585
   66SAPC  H10S 5468   4.160   5.131   7.516  0.6318  0.8265  1.3151
   66SAPC  C211 5469   4.337   5.070   7.429 -0.2812  0.5026  0.2469
   66SAPC  H11R 5470   4.361   5.025   7.332  0.1043  1.3525 -0.0586
   66SAPC  C212 5471   4.422   5.050   7.531 -0.4476 -0.2414  0.5298
   66SAPC  H12R 5472   4.505   4.979   7.521 -0.5962 -0.2173 -1.0116
   66SAPC  C213 5473   4.418   5.102   7.676 -0.2322 -0.6655 -0.1039
   66SAPC  H13R 5474   4.343   5.181   7.695  0.6899 -0.6307  4.1051
   66SAPC  H13S 5475   4.518   5.147   7.696 -1.1233  1.6561 -0.6393
   66SAPC  C214 5476   4.380   4.997   7.780 -0.2102 -0.1564  0.4265
   66SAPC  H14R 5477   4.330   4.910   7.735  0.9023 -0.6041  0.0517
   66SAPC  C215 5478   4.376   5.008   7.911 -0.2396 -0.1689 -0.1035
   66SAPC  H15R 5479   4.350   4.923   7.975 -2.6252 -1.0382 -2.1492
   66SAPC  C216 5480   4.423   5.128   7.986 -0.1446  0.1718 -0.4531
   66SAPC  H16R 5481   4.452   5.215   7.924 -2.1601  0.2275 -1.3437
   66SAPC  H16S 5482   4.499   5.104   8.064 -2.7058 -3.2533  1.1272
   66SAPC  C217 5483   4.304   5.177   8.070 -0.4957 -0.3138  0.4297
   66SAPC  H17R 5484   4.265   5.104   8.144 -0.1873  0.3746  1.2817
   66SAPC  H17S 5485   4.213   5.209   8.016  0.0293  0.0857 -0.2319
   66SAPC  C218 5486   4.342   5.300   8.154  0.8958  0.1524 -0.3162
   66SAPC  H18R 5487   4.351   5.395   8.097  1.0148 -0.1796 -0.8524
   66SAPC  H18S 5488   4.441   5.280   8.199 -0.4847 -0.5436  2.5304
   66SAPC  C219 5489   4.249   5.342   8.273 -0.5445  0.0085  0.0087
   66SAPC  H19R 5490   4.142   5.333   8.246  0.9313 -0.0562 -6.9232
   66SAPC  H19S 5491   4.273   5.445   8.305  0.7035  0.0802 -1.1030
   66SAPC  C220 5492   4.271   5.244   8.398 -0.9413 -0.6417 -0.3461
   66SAPC  H20R 5493   4.377   5.244   8.430 -0.7901  0.0637 -0.8283
   66SAPC  H20S 5494   4.246   5.141   8.366  0.1875 -0.0455 -3.2356
   66SAPC  H20T 5495   4.199   5.274   8.478 -2.9899 -1.1737 -1.9365
   66SAPC   C33 5496   4.056   4.903   6.842 -0.3122 -0.3897 -0.6857
   66SAPC   H3X 5497   4.089   4.808   6.795 -1.4206 -0.2234 -1.8282
   66SAPC   H3Y 5498   3.946   4.909   6.826 -0.8954  0.6399  3.0462
   66SAPC   C34 5499   4.090   4.919   6.989 -0.2204 -0.2766 -0.3337
   66SAPC   H4X 5500   4.036   5.003   7.036 -0.5192 -2.6489  3.7865
   66SAPC   H4Y 5501   4.197   4.940   7.013 -1.0845  2.8302  1.0171
   66SAPC   C35 5502   4.065   4.793   7.066  0.0015  0.2643 -0.4720
   66SAPC   H5X 5503   4.139   4.717   7.035 -1.1294  0.1272 -2.9011
   66SAPC   H5Y 5504   3.969   4.751   7.029  0.9666 -1.4248 -1.0953
   66SAPC   C36 5505   4.050   4.821   7.217  0.3739 -0.1597  0.5857
   66SAPC   H6X 5506   3.954   4.877   7.225  0.2450 -0.3431  0.2839
   66SAPC   H6Y 5507   4.135   4.881   7.257  0.9637 -1.1399  0.8229
   66SAPC   C37 5508   4.041   4.698   7.316  0.1611  1.0291  0.3662
   66SAPC   H7X 5509   4.128   4.631   7.297 -1.3275 -0.8572  0.0384
   66SAPC   H7Y 5510   3.956   4.632   7.288  2.9278 -2.0581 -1.0145
   66SAPC   C38 5511   4.041   4.746   7.462  0.5108 -0.5313 -0.0758
   66SAPC   H8X 5512   3.940   4.783   7.491  0.3644 -0.9623 -0.0303
   66SAPC   H8Y 5513   4.114   4.829   7.467 -0.1640  0.0825 -0.2894
   66SAPC   C39 5514   4.082   4.628   7.553  0.3197  0.5283 -0.2275
   66SAPC   H9X 5515   4.186   4.599   7.526 -0.1921 -0.6588 -0.9505
   66SAPC   H9Y 5516   4.005   4.548   7.547  1.0591 -0.1423 -0.8099
   66SAPC  C310 5517   4.077   4.678   7.710  0.1122  0.1403  0.3423
   66SAPC  H10X 5518   3.987   4.738   7.733 -1.3998 -0.8744 -2.6647
   66SAPC  H10Y 5519   4.151   4.757   7.733 -1.0776  1.2135  0.5255
   66SAPC  C311 5520   4.084   4.559   7.813 -0.5657  0.1106 -0.7235
   66SAPC  H11X 5521   4.161   4.486   7.782 -1.5813 -1.3401  0.1348
   66SAPC  H11Y 5522   3.982   4.514   7.808  0.0071 -1.4198  0.9468
   66SAPC  C312 5523   4.121   4.587   7.964 -0.2367  0.0789  0.1205
   66SAPC  H12X 5524   4.037   4.650   8.000 -1.6995 -1.4472 -0.5541
   66SAPC  H12Y 5525   4.215   4.644   7.957 -1.3511  2.0809  1.1909
   66SAPC  C313 5526   4.146   4.458   8.048 -0.1871  0.4700  0.1224
   66SAPC  H13X 5527   4.247   4.426   8.015 -0.5284 -1.1976  0.6378
   66SAPC  H13Y 5528   4.068   4.383   8.023  2.2373 -2.4547  0.9471
   66SAPC  C314 5529   4.139   4.476   8.199  0.4996  0.4375  0.3535
   66SAPC  H14X 5530   4.171   4.381   8.247  0.7891  0.2957 -0.1148
   66SAPC  H14Y 5531   4.041   4.496   8.247  1.0124  0.8661  1.2585
   66SAPC  C315 5532   4.239   4.587   8.241 -0.4667  0.6707  0.1128
   66SAPC  H15X 5533   4.207   4.681   8.192 -0.6148  0.3291 -0.4527
   66SAPC  H15Y 5534   4.339   4.559   8.201 -1.8088 -2.5940 -1.1485
   66SAPC  C316 5535   4.254   4.605   8.391  0.7535  0.2318 -0.0435
   66SAPC  H16X 5536   4.240   4.502   8.431 -0.9347  0.2732 -0.4926
   66SAPC  H16Y 5537   4.176   4.671   8.434  0.0393  0.6931 -2.0226
   66SAPC  C317 5538   4.392   4.660   8.427  0.6707  0.3293 -0.2586
   66SAPC  H17X 5539   4.432   4.731   8.352  2.7113 -0.8082 -0.2808
   66SAPC  H17Y 5540   4.471   4.583   8.430  0.0765 -0.2660  0.4802
   66SAPC  C318 5541   4.406   4.737   8.559  0.1891  0.3648  0.7467
   66SAPC  H18X 5542   4.318   4.801   8.579  0.8404  1.2730  0.7253
   66SAPC  H18Y 5543   4.505   4.787   8.560 -1.1399  3.2303 -2.0087
   66SAPC  H18Z 5544   4.403   4.665   8.644 -0.1424 -0.2763  0.1925
   67SAPC     N 5545   6.347   0.353   6.031 -0.4712 -0.4633  0.7322
   67SAPC   C12 5546   6.357   0.336   6.184  0.4261  0.7335 -0.0126
   67SAPC  H12A 5547   6.459   0.314   6.208  0.3862  2.8034  2.3162
   67SAPC  H12B 5548   6.295   0.252   6.212  1.0252  0.9871  2.1435
   67SAPC   C13 5549   6.206   0.388   5.990  0.8932 -0.1459  1.1494
   67SAPC  H13A 5550   6.187   0.394   5.883  1.3235  1.0343  1.1319
   67SAPC  H13B 5551   6.149   0.305   6.028  0.3210 -1.0056 -1.4378
   67SAPC  H13C 5552   6.169   0.478   6.035  0.7596 -0.8315  2.4263
   67SAPC   C14 5553   6.447   0.452   5.986  0.3570 -0.4615 -0.2737
   67SAPC  H14A 5554   6.441   0.538   6.052 -0.9437 -1.5731  1.1106
   67SAPC  H14B 5555   6.546   0.409   5.982  1.4493  2.0081 -0.8668
   67SAPC  H14C 5556   6.425   0.498   5.891 -1.0719  0.8454  0.6427
   67SAPC   C15 5557   6.372   0.231   5.960 -0.2001  0.9447 -0.6892
   67SAPC  H15A 5558   6.459   0.178   5.994  0.2077  3.1370  1.9020
   67SAPC  H15B 5559   6.289   0.164   5.976  1.1012 -0.5592 -0.2163
   67SAPC  H15C 5560   6.372   0.253   5.854 -1.3096 -1.2241 -1.1648
   67SAPC   C11 5561   6.313   0.445   6.277  0.5513 -1.2715 -0.2487
   67SAPC  H11A 5562   6.262   0.410   6.369 -1.6013 -0.7895 -1.2277
   67SAPC  H11B 5563   6.242   0.509   6.220  0.4213 -1.2381 -0.0463
   67SAPC     P 5564   6.544   0.461   6.405 -0.5361  0.4026  0.0911
   67SAPC   O13 5565   6.603   0.336   6.344 -0.1290  0.5701  0.7333
   67SAPC   O14 5566   6.633   0.569   6.429 -0.6225 -0.0512 -0.4299
   67SAPC   O12 5567   6.430   0.522   6.315 -0.4424 -0.0628 -0.2551
   67SAPC   O11 5568   6.450   0.434   6.534  0.6894  0.1201  0.2243
   67SAPC    C1 5569   6.508   0.472   6.658  0.2522 -0.5296  0.8300
   67SAPC    HA 5570   6.612   0.436   6.673  0.6292 -1.5332 -3.6888
   67SAPC    HB 5571   6.517   0.582   6.661 -1.8181 -0.2080 -2.8026
   67SAPC    C2 5572   6.416   0.413   6.773 -0.3227  0.8140 -1.0225
   67SAPC    HS 5573   6.359   0.500   6.813 -2.0806 -0.9488  0.3750
   67SAPC   O21 5574   6.497   0.340   6.872 -0.2038 -0.2152  0.0948
   67SAPC   C21 5575   6.516   0.413   6.984 -0.2182  0.0935 -0.0665
   67SAPC   O22 5576   6.467   0.523   6.995 -0.6639 -0.1268 -0.1289
   67SAPC   C22 5577   6.587   0.317   7.079 -0.0619  0.6581  0.2667
   67SAPC   H2R 5578   6.541   0.216   7.068 -1.8447  1.4309  0.3924
   67SAPC   H2S 5579   6.690   0.311   7.038  0.5138  1.3667  1.5719
   67SAPC    C3 5580   6.308   0.317   6.711  0.3742  0.4593 -0.2882
   67SAPC    HX 5581   6.367   0.247   6.649  1.7337  1.1057  0.2471
   67SAPC    HY 5582   6.244   0.375   6.641 -0.4719  0.9349  0.8511
   67SAPC   O31 5583   6.238   0.245   6.816 -0.1250 -0.4563 -0.1142
   67SAPC   C31 5584   6.153   0.324   6.879 -0.0862 -0.5874  0.0672
   67SAPC   O32 5585   6.131   0.442   6.853  0.0687  0.4797 -0.2722
   67SAPC   C32 5586   6.080   0.238   6.989  0.2826  0.4007 -0.4682
   67SAPC   H2X 5587   6.022   0.172   6.922 -0.3509  0.3591  0.1313
   67SAPC   H2Y 5588   6.017   0.308   7.048  0.5943  1.3353 -1.2158
   67SAPC   C23 5589   6.590   0.373   7.224  0.0542 -0.0641  0.1323
   67SAPC   H3R 5590   6.632   0.476   7.223  3.0355 -1.2380 -0.6673
   67SAPC   H3S 5591   6.666   0.326   7.289  0.6187  1.9512  0.9650
   67SAPC   C24 5592   6.456   0.346   7.288  0.2488  0.1902  0.2241
   67SAPC   H4R 5593   6.439   0.237   7.302 -0.2293  0.0952 -1.0697
   67SAPC   H4S 5594   6.383   0.378   7.211 -0.3759 -2.1394 -0.1919
   67SAPC   C25 5595   6.429   0.432   7.413  0.7526 -0.4518 -0.5351
   67SAPC   H5R 5596   6.416   0.537   7.386  2.3085 -0.0631  0.1685
   67SAPC   C26 5597   6.399   0.388   7.536 -1.6236  0.6503 -0.7294
   67SAPC   H6R 5598   6.390   0.456   7.622  0.9965  0.5357 -0.3333
   67SAPC   C27 5599   6.377   0.244   7.584  0.7525  0.4305  0.1543
   67SAPC   H7R 5600   6.439   0.221   7.673  0.5708  1.1277  0.4621
   67SAPC   H7S 5601   6.405   0.169   7.506 -3.9344 -1.4937  0.1436
   67SAPC   C28 5602   6.221   0.224   7.609 -0.1961 -0.2597 -0.3138
   67SAPC   H8R 5603   6.159   0.310   7.578 -0.5768 -0.7276 -0.8539
   67SAPC   C29 5604   6.169   0.112   7.653  1.3422 -0.5481  0.3302
   67SAPC   H9R 5605   6.059   0.102   7.661  1.3105  0.2611  0.8352
   67SAPC  C210 5606   6.250  -0.008   7.695  0.2419 -0.1833 -0.3465
   67SAPC  H10R 5607   6.302   0.015   7.791  0.9056 -1.4406 -0.3892
   67SAPC  H10S 5608   6.329  -0.031   7.620  0.4784  0.9834 -0.4581
   67SAPC  C211 5609   6.147  -0.122   7.714  0.8087 -0.2617 -0.5045
   67SAPC  H11R 5610   6.062  -0.117   7.644 -0.0817 -2.5725  0.3639
   67SAPC  C212 5611   6.167  -0.226   7.794  0.3687  0.0900 -0.6951
   67SAPC  H12R 5612   6.083  -0.293   7.816  1.1827 -0.6364  0.2468
   67SAPC  C213 5613   6.289  -0.242   7.884 -0.4262 -0.0104 -0.6127
   67SAPC  H13R 5614   6.274  -0.180   7.976 -1.4622 -0.6742 -0.3162
   67SAPC  H13S 5615   6.375  -0.194   7.834  0.7728 -0.7945  0.6723
   67SAPC  C214 5616   6.320  -0.385   7.914  0.5710  0.5388  0.5860
   67SAPC  H14R 5617   6.307  -0.456   7.831 -1.4647  0.1422  1.2106
   67SAPC  C215 5618   6.381  -0.424   8.027 -0.4023 -0.2148  0.0050
   67SAPC  H15R 5619   6.416  -0.528   8.029  0.5715  0.1322  1.8948
   67SAPC  C216 5620   6.439  -0.342   8.140 -0.2723 -0.3079 -0.7373
   67SAPC  H16R 5621   6.437  -0.399   8.235 -0.8874  0.2455 -0.4162
   67SAPC  H16S 5622   6.384  -0.248   8.159 -1.5109 -1.1971  0.1137
   67SAPC  C217 5623   6.587  -0.312   8.108 -0.0077  0.3942 -0.3858
   67SAPC  H17R 5624   6.624  -0.240   8.184 -0.7111 -0.4307  0.7641
   67SAPC  H17S 5625   6.592  -0.260   8.010  0.5607 -0.5366 -0.8495
   67SAPC  C218 5626   6.682  -0.438   8.100  0.3250 -0.2428  0.3812
   67SAPC  H18R 5627   6.653  -0.499   8.012 -0.3306  2.0066 -1.0004
   67SAPC  H18S 5628   6.665  -0.489   8.197 -1.1711  2.1756  1.4471
   67SAPC  C219 5629   6.832  -0.414   8.079  0.6593 -0.1295  0.3861
   67SAPC  H19R 5630   6.861  -0.334   8.151  1.8588 -1.1232  1.0335
   67SAPC  H19S 5631   6.856  -0.381   7.976 -0.7782 -2.3259 -0.6915
   67SAPC  C220 5632   6.904  -0.548   8.109 -0.0896  0.3823  0.3548
   67SAPC  H20R 5633   6.879  -0.625   8.033 -0.7707 -0.6977  1.6522
   67SAPC  H20S 5634   6.878  -0.591   8.208 -1.1613  1.0951  0.3872
   67SAPC  H20T 5635   7.014  -0.533   8.112 -0.1449  0.8552  0.0884
   67SAPC   C33 5636   6.175   0.166   7.091  0.1280 -0.1677  0.0865
   67SAPC   H3X 5637   6.243   0.241   7.135 -0.8634  0.1052  1.1618
   67SAPC   H3Y 5638   6.232   0.085   7.040  1.4294  0.2234  0.9199
   67SAPC   C34 5639   6.098   0.109   7.214 -0.5145  0.5694  1.0927
   67SAPC   H4X 5640   6.031   0.026   7.184 -0.2843  0.2985  1.3196
   67SAPC   H4Y 5641   6.029   0.188   7.251 -2.0194 -1.2456  2.2356
   67SAPC   C35 5642   6.197   0.069   7.321 -0.2305  0.4920  0.8290
   67SAPC   H5X 5643   6.139   0.059   7.415 -3.8355 -2.6233 -1.5897
   67SAPC   H5Y 5644   6.277   0.145   7.334 -0.5261  1.3370 -2.1279
   67SAPC   C36 5645   6.262  -0.074   7.305 -0.6121 -0.5089  0.4796
   67SAPC   H6X 5646   6.326  -0.092   7.394 -1.7527  0.1655  1.4473
   67SAPC   H6Y 5647   6.313  -0.075   7.206 -2.4139  2.9109 -0.5586
   67SAPC   C37 5648   6.157  -0.187   7.307 -0.4349 -0.3932  0.2966
   67SAPC   H7X 5649   6.115  -0.209   7.207  0.1440  0.7338 -0.2124
   67SAPC   H7Y 5650   6.073  -0.156   7.372 -0.9043 -3.1631  1.0521
   67SAPC   C38 5651   6.216  -0.326   7.353  0.0771  0.3163 -0.4951
   67SAPC   H8X 5652   6.131  -0.395   7.374  0.4963  0.0284  0.2806
   67SAPC   H8Y 5653   6.255  -0.296   7.453 -1.8591 -0.4791  0.5401
   67SAPC   C39 5654   6.324  -0.387   7.258 -0.4336  0.3577 -1.0166
   67SAPC   H9X 5655   6.400  -0.309   7.236  1.2385 -1.3798 -1.5062
   67SAPC   H9Y 5656   6.271  -0.398   7.161 -1.2229  1.6978 -0.7570
   67SAPC  C310 5657   6.390  -0.515   7.311 -0.1912  0.2181  0.5444
   67SAPC  H10X 5658   6.429  -0.569   7.223  4.3312  1.7071  1.5176
   67SAPC  H10Y 5659   6.312  -0.586   7.346  1.1699 -1.2264  0.6934
   67SAPC  C311 5660   6.506  -0.468   7.399 -0.7928  0.3512 -0.0522
   67SAPC  H11X 5661   6.451  -0.415   7.480 -0.2208  1.5063 -0.4055
   67SAPC  H11Y 5662   6.575  -0.397   7.350 -0.6510  0.5812  0.4714
   67SAPC  C312 5663   6.586  -0.582   7.460  0.3185 -0.1056  0.7876
   67SAPC  H12X 5664   6.636  -0.643   7.383  0.6352  0.0362  0.8817
   67SAPC  H12Y 5665   6.515  -0.652   7.509  0.9953 -2.7100 -1.8125
   67SAPC  C313 5666   6.693  -0.533   7.555  0.4033  0.3155  0.2316
   67SAPC  H13X 5667   6.642  -0.470   7.631  0.7928  1.3545 -0.3670
   67SAPC  H13Y 5668   6.779  -0.473   7.519  1.5266 -1.1342  0.4780
   67SAPC  C314 5669   6.769  -0.651   7.610 -0.3764 -0.5754  0.8189
   67SAPC  H14X 5670   6.828  -0.710   7.536 -0.4258  0.5213 -0.1111
   67SAPC  H14Y 5671   6.692  -0.723   7.644 -0.8572 -1.8749 -2.8160
   67SAPC  C315 5672   6.864  -0.617   7.721  0.1084 -0.4309  0.1634
   67SAPC  H15X 5673   6.867  -0.706   7.786  0.4559  1.0867  2.2691
   67SAPC  H15Y 5674   6.837  -0.531   7.786 -0.3267 -0.4861  0.0504
   67SAPC  C316 5675   7.002  -0.588   7.681  0.4699  0.8105  1.1416
   67SAPC  H16X 5676   7.017  -0.500   7.615  1.3284 -0.6081 -0.5748
   67SAPC  H16Y 5677   7.047  -0.674   7.628 -1.8648 -0.5117  1.2547
   67SAPC  C317 5678   7.088  -0.562   7.804  0.0978 -0.7301  0.3514
   67SAPC  H17X 5679   7.082  -0.654   7.867  1.5783 -1.9420 -1.2332
   67SAPC  H17Y 5680   7.034  -0.473   7.843  1.0865  0.6701 -1.4076
   67SAPC  C318 5681   7.231  -0.521   7.770 -0.5000  0.0730  0.2757
   67SAPC  H18X 5682   7.274  -0.600   7.705  2.5304  1.2103  0.8449
   67SAPC  H18Y 5683   7.287  -0.505   7.865 -2.7908  0.1801  1.6758
   67SAPC  H18Z 5684   7.231  -0.423   7.719 -1.8908  0.3718  0.8035
   68SAPC     N 5685   4.885   6.537   5.962 -0.2074  1.1314 -0.5559
   68SAPC   C12 5686   4.929   6.558   6.100  0.1914 -0.1793 -0.3490
   68SAPC  H12A 5687   4.883   6.642   6.151  0.7466 -1.4314  2.3375
   68SAPC  H12B 5688   5.033   6.583   6.090  0.8777 -3.1056 -0.7291
   68SAPC   C13 5689   4.936   6.417   5.903 -0.4416  0.4150  0.2697
   68SAPC  H13A 5690   4.892   6.410   5.805 -0.4244 -1.5815  0.4000
   68SAPC  H13B 5691   5.043   6.418   5.890 -0.2958  1.1333  1.4245
   68SAPC  H13C 5692   4.919   6.331   5.966  1.8493 -0.7263 -0.6281
   68SAPC   C14 5693   4.736   6.532   5.963  0.5704  0.3091  0.3477
   68SAPC  H14A 5694   4.692   6.509   5.867 -0.6565  1.7513  0.5371
   68SAPC  H14B 5695   4.695   6.448   6.016 -0.6912 -0.4739 -1.8281
   68SAPC  H14C 5696   4.693   6.629   5.986  0.6234  0.9493 -2.1408
   68SAPC   C15 5697   4.911   6.644   5.864 -0.6557  0.5243  0.2018
   68SAPC  H15A 5698   4.872   6.743   5.881  0.8761  1.1620  0.1370
   68SAPC  H15B 5699   5.016   6.650   5.838 -0.8928 -0.0809 -0.9121
   68SAPC  H15C 5700   4.886   6.608   5.766 -0.1978 -0.8644  0.5708
   68SAPC   C11 5701   4.920   6.443   6.207  0.7176  0.0611  0.0498
   68SAPC  H11A 5702   4.956   6.488   6.302 -2.5661  0.9085  0.9896
   68SAPC  H11B 5703   5.005   6.375   6.185 -1.0317 -2.2462  0.1813
   68SAPC     P 5704   4.679   6.446   6.305 -0.0194  0.4742  0.2921
   68SAPC   O13 5705   4.732   6.568   6.369 -0.5077 -0.0929  0.4591
   68SAPC   O14 5706   4.559   6.456   6.217 -0.3382  0.2584 -0.8236
   68SAPC   O12 5707   4.792   6.384   6.212  0.2726  0.2442  0.4491
   68SAPC   O11 5708   4.659   6.330   6.410  0.5693 -0.1787  0.4821
   68SAPC    C1 5709   4.776   6.261   6.458  0.5241  0.5208  0.0690
   68SAPC    HA 5710   4.805   6.177   6.391 -0.7680 -0.6011  0.8780
   68SAPC    HB 5711   4.858   6.333   6.479  1.2287 -0.5716  1.1234
   68SAPC    C2 5712   4.742   6.195   6.595 -0.4619 -0.8847 -0.9150
   68SAPC    HS 5713   4.836   6.169   6.648 -1.4835 -0.3136  1.2535
   68SAPC   O21 5714   4.656   6.078   6.580 -0.4687  0.0820  0.0259
   68SAPC   C21 5715   4.673   5.978   6.671  0.0401 -0.2765  0.6304
   68SAPC   O22 5716   4.762   5.974   6.753  0.1400 -0.0628 -0.1871
   68SAPC   C22 5717   4.566   5.870   6.666  0.2224 -0.3640 -0.1327
   68SAPC   H2R 5718   4.467   5.921   6.675  0.2426 -0.1048 -1.2784
   68SAPC   H2S 5719   4.580   5.831   6.563  1.0312 -3.2275  1.0303
   68SAPC    C3 5720   4.676   6.300   6.690 -0.4487  0.5314 -0.0515
   68SAPC    HX 5721   4.571   6.307   6.652  0.3244 -2.0810 -2.8463
   68SAPC    HY 5722   4.728   6.398   6.683  0.0835  0.2823  0.3971
   68SAPC   O31 5723   4.676   6.249   6.828 -0.6277 -0.4970 -0.6701
   68SAPC   C31 5724   4.644   6.346   6.916 -0.9056 -0.0305 -0.4521
   68SAPC   O32 5725   4.640   6.464   6.893  0.4003  0.9697  0.5089
   68SAPC   C32 5726   4.613   6.287   7.054 -0.3877 -0.2236  0.1668
   68SAPC   H2X 5727   4.688   6.209   7.078  0.0723 -0.6886 -2.6903
   68SAPC   H2Y 5728   4.509   6.247   7.057  0.8281 -3.5090  0.5700
   68SAPC   C23 5729   4.571   5.775   6.783 -0.3347  1.1387 -0.4224
   68SAPC   H3R 5730   4.667   5.719   6.792 -1.7386 -1.6111 -1.7087
   68SAPC   H3S 5731   4.502   5.693   6.751 -0.7839  0.6867  1.6113
   68SAPC   C24 5732   4.524   5.842   6.910  0.0785  0.4762  0.2507
   68SAPC   H4R 5733   4.421   5.880   6.899 -1.3123 -3.0000  0.5402
   68SAPC   H4S 5734   4.583   5.932   6.939  1.7282 -0.5930  0.2937
   68SAPC   C25 5735   4.536   5.741   7.022  0.0328  0.1315 -0.2358
   68SAPC   H5R 5736   4.639   5.704   7.024 -0.5062 -1.3932 -0.2740
   68SAPC   C26 5737   4.446   5.714   7.121 -0.0797 -0.4016  0.1821
   68SAPC   H6R 5738   4.461   5.631   7.191  1.3995  0.0495  0.4319
   68SAPC   C27 5739   4.302   5.776   7.129 -0.6555  0.4474  0.4511
   68SAPC   H7R 5740   4.233   5.696   7.097 -0.5363  0.4198  0.2645
   68SAPC   H7S 5741   4.286   5.866   7.066  1.5683  1.8364  1.7836
   68SAPC   C28 5742   4.268   5.828   7.270 -0.2282  0.3369  1.1535
   68SAPC   H8R 5743   4.350   5.830   7.344 -0.8026  0.2327  1.7961
   68SAPC   C29 5744   4.140   5.837   7.324  0.8624  0.8142  0.8680
   68SAPC   H9R 5745   4.134   5.863   7.431 -0.0025  0.5512  0.8873
   68SAPC  C210 5746   4.019   5.803   7.244  0.0063  0.2915 -0.5011
   68SAPC  H10R 5747   4.014   5.692   7.254 -0.5413  0.4098  0.6683
   68SAPC  H10S 5748   4.030   5.821   7.135  0.4806  1.5885 -0.2497
   68SAPC  C211 5749   3.881   5.850   7.286 -0.5876 -0.0939  0.1115
   68SAPC  H11R 5750   3.828   5.909   7.210 -0.5183 -0.5493 -0.2869
   68SAPC  C212 5751   3.810   5.802   7.391 -0.6017 -0.2150  0.5502
   68SAPC  H12R 5752   3.705   5.830   7.404 -1.3357 -3.0225  0.9561
   68SAPC  C213 5753   3.859   5.716   7.501 -0.0333  0.0146 -0.2843
   68SAPC  H13R 5754   3.965   5.687   7.483 -0.5638 -1.0851 -1.7944
   68SAPC  H13S 5755   3.806   5.618   7.502  0.1552 -0.0949 -0.8130
   68SAPC  C214 5756   3.848   5.798   7.629  0.7560  0.2525  0.5398
   68SAPC  H14R 5757   3.767   5.872   7.630 -0.6149 -1.2275  2.6914
   68SAPC  C215 5758   3.901   5.763   7.744  0.9635  0.3554 -0.0623
   68SAPC  H15R 5759   3.878   5.834   7.825  2.8099 -1.9402  2.5709
   68SAPC  C216 5760   4.000   5.652   7.773 -0.2890  0.1445 -0.3190
   68SAPC  H16R 5761   3.995   5.566   7.703  0.6204 -1.5735  1.6784
   68SAPC  H16S 5762   3.990   5.614   7.877 -2.2350  1.5533  0.0339
   68SAPC  C217 5763   4.149   5.716   7.770  0.2406 -0.0822  0.2860
   68SAPC  H17R 5764   4.184   5.729   7.875  0.6793 -3.8009  0.6712
   68SAPC  H17S 5765   4.153   5.810   7.711  2.3593  0.1167  0.6940
   68SAPC  C218 5766   4.248   5.613   7.709  0.5284 -0.6120  0.5647
   68SAPC  H18R 5767   4.232   5.600   7.600 -3.2276 -0.8144  1.0873
   68SAPC  H18S 5768   4.215   5.515   7.748 -1.5395 -0.3195 -0.3948
   68SAPC  C219 5769   4.394   5.628   7.759  0.5135 -0.9547  0.1151
   68SAPC  H19R 5770   4.392   5.640   7.869 -0.3354 -1.5276  0.1661
   68SAPC  H19S 5771   4.434   5.726   7.725 -1.6085 -0.2062 -0.3077
   68SAPC  C220 5772   4.479   5.510   7.718  0.2591 -0.2089 -0.4475
   68SAPC  H20R 5773   4.428   5.415   7.743 -0.6343 -0.0951 -1.7876
   68SAPC  H20S 5774   4.577   5.500   7.769 -0.1302 -0.1844  0.3141
   68SAPC  H20T 5775   4.491   5.511   7.608  0.3320 -0.8581 -0.4440
   68SAPC   C33 5776   4.632   6.382   7.172 -0.3465  0.2815 -0.8934
   68SAPC   H3X 5777   4.571   6.345   7.257 -0.7385  1.5253 -0.6233
   68SAPC   H3Y 5778   4.585   6.479   7.145 -0.2755  0.5607 -0.0213
   68SAPC   C34 5779   4.776   6.400   7.213  0.3020  0.2084  0.6187
   68SAPC   H4X 5780   4.838   6.426   7.124 -1.2340 -2.7627 -1.3825
   68SAPC   H4Y 5781   4.815   6.300   7.242  1.2025  0.1952 -0.5967
   68SAPC   C35 5782   4.806   6.504   7.320  0.4272  0.4820  0.0223
   68SAPC   H5X 5783   4.764   6.593   7.269 -1.7419 -0.4382  0.1737
   68SAPC   H5Y 5784   4.915   6.516   7.339  0.1494  3.0326  0.1400
   68SAPC   C36 5785   4.722   6.482   7.445 -0.4751 -0.2314  0.1913
   68SAPC   H6X 5786   4.766   6.401   7.507  0.4610 -0.1137 -0.3216
   68SAPC   H6Y 5787   4.618   6.449   7.426 -0.4422 -1.5553  2.2180
   68SAPC   C37 5788   4.711   6.598   7.541 -1.2094  0.4580 -0.2667
   68SAPC   H7X 5789   4.648   6.679   7.500  0.6318  2.5878  0.9808
   68SAPC   H7Y 5790   4.814   6.639   7.548  0.1019 -2.8396  0.8085
   68SAPC   C38 5791   4.653   6.552   7.678 -0.6464  0.7562 -0.5322
   68SAPC   H8X 5792   4.744   6.501   7.718 -0.7507 -1.3851 -2.9246
   68SAPC   H8Y 5793   4.579   6.471   7.668  2.3943 -2.3940  1.2678
   68SAPC   C39 5794   4.612   6.667   7.779 -0.2709 -0.3629 -0.1450
   68SAPC   H9X 5795   4.539   6.729   7.724  1.0362  3.1862  1.9694
   68SAPC   H9Y 5796   4.706   6.725   7.796 -0.4393 -0.6429  1.9552
   68SAPC  C310 5797   4.564   6.609   7.910  0.4744 -0.9885 -0.2928
   68SAPC  H10X 5798   4.480   6.537   7.899 -1.2672  1.0789 -0.8186
   68SAPC  H10Y 5799   4.522   6.699   7.959  0.5374 -0.4883 -1.1462
   68SAPC  C311 5800   4.676   6.563   7.996  0.1230  0.3293 -0.2709
   68SAPC  H11X 5801   4.736   6.650   8.031 -1.7344  0.7092  2.1900
   68SAPC  H11Y 5802   4.735   6.492   7.935  0.3972 -0.7243  1.2033
   68SAPC  C312 5803   4.634   6.495   8.129 -0.7895 -0.7501 -0.3661
   68SAPC  H12X 5804   4.577   6.408   8.092  0.0347 -0.9715 -1.1521
   68SAPC  H12Y 5805   4.558   6.553   8.185  1.9441  0.8422  1.8496
   68SAPC  C313 5806   4.750   6.454   8.228 -0.1631 -0.0078  0.1877
   68SAPC  H13X 5807   4.785   6.552   8.268  0.5124 -0.1455 -0.0630
   68SAPC  H13Y 5808   4.835   6.410   8.171 -0.5211  0.5846 -0.8176
   68SAPC  C314 5809   4.699   6.366   8.342 -0.3030  0.1812 -0.4924
   68SAPC  H14X 5810   4.598   6.400   8.372 -1.4739 -0.7741 -3.2117
   68SAPC  H14Y 5811   4.774   6.354   8.423  0.3085 -3.1548 -1.4945
   68SAPC  C315 5812   4.686   6.219   8.291 -0.2877  0.0694  0.6985
   68SAPC  H15X 5813   4.784   6.177   8.260 -0.5663  0.9473 -1.4816
   68SAPC  H15Y 5814   4.617   6.207   8.205 -0.3683 -1.6546  0.9735
   68SAPC  C316 5815   4.629   6.125   8.406 -1.0478 -0.2501  0.3698
   68SAPC  H16X 5816   4.588   6.032   8.362  0.1814 -1.5460  1.8860
   68SAPC  H16Y 5817   4.546   6.167   8.466 -0.7715  4.4254 -2.3487
   68SAPC  C317 5818   4.738   6.081   8.512  0.0071 -0.0934  0.0956
   68SAPC  H17X 5819   4.691   6.026   8.596 -2.9926  2.2557  0.0602
   68SAPC  H17Y 5820   4.757   6.183   8.554 -1.2289  0.2940 -0.2377
   68SAPC  C318 5821   4.864   6.021   8.464 -0.3894  0.6131 -0.3220
   68SAPC  H18X 5822   4.934   6.095   8.419  0.9280 -0.6878 -0.4662
   68SAPC  H18Y 5823   4.838   5.953   8.380  1.2589 -0.3785 -0.0465
   68SAPC  H18Z 5824   4.918   5.961   8.540  1.1225  1.3840 -0.7605
   69SLPC     N 5825   2.036   4.058  11.230 -0.1743 -0.0249  0.3657
   69SLPC   C13 5826   1.957   4.124  11.337  0.3564  0.2791  0.2430
   69SLPC  H13A 5827   1.982   4.092  11.437 -2.6554  1.7703  1.5449
   69SLPC  H13B 5828   1.974   4.230  11.329 -2.1485  0.6944  0.0014
   69SLPC  H13C 5829   1.850   4.115  11.321  0.5107 -0.5543 -0.3223
   69SLPC   C14 5830   1.988   3.918  11.237 -0.4506 -0.0023  0.3621
   69SLPC  H14A 5831   1.990   3.882  11.339  1.9219  0.0509  0.3447
   69SLPC  H14B 5832   1.883   3.902  11.215 -0.3725 -1.3968  0.9413
   69SLPC  H14C 5833   2.050   3.854  11.177 -0.3495 -0.5895  1.0940
   69SLPC   C15 5834   2.183   4.064  11.265 -0.5987 -0.5848 -0.5576
   69SLPC  H15A 5835   2.241   4.011  11.191  1.3984  0.6335  0.0753
   69SLPC  H15B 5836   2.221   4.165  11.262 -0.2123 -0.6819  0.9039
   69SLPC  H15C 5837   2.205   4.017  11.359 -1.9706 -0.5069 -0.1968
   69SLPC   C12 5838   2.013   4.113  11.088 -0.9860  0.0153 -0.2131
   69SLPC  H12A 5839   2.071   4.052  11.020 -0.2426  0.6285 -0.1328
   69SLPC  H12B 5840   2.069   4.205  11.085  0.2442 -0.7365 -0.8794
   69SLPC   C11 5841   1.874   4.141  11.036 -0.0951 -0.1597 -0.2557
   69SLPC  H11A 5842   1.805   4.055  11.055  0.6473 -0.5150  0.9319
   69SLPC  H11B 5843   1.873   4.154  10.926 -1.9390 -0.3741 -0.2814
   69SLPC     P 5844   1.842   4.404  11.041 -0.1489 -0.1013  0.0297
   69SLPC   O13 5845   1.727   4.474  11.100 -0.3825  0.3541 -0.3826
   69SLPC   O14 5846   1.979   4.446  11.078  0.2236  0.0120 -0.3922
   69SLPC   O12 5847   1.819   4.255  11.093  0.4731  0.1657  0.2740
   69SLPC   O11 5848   1.835   4.399  10.882 -0.2399 -0.3345  0.2211
   69SLPC    C1 5849   1.714   4.348  10.824 -0.2273 -0.2237 -0.1003
   69SLPC    HA 5850   1.691   4.247  10.865 -0.2340 -0.3458 -0.4032
   69SLPC    HB 5851   1.629   4.414  10.852  1.9029  2.8142 -0.5833
   69SLPC    C2 5852   1.709   4.353  10.669  0.1170  0.3122  0.6232
   69SLPC    HS 5853   1.789   4.284  10.635  0.0095  0.1534  0.6924
   69SLPC   O21 5854   1.734   4.490  10.629 -0.7770 -0.1226 -0.2377
   69SLPC   C21 5855   1.832   4.504  10.542  0.7025 -0.1118  0.1961
   69SLPC   O22 5856   1.877   4.413  10.470  0.0235 -0.4032  0.7035
   69SLPC   C22 5857   1.851   4.655  10.525  0.5125 -0.6216  0.3471
   69SLPC   H2R 5858   1.846   4.694  10.629 -1.7889 -2.2280  0.8733
   69SLPC   H2S 5859   1.950   4.675  10.479 -0.9989 -0.7844 -3.0646
   69SLPC    C3 5860   1.581   4.285  10.605  0.3043 -0.2302  0.2900
   69SLPC    HX 5861   1.505   4.334  10.670  0.2201 -1.9823  1.5378
   69SLPC    HY 5862   1.585   4.176  10.626  1.1215 -0.1632  0.4758
   69SLPC   O31 5863   1.578   4.323  10.462 -0.3460 -0.0078  0.0364
   69SLPC   C31 5864   1.622   4.227  10.374  1.3323 -0.7068  0.2807
   69SLPC   O32 5865   1.649   4.115  10.406 -0.0207 -0.0518  0.1516
   69SLPC   C32 5866   1.630   4.279  10.228 -0.3804  0.1760 -0.6237
   69SLPC   H2X 5867   1.644   4.389  10.230 -0.4975  0.1717  0.7009
   69SLPC   H2Y 5868   1.533   4.255  10.181 -0.7847  0.1460  0.2215
   69SLPC   C23 5869   1.733   4.726  10.450  0.2314  0.0190  0.8477
   69SLPC   H3R 5870   1.735   4.837  10.455  0.6492  0.0433  0.1446
   69SLPC   H3S 5871   1.636   4.689  10.489  0.5981 -0.5051  1.2641
   69SLPC   C24 5872   1.733   4.686  10.299 -0.1916 -0.3103 -0.4124
   69SLPC   H4R 5873   1.755   4.577  10.297  1.5237  0.0418 -1.0756
   69SLPC   H4S 5874   1.812   4.732  10.237  0.8444 -0.0057  1.0952
   69SLPC   C25 5875   1.587   4.691  10.253  0.2633  0.2528 -0.3590
   69SLPC   H5R 5876   1.559   4.798  10.262 -0.8621 -0.1671  1.2793
   69SLPC   H5S 5877   1.528   4.636  10.330  0.0032  0.4738 -0.4003
   69SLPC   C26 5878   1.548   4.638  10.112  0.2436 -0.5267  0.4102
   69SLPC   H6R 5879   1.579   4.531  10.105  2.4331  0.2373 -2.8107
   69SLPC   H6S 5880   1.607   4.681  10.028 -1.6929 -1.9592 -1.7451
   69SLPC   C27 5881   1.405   4.660  10.068 -0.3281 -0.3156  0.1546
   69SLPC   H7R 5882   1.394   4.770  10.064  0.8696 -0.2196 -0.9376
   69SLPC   H7S 5883   1.327   4.619  10.136 -2.2489  0.2939 -1.6277
   69SLPC   C28 5884   1.378   4.609   9.928  0.2970  0.8459 -0.0421
   69SLPC   H8R 5885   1.470   4.641   9.874 -0.6572  0.4846 -1.9108
   69SLPC   H8S 5886   1.296   4.665   9.878  0.3210  0.6552 -0.2965
   69SLPC   C29 5887   1.378   4.461   9.908  0.5814 -0.1641  0.5793
   69SLPC   H9R 5888   1.349   4.413  10.003 -1.0973 -0.1280  0.0975
   69SLPC  C210 5889   1.407   4.386   9.802 -0.2285  0.4004 -0.2233
   69SLPC  H10R 5890   1.413   4.276   9.808  1.0121  0.4721  0.1018
   69SLPC  C211 5891   1.444   4.441   9.672 -0.4711 -0.5328 -0.3253
   69SLPC  H11R 5892   1.478   4.546   9.678 -1.0335 -0.2570 -1.6463
   69SLPC  H11S 5893   1.348   4.439   9.616 -0.8241 -3.0335  0.3096
   69SLPC  C212 5894   1.549   4.358   9.599  0.3490 -0.1644 -0.8684
   69SLPC  H12R 5895   1.646   4.345   9.650 -0.0751  1.3033  0.3453
   69SLPC  C213 5896   1.535   4.292   9.482  0.0220  0.2074  0.1842
   69SLPC  H13R 5897   1.623   4.245   9.436 -0.3605 -2.7771  2.4302
   69SLPC  C214 5898   1.414   4.298   9.397 -0.7665  0.1621  0.2052
   69SLPC  H14R 5899   1.322   4.345   9.440 -0.8408  0.1271  0.0853
   69SLPC  H14S 5900   1.373   4.195   9.387  1.7171 -1.0068  1.7509
   69SLPC  C215 5901   1.443   4.355   9.261 -0.3818  0.7050  0.3559
   69SLPC  H15R 5902   1.500   4.451   9.266  0.2891  0.3139  0.2934
   69SLPC  H15S 5903   1.346   4.384   9.217 -0.0611 -0.9593 -1.4889
   69SLPC  C216 5904   1.534   4.265   9.169 -0.8189  0.1222 -0.2528
   69SLPC  H16R 5905   1.518   4.161   9.204  0.6137  0.1023  0.3775
   69SLPC  H16S 5906   1.638   4.301   9.178 -1.2870  2.2265 -2.6414
   69SLPC  C217 5907   1.496   4.277   9.021 -0.2394  0.4680 -0.2707
   69SLPC  H17R 5908   1.497   4.385   8.994  1.8530 -0.2936 -3.4364
   69SLPC  H17S 5909   1.395   4.231   9.012 -0.5661  1.0518  0.3583
   69SLPC  C218 5910   1.601   4.211   8.931 -0.1155  0.3265 -0.5251
   69SLPC  H18R 5911   1.617   4.106   8.965 -1.2342  0.3789  0.1874
   69SLPC  H18S 5912   1.699   4.264   8.930 -0.0720  0.2386 -1.9835
   69SLPC  H18T 5913   1.561   4.209   8.827 -0.0129 -1.6719 -0.5609
   69SLPC   C33 5914   1.748   4.207  10.155  0.5972  0.3427  0.3790
   69SLPC   H3X 5915   1.724   4.103  10.125  0.1399  0.2810  0.9652
   69SLPC   H3Y 5916   1.828   4.218  10.231  0.8354 -0.5869  0.2669
   69SLPC   C34 5917   1.786   4.281  10.024 -0.1127 -0.0170  0.0279
   69SLPC   H4X 5918   1.862   4.353  10.062  0.2379 -0.6592  0.5471
   69SLPC   H4Y 5919   1.705   4.333   9.967  0.6446  1.0701 -0.0759
   69SLPC   C35 5920   1.852   4.192   9.923 -1.0450 -0.5980 -0.5452
   69SLPC   H5X 5921   1.788   4.105   9.899 -1.1444 -1.1024  1.4841
   69SLPC   H5Y 5922   1.944   4.157   9.974 -1.9139 -3.0232 -0.6061
   69SLPC   C36 5923   1.888   4.261   9.785 -0.1327 -0.1804 -0.0898
   69SLPC   H6X 5924   1.976   4.327   9.796 -1.1579  1.3417 -0.9272
   69SLPC   H6Y 5925   1.802   4.327   9.763 -0.4667 -0.5050  0.2504
   69SLPC   C37 5926   1.918   4.165   9.668  0.3809  0.1901  0.1555
   69SLPC   H7X 5927   1.828   4.105   9.641 -0.6164  1.5236  0.4244
   69SLPC   H7Y 5928   2.010   4.108   9.692  1.1172  1.3140  0.0490
   69SLPC   C38 5929   1.962   4.241   9.538  0.1171  0.2196  0.0868
   69SLPC   H8X 5930   2.064   4.283   9.549 -0.7383  2.0467  1.2768
   69SLPC   H8Y 5931   1.903   4.335   9.527  1.4282  1.2148  1.3967
   69SLPC   C39 5932   1.958   4.163   9.410 -0.4588 -0.2719 -0.3401
   69SLPC   H9X 5933   1.857   4.118   9.397 -1.0209  0.6546  0.7769
   69SLPC   H9Y 5934   2.026   4.076   9.423  1.3696  1.3305  1.1259
   69SLPC  C310 5935   1.978   4.248   9.285  0.0582  0.2291 -0.2387
   69SLPC  H10X 5936   2.086   4.273   9.273  0.3197 -1.1432 -0.8067
   69SLPC  H10Y 5937   1.912   4.337   9.295 -1.7144 -1.2159  1.3412
   69SLPC  C311 5938   1.942   4.173   9.152 -0.1351 -0.2927  0.1907
   69SLPC  H11X 5939   1.833   4.155   9.147 -0.0160 -0.6251 -1.4172
   69SLPC  H11Y 5940   1.986   4.071   9.157  1.7112  0.5602  2.7823
   69SLPC  C312 5941   1.977   4.245   9.021  0.5599  0.1088 -0.9519
   69SLPC  H12X 5942   2.078   4.291   9.022  1.0022 -0.8572 -1.4487
   69SLPC  H12Y 5943   1.899   4.323   9.007 -1.1269 -1.4955 -0.5567
   69SLPC  C313 5944   1.963   4.150   8.905 -0.3733  0.0284 -0.0794
   69SLPC  H13X 5945   1.855   4.130   8.892 -0.5280  0.1801  0.9722
   69SLPC  H13Y 5946   2.027   4.059   8.912 -2.5375 -1.2736  5.2083
   69SLPC  C314 5947   2.001   4.224   8.772 -0.2310 -0.0862 -0.0298
   69SLPC  H14X 5948   2.109   4.248   8.775 -0.2720  0.3037 -1.3173
   69SLPC  H14Y 5949   1.943   4.319   8.772 -1.3754 -0.7589 -2.1021
   69SLPC  C315 5950   1.970   4.144   8.638  0.5107 -0.0472  0.3501
   69SLPC  H15X 5951   2.009   4.042   8.660  1.9640  0.4446  0.1009
   69SLPC  H15Y 5952   2.037   4.185   8.560  2.7770 -0.1357  2.1848
   69SLPC  C316 5953   1.822   4.140   8.586  0.2985  0.0818 -0.0905
   69SLPC  H16X 5954   1.780   4.084   8.672  1.2004  0.7577  0.8037
   69SLPC  H16Y 5955   1.809   4.088   8.489  1.3699 -1.5560  0.6315
   69SLPC  C317 5956   1.753   4.272   8.566 -0.7017 -0.1844 -0.3882
   69SLPC  H17X 5957   1.815   4.341   8.506  2.4600 -2.8089 -0.2581
   69SLPC  H17Y 5958   1.736   4.313   8.668  1.5222  0.0920 -0.1122
   69SLPC  C318 5959   1.618   4.254   8.491 -0.1164  0.2485 -0.0971
   69SLPC  H18X 5960   1.555   4.168   8.520  0.9958 -0.5562 -0.0253
   69SLPC  H18Y 5961   1.636   4.258   8.382 -0.7883 -0.4680 -0.2307
   69SLPC  H18Z 5962   1.558   4.344   8.516 -0.0212  0.2553  0.1122
   70SLPC     N 5963   2.518   2.329  11.148 -0.4398  0.3263  0.0830
   70SLPC   C13 5964   2.628   2.285  11.234 -0.2205  0.6326  0.6188
   70SLPC  H13A 5965   2.608   2.196  11.292  1.4411  0.7738  1.4244
   70SLPC  H13B 5966   2.716   2.257  11.178 -0.6895 -1.1008  0.7259
   70SLPC  H13C 5967   2.648   2.363  11.306 -1.3417 -0.4175  2.0999
   70SLPC   C14 5968   2.555   2.453  11.086 -0.6229 -0.5731 -1.3468
   70SLPC  H14A 5969   2.655   2.440  11.046 -0.5606  0.8331 -1.7028
   70SLPC  H14B 5970   2.491   2.468  11.000 -0.2090  1.9542 -1.2542
   70SLPC  H14C 5971   2.552   2.537  11.153  0.7561 -1.4793 -0.1372
   70SLPC   C15 5972   2.398   2.353  11.232  0.1421 -0.3585 -0.0500
   70SLPC  H15A 5973   2.355   2.266  11.279  0.0004 -0.3279 -0.1249
   70SLPC  H15B 5974   2.417   2.422  11.313 -0.8270  1.0407 -0.9975
   70SLPC  H15C 5975   2.321   2.394  11.168  1.0111  0.2977 -0.6877
   70SLPC   C12 5976   2.486   2.230  11.039 -0.3059 -0.2289 -0.3308
   70SLPC  H12A 5977   2.400   2.267  10.986  0.3602 -0.9634 -1.9337
   70SLPC  H12B 5978   2.452   2.136  11.082  0.4405  0.8408  2.7823
   70SLPC   C11 5979   2.598   2.193  10.943 -0.4426 -0.0640  0.1205
   70SLPC  H11A 5980   2.638   2.292  10.914 -0.6277 -0.2737 -0.9038
   70SLPC  H11B 5981   2.570   2.142  10.848 -0.6957 -2.9622  1.6960
   70SLPC     P 5982   2.845   2.121  10.915 -0.0661 -0.1419 -0.0385
   70SLPC   O13 5983   2.894   2.257  10.882  0.1100 -0.1054  0.5803
   70SLPC   O14 5984   2.940   2.034  10.981  0.3088  0.0379 -0.5718
   70SLPC   O12 5985   2.714   2.130  11.008 -0.2947 -0.5750  0.1833
   70SLPC   O11 5986   2.782   2.052  10.791  0.0809  0.0063 -0.1386
   70SLPC    C1 5987   2.856   2.012  10.681 -0.2582 -0.4572 -0.1121
   70SLPC    HA 5988   2.937   2.085  10.659 -0.3663  0.0522  1.1610
   70SLPC    HB 5989   2.908   1.915  10.699 -2.0244 -1.4664 -0.3375
   70SLPC    C2 5990   2.774   1.996  10.546  0.2119 -0.1774  0.5056
   70SLPC    HS 5991   2.686   1.934  10.570 -0.1309  0.1879  0.2024
   70SLPC   O21 5992   2.863   1.942  10.447 -0.7348 -0.1284  0.1773
   70SLPC   C21 5993   2.817   1.835  10.384 -0.0798 -0.1250 -0.5331
   70SLPC   O22 5994   2.702   1.795  10.385  0.0843  0.3251  0.0893
   70SLPC   C22 5995   2.929   1.785  10.296 -0.2456  0.2100  0.0773
   70SLPC   H2R 5996   2.986   1.867  10.250  0.6057  0.1297  0.9810
   70SLPC   H2S 5997   3.003   1.732  10.360  0.6232 -0.3603 -1.3703
   70SLPC    C3 5998   2.719   2.134  10.496  0.2589  0.8730 -0.8414
   70SLPC    HX 5999   2.801   2.210  10.491  1.4792 -0.4491 -1.5350
   70SLPC    HY 6000   2.652   2.180  10.571  0.0443 -2.0327  0.7744
   70SLPC   O31 6001   2.646   2.143  10.365 -0.3275 -0.1497 -0.0927
   70SLPC   C31 6002   2.538   2.080  10.355  0.2750  0.5173 -0.2458
   70SLPC   O32 6003   2.477   2.045  10.454 -0.3527 -0.1958 -0.4678
   70SLPC   C32 6004   2.500   2.054  10.211  0.4140  0.3659 -0.4095
   70SLPC   H2X 6005   2.590   2.052  10.146  0.0012 -1.2566 -0.9662
   70SLPC   H2Y 6006   2.439   2.135  10.165  1.2454  1.4703  0.4160
   70SLPC   C23 6007   2.882   1.689  10.183  0.0937 -1.1725  0.0586
   70SLPC   H3R 6008   2.785   1.647  10.217  0.6342 -1.9287  0.6836
   70SLPC   H3S 6009   2.958   1.609  10.167  0.3258 -0.6098 -1.8327
   70SLPC   C24 6010   2.850   1.771  10.051  0.6257 -0.4556 -0.4294
   70SLPC   H4R 6011   2.942   1.830  10.028  1.3295 -0.8294  1.3403
   70SLPC   H4S 6012   2.765   1.842  10.061  1.6450  1.1238 -2.4324
   70SLPC   C25 6013   2.820   1.687   9.925 -0.4838  1.1686 -0.2529
   70SLPC   H5R 6014   2.730   1.624   9.936  0.3924  0.1823  1.4872
   70SLPC   H5S 6015   2.911   1.624   9.914 -0.5435  0.6924  1.7393
   70SLPC   C26 6016   2.792   1.773   9.801 -0.5511  0.1593 -0.1235
   70SLPC   H6R 6017   2.867   1.855   9.796  2.0834 -1.9478  2.7408
   70SLPC   H6S 6018   2.702   1.837   9.812  0.4597  1.0893  3.4991
   70SLPC   C27 6019   2.781   1.688   9.674  0.5337 -0.3576  0.0334
   70SLPC   H7R 6020   2.728   1.734   9.587  1.4004 -1.2433 -0.9862
   70SLPC   H7S 6021   2.724   1.597   9.701 -0.7353 -0.3826 -2.5382
   70SLPC   C28 6022   2.923   1.658   9.606  0.3638  0.1646 -0.8306
   70SLPC   H8R 6023   2.983   1.620   9.691 -0.6960  0.7363  0.1820
   70SLPC   H8S 6024   2.982   1.750   9.588 -0.4757  0.8447 -0.1648
   70SLPC   C29 6025   2.945   1.568   9.489  0.4529  0.4734 -0.9769
   70SLPC   H9R 6026   2.925   1.464   9.518  1.5854  0.4863 -0.1092
   70SLPC  C210 6027   2.992   1.589   9.369  0.3279  0.0106  0.0627
   70SLPC  H10R 6028   3.005   1.505   9.299  1.3264  0.9405 -0.9090
   70SLPC  C211 6029   3.036   1.710   9.305 -0.1151  0.2069  0.3486
   70SLPC  H11R 6030   3.096   1.775   9.371  1.7405 -0.9747 -0.1516
   70SLPC  H11S 6031   2.951   1.769   9.264  0.4012  1.0232  0.4330
   70SLPC  C212 6032   3.123   1.690   9.186 -1.0366  0.6691 -0.6044
   70SLPC  H12R 6033   3.228   1.660   9.204 -2.1411 -0.9900  3.8262
   70SLPC  C213 6034   3.073   1.700   9.061 -0.0868  0.0315 -0.3656
   70SLPC  H13R 6035   3.147   1.674   8.984  1.5626 -0.0838  1.1991
   70SLPC  C214 6036   2.934   1.729   9.009  0.2129  0.2857 -0.9197
   70SLPC  H14R 6037   2.954   1.777   8.910  1.5773  0.6925 -0.4707
   70SLPC  H14S 6038   2.883   1.807   9.069 -2.6110  0.0436 -2.9430
   70SLPC  C215 6039   2.853   1.604   8.983 -0.3505  0.4974  0.2411
   70SLPC  H15R 6040   2.817   1.558   9.077 -0.3192 -0.0078  0.0077
   70SLPC  H15S 6041   2.911   1.530   8.924 -0.7855  1.3346 -1.2920
   70SLPC  C216 6042   2.724   1.639   8.898 -0.0498  0.0196 -0.1523
   70SLPC  H16R 6043   2.755   1.694   8.807  0.6586 -0.4115 -0.1764
   70SLPC  H16S 6044   2.651   1.702   8.953  0.7035  0.2376  0.6149
   70SLPC  C217 6045   2.634   1.523   8.862 -0.1547 -0.0776  0.4537
   70SLPC  H17R 6046   2.691   1.463   8.788  1.0500 -0.1184  1.3888
   70SLPC  H17S 6047   2.548   1.564   8.805  1.4472 -1.0227 -2.7543
   70SLPC  C218 6048   2.584   1.440   8.982  0.7653  0.0743 -0.1229
   70SLPC  H18R 6049   2.509   1.365   8.950  0.5403  0.3921 -0.3444
   70SLPC  H18S 6050   2.539   1.487   9.073  0.6980  0.6327 -0.4383
   70SLPC  H18T 6051   2.674   1.387   9.020  1.0920  0.4642 -0.3374
   70SLPC   C33 6052   2.419   1.918  10.210  0.6784 -0.4540 -0.3820
   70SLPC   H3X 6053   2.323   1.941  10.261  1.5516  4.8254 -0.8308
   70SLPC   H3Y 6054   2.469   1.848  10.279 -0.5055 -0.0474  0.9190
   70SLPC   C34 6055   2.382   1.862  10.072  0.4961 -0.4517  0.3434
   70SLPC   H4X 6056   2.307   1.782  10.091 -0.2519 -0.3355 -2.0073
   70SLPC   H4Y 6057   2.473   1.817  10.028 -0.2951 -1.6469 -0.1161
   70SLPC   C35 6058   2.309   1.969   9.974  0.3641 -0.0083  0.3547
   70SLPC   H5X 6059   2.386   2.038   9.934  1.0579 -1.0503 -0.1351
   70SLPC   H5Y 6060   2.231   2.023  10.032 -1.2481 -1.4602 -0.3817
   70SLPC   C36 6061   2.237   1.890   9.859  0.1209 -0.2561  0.8582
   70SLPC   H6X 6062   2.179   1.821   9.925  0.8566 -0.7537  0.9947
   70SLPC   H6Y 6063   2.306   1.837   9.790  0.6830  1.4253  0.1165
   70SLPC   C37 6064   2.142   1.986   9.793  0.3647 -0.1427 -0.6314
   70SLPC   H7X 6065   2.192   2.077   9.752  0.6476 -0.8370 -1.8642
   70SLPC   H7Y 6066   2.086   2.026   9.880  1.4254  1.9630 -0.8687
   70SLPC   C38 6067   2.059   1.904   9.696  0.5954 -0.3991  0.8734
   70SLPC   H8X 6068   1.988   1.830   9.739  0.6842 -0.5314  0.7928
   70SLPC   H8Y 6069   2.130   1.850   9.629  0.9922 -0.3266  1.2260
   70SLPC   C39 6070   1.967   1.994   9.602 -0.2164 -0.4814  0.1091
   70SLPC   H9X 6071   1.908   2.068   9.660  1.6880  1.9908 -1.0452
   70SLPC   H9Y 6072   1.895   1.928   9.549 -0.2665 -2.3239  2.3734
   70SLPC  C310 6073   2.043   2.069   9.497  0.0838  0.0068 -0.5193
   70SLPC  H10X 6074   2.127   2.124   9.544 -2.3445  0.8478  3.0265
   70SLPC  H10Y 6075   1.977   2.144   9.449 -0.6144 -0.4545 -0.2798
   70SLPC  C311 6076   2.094   1.973   9.391 -0.0159 -0.2681  0.8507
   70SLPC  H11X 6077   2.004   1.939   9.335  0.4210  0.4662 -0.3219
   70SLPC  H11Y 6078   2.153   1.888   9.432 -0.6300  0.6728  3.8585
   70SLPC  C312 6079   2.197   2.040   9.292 -0.1840 -0.5634  0.2422
   70SLPC  H12X 6080   2.255   1.955   9.249 -0.7498 -0.1053 -1.4313
   70SLPC  H12Y 6081   2.280   2.095   9.342 -0.1821 -3.2666  3.4201
   70SLPC  C313 6082   2.131   2.123   9.178  0.1469  0.0799 -0.0125
   70SLPC  H13X 6083   2.092   2.221   9.213  1.7054  1.0813 -1.0087
   70SLPC  H13Y 6084   2.046   2.062   9.141  0.8761 -0.4836 -0.7818
   70SLPC  C314 6085   2.223   2.147   9.063 -0.2171 -0.5084  0.9111
   70SLPC  H14X 6086   2.281   2.054   9.043 -1.0312 -0.6053 -1.1152
   70SLPC  H14Y 6087   2.306   2.217   9.087 -2.4665  2.1038  1.1365
   70SLPC  C315 6088   2.145   2.180   8.934  0.1357  0.0197  0.5019
   70SLPC  H15X 6089   2.066   2.255   8.959 -1.3799 -1.8349  1.4091
   70SLPC  H15Y 6090   2.106   2.083   8.897  0.8953 -0.7019  1.5550
   70SLPC  C316 6091   2.223   2.240   8.814 -0.8081  0.3449  0.3141
   70SLPC  H16X 6092   2.305   2.170   8.789  0.6075  1.9853  0.3068
   70SLPC  H16Y 6093   2.260   2.342   8.838  1.7679 -0.0172 -1.9092
   70SLPC  C317 6094   2.146   2.258   8.684  0.5272 -0.2683  0.4879
   70SLPC  H17X 6095   2.086   2.350   8.701  2.3754  1.0987 -0.1539
   70SLPC  H17Y 6096   2.087   2.166   8.665 -0.4438  1.0676 -3.5155
   70SLPC  C318 6097   2.226   2.280   8.553  1.0714  0.3939  0.1465
   70SLPC  H18X 6098   2.263   2.381   8.579 -0.4296  0.8216  0.6853
   70SLPC  H18Y 6099   2.165   2.279   8.461 -0.6876  1.3029  1.2834
   70SLPC  H18Z 6100   2.305   2.202   8.555  1.4256  0.7626  3.1753
   71SLPC     N 6101   2.322   0.294  10.789  0.2198  0.0957  0.2790
   71SLPC   C13 6102   2.426   0.223  10.705 -0.1149  0.7314  0.0988
   71SLPC  H13A 6103   2.408   0.117  10.698 -3.9485  1.3232 -0.0469
   71SLPC  H13B 6104   2.425   0.263  10.605  0.6672 -1.1203 -0.6657
   71SLPC  H13C 6105   2.526   0.239  10.745 -0.0525 -2.1319  1.2397
   71SLPC   C14 6106   2.375   0.426  10.837 -0.0236 -0.6378 -0.8682
   71SLPC  H14A 6107   2.467   0.418  10.893 -0.3086  2.8163  0.1749
   71SLPC  H14B 6108   2.401   0.494  10.757  0.1123 -1.2615 -1.3598
   71SLPC  H14C 6109   2.303   0.471  10.905 -0.2648 -2.7086  0.2876
   71SLPC   C15 6110   2.308   0.201  10.908 -0.4929 -0.3888  0.3747
   71SLPC  H15A 6111   2.224   0.231  10.969 -1.1765  0.8067 -1.1196
   71SLPC  H15B 6112   2.291   0.099  10.877 -0.9287 -0.1833 -0.0832
   71SLPC  H15C 6113   2.407   0.197  10.950 -0.6093 -2.1931  0.5092
   71SLPC   C12 6114   2.186   0.300  10.715 -0.1980  0.8269  0.4120
   71SLPC  H12A 6115   2.120   0.349  10.785 -0.8835 -0.6436  0.8195
   71SLPC  H12B 6116   2.153   0.202  10.685  0.8541  0.4994  0.2993
   71SLPC   C11 6117   2.173   0.396  10.588 -0.1358 -0.2285  0.0044
   71SLPC  H11A 6118   2.082   0.364  10.533 -1.0960  0.4182  1.2030
   71SLPC  H11B 6119   2.256   0.365  10.520 -1.2325 -0.6165 -1.1808
   71SLPC     P 6120   2.065   0.617  10.672  0.0956  0.1773 -0.1272
   71SLPC   O13 6121   2.005   0.550  10.793  0.0954 -0.0536 -0.4998
   71SLPC   O14 6122   2.106   0.759  10.683  0.9531 -0.5920  0.1890
   71SLPC   O12 6123   2.190   0.536  10.625 -0.5920  0.6205 -1.0251
   71SLPC   O11 6124   1.968   0.602  10.547  0.7199 -0.1267 -0.1091
   71SLPC    C1 6125   2.013   0.644  10.411  0.9216  0.1926 -0.7082
   71SLPC    HA 6126   2.075   0.736  10.416  2.1546 -0.6251 -0.6412
   71SLPC    HB 6127   2.056   0.555  10.359  2.7365 -0.0389  1.0921
   71SLPC    C2 6128   1.880   0.668  10.331  0.0979  0.0372  0.2029
   71SLPC    HS 6129   1.816   0.587  10.371 -1.6921  0.4431 -1.7424
   71SLPC   O21 6130   1.896   0.656  10.191  0.2218  0.0595 -0.2216
   71SLPC   C21 6131   1.792   0.617  10.119 -1.2377 -1.4379 -0.5153
   71SLPC   O22 6132   1.683   0.583  10.166 -0.1997 -0.7899 -0.1017
   71SLPC   C22 6133   1.832   0.607   9.966 -0.1903 -0.2082  0.1841
   71SLPC   H2R 6134   1.931   0.559   9.956 -0.2447 -0.2252 -0.2757
   71SLPC   H2S 6135   1.750   0.541   9.932 -0.3710 -0.2787  0.7506
   71SLPC    C3 6136   1.819   0.809  10.364 -0.5199  0.8738  0.2893
   71SLPC    HX 6137   1.791   0.811  10.471 -1.2714  1.7550  0.0857
   71SLPC    HY 6138   1.715   0.820  10.327 -1.0870 -0.6989  1.3780
   71SLPC   O31 6139   1.908   0.917  10.330 -0.0776 -0.2080 -0.6170
   71SLPC   C31 6140   1.860   0.979  10.213 -0.0722 -0.4637 -0.6156
   71SLPC   O32 6141   1.758   0.954  10.156 -0.0851  0.0389 -0.2322
   71SLPC   C32 6142   1.982   1.045  10.150 -0.4470  0.0970  0.3792
   71SLPC   H2X 6143   2.062   0.968  10.150 -0.2436  0.2599 -2.5938
   71SLPC   H2Y 6144   2.015   1.137  10.203  3.3719 -0.3105 -1.1194
   71SLPC   C23 6145   1.821   0.736   9.885 -0.2175  0.4111 -0.2785
   71SLPC   H3R 6146   1.912   0.794   9.909  1.4515 -0.2728 -4.5211
   71SLPC   H3S 6147   1.729   0.798   9.902  0.2422  0.5198  2.0089
   71SLPC   C24 6148   1.822   0.709   9.732 -0.1247 -0.3895  0.5139
   71SLPC   H4R 6149   1.921   0.669   9.703 -0.0207  0.5905 -0.5411
   71SLPC   H4S 6150   1.819   0.804   9.674  2.1276  0.7938  2.2790
   71SLPC   C25 6151   1.708   0.615   9.688  0.7762 -0.7731  0.1184
   71SLPC   H5R 6152   1.618   0.649   9.743  0.9581 -1.6523  0.9648
   71SLPC   H5S 6153   1.734   0.510   9.715  0.3941 -1.1506 -0.9575
   71SLPC   C26 6154   1.693   0.616   9.536 -0.0006  0.0259  0.0329
   71SLPC   H6R 6155   1.642   0.704   9.491  0.3517  0.1326 -0.1523
   71SLPC   H6S 6156   1.615   0.539   9.515  0.5444 -0.5435  0.0779
   71SLPC   C27 6157   1.823   0.598   9.450 -0.8220 -0.1905  0.3202
   71SLPC   H7R 6158   1.867   0.502   9.484 -3.9305 -1.6873  0.2793
   71SLPC   H7S 6159   1.893   0.683   9.465 -2.0313  0.7730  0.6081
   71SLPC   C28 6160   1.787   0.604   9.298  0.0849  0.2448  0.0643
   71SLPC   H8R 6161   1.685   0.564   9.279  0.5110 -0.6935 -0.2599
   71SLPC   H8S 6162   1.859   0.539   9.245 -1.1885 -0.9311 -0.2531
   71SLPC   C29 6163   1.780   0.734   9.231 -0.0833  0.4115  0.0638
   71SLPC   H9R 6164   1.779   0.819   9.300  2.4865  1.2489 -0.8864
   71SLPC  C210 6165   1.786   0.767   9.098 -0.4666  0.7812 -0.1658
   71SLPC  H10R 6166   1.774   0.870   9.063 -0.5170  0.3892 -1.3136
   71SLPC  C211 6167   1.796   0.661   8.991  0.1690 -1.1406 -0.2127
   71SLPC  H11R 6168   1.791   0.558   9.032 -0.7007 -2.1065 -2.6465
   71SLPC  H11S 6169   1.897   0.666   8.943  0.0621  0.9773 -0.2243
   71SLPC  C212 6170   1.683   0.688   8.890  0.1203  0.9399  0.5340
   71SLPC  H12R 6171   1.711   0.751   8.804 -1.1431  1.1825  0.2882
   71SLPC  C213 6172   1.557   0.629   8.881 -0.6675  0.6343 -0.4112
   71SLPC  H13R 6173   1.489   0.667   8.803  1.2755 -1.2840 -3.1531
   71SLPC  C214 6174   1.493   0.533   8.977 -0.8393 -0.4095  0.3148
   71SLPC  H14R 6175   1.564   0.496   9.054 -0.7736 -0.1078  0.3999
   71SLPC  H14S 6176   1.445   0.447   8.925 -1.5193  0.1096  0.0759
   71SLPC  C215 6177   1.390   0.613   9.063 -0.2608  0.0588  0.2228
   71SLPC  H15R 6178   1.300   0.645   9.007 -0.2029  1.1067  0.7214
   71SLPC  H15S 6179   1.440   0.697   9.115  1.9071 -0.9067 -0.2367
   71SLPC  C216 6180   1.325   0.523   9.166  0.1205  0.1832 -0.1610
   71SLPC  H16R 6181   1.395   0.459   9.226  1.6505  1.6096 -0.3890
   71SLPC  H16S 6182   1.262   0.457   9.102  1.3376 -2.4887  1.2661
   71SLPC  C217 6183   1.256   0.592   9.281  0.5887 -0.0522 -0.0039
   71SLPC  H17R 6184   1.209   0.506   9.332  0.7625 -0.7789 -1.0532
   71SLPC  H17S 6185   1.186   0.658   9.226  0.5261  0.0110  0.1514
   71SLPC  C218 6186   1.338   0.666   9.382 -0.0013 -0.2675 -0.2895
   71SLPC  H18R 6187   1.270   0.723   9.448 -0.2182 -0.5128 -0.2974
   71SLPC  H18S 6188   1.401   0.742   9.331  0.1556 -1.3999 -1.8241
   71SLPC  H18T 6189   1.402   0.603   9.448  0.3147  1.3787  1.0090
   71SLPC   C33 6190   1.964   1.078  10.002 -0.2453  0.7054  0.5972
   71SLPC   H3X 6191   1.905   1.171   9.989 -0.4931  0.1404 -2.7133
   71SLPC   H3Y 6192   1.917   0.990   9.952 -0.2332  0.2459  1.3874
   71SLPC   C34 6193   2.093   1.110   9.925  0.0625  0.1120  0.1920
   71SLPC   H4X 6194   2.180   1.060   9.972  1.2448  2.8331  0.9769
   71SLPC   H4Y 6195   2.119   1.218   9.926  0.0563  0.1073  1.0149
   71SLPC   C35 6196   2.096   1.049   9.785  0.0100 -0.1828 -1.2147
   71SLPC   H5X 6197   2.093   0.939   9.800  2.0512 -0.1124 -0.1766
   71SLPC   H5Y 6198   2.201   1.064   9.751 -0.3490  2.9928 -1.0745
   71SLPC   C36 6199   1.990   1.099   9.679 -0.1232 -0.8820 -0.1607
   71SLPC   H6X 6200   2.014   1.202   9.644 -2.8962 -0.1426  0.0593
   71SLPC   H6Y 6201   1.889   1.080   9.721 -0.3182 -0.8453 -0.6110
   71SLPC   C37 6202   1.992   1.012   9.549  0.5637 -0.1835 -0.1372
   71SLPC   H7X 6203   1.888   0.993   9.516  0.5112 -0.1520  0.0084
   71SLPC   H7Y 6204   2.038   0.913   9.570  1.4425  0.0646 -0.8239
   71SLPC   C38 6205   2.053   1.091   9.437 -0.2458  0.0668 -1.1537
   71SLPC   H8X 6206   2.153   1.136   9.455  0.2913 -0.7292 -2.0478
   71SLPC   H8Y 6207   1.986   1.176   9.415 -0.7083 -0.5451 -2.1634
   71SLPC   C39 6208   2.049   1.020   9.303 -0.4464  0.3554  0.1083
   71SLPC   H9X 6209   1.941   0.996   9.293 -0.2342 -0.0806 -1.2121
   71SLPC   H9Y 6210   2.106   0.925   9.295  0.2708  0.8185 -0.2935
   71SLPC  C310 6211   2.068   1.112   9.184  0.3269  0.0552 -0.3732
   71SLPC  H10X 6212   2.163   1.169   9.189  1.0775 -1.2877  1.2725
   71SLPC  H10Y 6213   1.985   1.186   9.192  0.0346 -0.3305  0.2290
   71SLPC  C311 6214   2.044   1.044   9.051 -0.3172  0.4799  0.5607
   71SLPC  H11X 6215   1.972   0.959   9.050  0.7441 -0.4339  0.8660
   71SLPC  H11Y 6216   2.136   0.984   9.038 -0.6674 -0.9267  3.8990
   71SLPC  C312 6217   2.017   1.137   8.931  0.0691  0.1288 -0.1467
   71SLPC  H12X 6218   2.081   1.226   8.952  0.9156  0.5159 -4.0241
   71SLPC  H12Y 6219   1.913   1.173   8.945 -0.1797 -0.5243 -0.3165
   71SLPC  C313 6220   2.044   1.077   8.789 -0.1161  0.3582 -0.2730
   71SLPC  H13X 6221   1.962   1.004   8.771  0.7970 -0.8554  0.3815
   71SLPC  H13Y 6222   2.139   1.020   8.782 -1.1570 -1.1377 -3.5336
   71SLPC  C314 6223   2.027   1.186   8.679  0.1648 -0.5600 -0.7341
   71SLPC  H14X 6224   1.931   1.237   8.704  0.4714 -0.0834 -0.5306
   71SLPC  H14Y 6225   2.018   1.138   8.579 -0.1468 -0.1446 -0.9064
   71SLPC  C315 6226   2.152   1.285   8.678 -0.3402 -0.1105  0.8198
   71SLPC  H15X 6227   2.155   1.336   8.777 -0.3179  1.8739 -0.1732
   71SLPC  H15Y 6228   2.152   1.368   8.604  0.7715 -1.0299 -0.2185
   71SLPC  C316 6229   2.291   1.211   8.674 -0.1306  0.3325 -0.2839
   71SLPC  H16X 6230   2.288   1.133   8.595 -1.2177  0.4561 -0.3663
   71SLPC  H16Y 6231   2.319   1.172   8.774 -2.7892 -1.5487 -0.2143
   71SLPC  C317 6232   2.401   1.303   8.632  0.5139  0.3560  0.2273
   71SLPC  H17X 6233   2.500   1.258   8.654  1.4765  1.5980 -1.4342
   71SLPC  H17Y 6234   2.403   1.397   8.690 -1.2163 -0.3702  1.5100
   71SLPC  C318 6235   2.398   1.355   8.481  0.3026 -0.5731  0.1612
   71SLPC  H18X 6236   2.491   1.414   8.466  0.6581 -1.0898  0.3402
   71SLPC  H18Y 6237   2.308   1.417   8.460  0.6877 -0.3803 -0.9427
   71SLPC  H18Z 6238   2.400   1.270   8.411  0.5060 -0.5673  0.1582
   72SLPC     N 6239   2.967   5.803  10.861 -0.1411  0.0171 -1.2028
   72SLPC   C13 6240   2.968   5.945  10.913 -0.1214 -0.2054 -0.2905
   72SLPC  H13A 6241   3.055   6.003  10.887  0.8753 -1.1614  0.8627
   72SLPC  H13B 6242   2.883   6.004  10.881  1.2457  2.4135  0.8152
   72SLPC  H13C 6243   2.953   5.947  11.019  0.7865 -0.3921 -0.1557
   72SLPC   C14 6244   2.845   5.734  10.903  0.6374 -0.4364  0.1254
   72SLPC  H14A 6245   2.866   5.628  10.915 -0.2197 -0.9843 -2.9795
   72SLPC  H14B 6246   2.798   5.769  10.994 -2.3524 -0.2253 -1.4455
   72SLPC  H14C 6247   2.769   5.751  10.829  0.8691  0.2084  0.0360
   72SLPC   C15 6248   3.090   5.736  10.919  0.3358 -0.0440  0.5822
   72SLPC  H15A 6249   3.177   5.786  10.881 -0.1532  1.7791  1.7884
   72SLPC  H15B 6250   3.093   5.734  11.027  0.7702 -2.3595  0.5677
   72SLPC  H15C 6251   3.109   5.634  10.888 -1.5811  0.0295 -0.9374
   72SLPC   C12 6252   2.980   5.798  10.713  0.0952 -0.2595 -0.0033
   72SLPC  H12A 6253   3.060   5.862  10.677  2.1813 -2.3628  0.8011
   72SLPC  H12B 6254   2.882   5.827  10.677  0.6206 -0.1100 -1.3738
   72SLPC   C11 6255   3.001   5.657  10.650 -0.2525  0.6568  0.2454
   72SLPC  H11A 6256   3.105   5.629  10.679 -1.0153 -0.6973  1.7436
   72SLPC  H11B 6257   3.009   5.669  10.540 -2.7105  0.1542 -0.0092
   72SLPC     P 6258   2.774   5.506  10.616  0.0020 -0.5109 -0.2676
   72SLPC   O13 6259   2.770   5.357  10.614 -0.1895 -0.0198 -0.1409
   72SLPC   O14 6260   2.654   5.581  10.672  0.1045 -0.3074  0.3625
   72SLPC   O12 6261   2.907   5.558  10.686 -0.4993  0.1046  0.3319
   72SLPC   O11 6262   2.787   5.565  10.467 -0.1127 -0.2746 -0.1064
   72SLPC    C1 6263   2.742   5.695  10.424 -0.1135  0.2508 -0.0577
   72SLPC    HA 6264   2.691   5.747  10.509  0.6066  0.4131  0.2799
   72SLPC    HB 6265   2.835   5.750  10.400  1.3576 -1.7218  1.0207
   72SLPC    C2 6266   2.647   5.693  10.304  0.5219 -0.2517 -0.0051
   72SLPC    HS 6267   2.560   5.628  10.327  0.8801 -0.0974  1.8656
   72SLPC   O21 6268   2.722   5.660  10.191  0.0652  0.2094 -0.0769
   72SLPC   C21 6269   2.710   5.532  10.165 -0.0964  0.4307 -0.2894
   72SLPC   O22 6270   2.649   5.449  10.230 -0.0297 -0.2985 -0.1084
   72SLPC   C22 6271   2.790   5.487  10.044 -0.0780 -0.4363  0.1582
   72SLPC   H2R 6272   2.800   5.564   9.964  0.0242 -1.5649 -0.9276
   72SLPC   H2S 6273   2.893   5.485  10.084  0.5232 -0.7656 -1.3521
   72SLPC    C3 6274   2.586   5.826  10.295 -0.4858  0.2359 -0.8759
   72SLPC    HX 6275   2.657   5.899  10.342 -0.8451 -1.3482  2.2757
   72SLPC    HY 6276   2.499   5.820  10.364 -1.0327 -2.4701 -1.7436
   72SLPC   O31 6277   2.537   5.863  10.167  0.0640  0.6256 -0.2256
   72SLPC   C31 6278   2.525   5.993  10.149 -0.1323  0.2113  0.9009
   72SLPC   O32 6279   2.539   6.080  10.233 -0.1928 -0.0658 -0.0480
   72SLPC   C32 6280   2.505   6.012  10.000 -0.0961  0.1302 -0.1644
   72SLPC   H2X 6281   2.399   5.985   9.979  0.3383 -0.3236 -1.8802
   72SLPC   H2Y 6282   2.565   5.942   9.938 -2.6556 -1.1347 -1.2961
   72SLPC   C23 6283   2.758   5.341   9.990 -0.0973  0.0993  0.1180
   72SLPC   H3R 6284   2.659   5.331   9.940 -0.8036  1.3441  1.2353
   72SLPC   H3S 6285   2.743   5.273  10.076  1.5044  0.2796  0.5573
   72SLPC   C24 6286   2.875   5.284   9.908 -0.3000  0.1680 -0.2443
   72SLPC   H4R 6287   2.943   5.226   9.974 -0.8792 -2.5499 -1.9808
   72SLPC   H4S 6288   2.924   5.377   9.870  0.3840  0.3050  0.9370
   72SLPC   C25 6289   2.837   5.167   9.811  0.0123 -0.1714 -0.8538
   72SLPC   H5R 6290   2.727   5.150   9.816 -0.5915  3.3823 -0.8517
   72SLPC   H5S 6291   2.879   5.073   9.852  0.4617  1.2321  2.0751
   72SLPC   C26 6292   2.912   5.192   9.680  0.3616  0.3663 -0.3608
   72SLPC   H6R 6293   2.949   5.102   9.626  0.6071  0.4265 -0.2930
   72SLPC   H6S 6294   3.011   5.238   9.701  1.5156 -2.4325  0.5953
   72SLPC   C27 6295   2.829   5.284   9.585  0.4427  0.5156  0.0987
   72SLPC   H7R 6296   2.779   5.367   9.641 -0.1114  1.1083 -1.2505
   72SLPC   H7S 6297   2.743   5.233   9.537  0.4019  1.6533 -1.0706
   72SLPC   C28 6298   2.923   5.343   9.478  0.0260  0.2215 -0.7305
   72SLPC   H8R 6299   3.002   5.407   9.521  0.1372 -0.9237  0.8197
   72SLPC   H8S 6300   2.860   5.411   9.416  0.1226  0.3968 -0.6384
   72SLPC   C29 6301   2.985   5.246   9.377 -0.4107 -0.5296  0.4631
   72SLPC   H9R 6302   3.015   5.158   9.436  1.3503 -1.0324 -1.1220
   72SLPC  C210 6303   3.007   5.250   9.242  0.2389 -0.7429 -0.5378
   72SLPC  H10R 6304   3.046   5.164   9.187  1.0225  0.1912 -1.4428
   72SLPC  C211 6305   2.980   5.370   9.161 -0.2831  0.0038  0.4715
   72SLPC  H11R 6306   2.932   5.448   9.224 -2.6078 -0.8571 -0.1581
   72SLPC  H11S 6307   2.887   5.348   9.103 -0.1740 -0.6511  0.5425
   72SLPC  C212 6308   3.100   5.421   9.088 -0.4506  0.8263  0.4074
   72SLPC  H12R 6309   3.157   5.494   9.148 -0.0501  1.5998 -0.8946
   72SLPC  C213 6310   3.131   5.394   8.958 -0.2838 -0.1905 -0.1480
   72SLPC  H13R 6311   3.223   5.421   8.906  0.2743 -2.4006 -0.3537
   72SLPC  C214 6312   3.040   5.303   8.881  0.2181  0.1556  0.5463
   72SLPC  H14R 6313   2.957   5.262   8.943  0.3933 -0.8738  0.0904
   72SLPC  H14S 6314   3.095   5.217   8.838  0.6682  0.1655  1.1016
   72SLPC  C215 6315   2.959   5.388   8.775  0.9417  0.0140  0.3034
   72SLPC  H15R 6316   3.043   5.438   8.722 -0.1626  1.3409 -0.2429
   72SLPC  H15S 6317   2.894   5.465   8.822  1.1194  1.2546 -1.4385
   72SLPC  C216 6318   2.870   5.299   8.695  0.2531  0.0893  0.3036
   72SLPC  H16R 6319   2.794   5.247   8.757 -0.8556  0.0918 -1.0324
   72SLPC  H16S 6320   2.931   5.214   8.657  1.6657  1.0479  0.4019
   72SLPC  C217 6321   2.795   5.358   8.573 -0.1745  0.6733  0.4648
   72SLPC  H17R 6322   2.726   5.278   8.537 -0.1975  0.8454  0.1179
   72SLPC  H17S 6323   2.862   5.381   8.487 -1.4435  0.5294 -0.5790
   72SLPC  C218 6324   2.713   5.486   8.611 -0.0416 -0.7093  0.3302
   72SLPC  H18R 6325   2.619   5.444   8.653  0.6456 -1.5910  1.0148
   72SLPC  H18S 6326   2.678   5.554   8.531 -0.7960  0.9172  2.0116
   72SLPC  H18T 6327   2.762   5.539   8.696 -0.5940 -1.2580  0.9985
   72SLPC   C33 6328   2.504   6.161   9.962 -0.6286 -0.0159  0.0834
   72SLPC   H3X 6329   2.604   6.206   9.980 -0.1037 -0.9248 -0.5574
   72SLPC   H3Y 6330   2.426   6.219  10.017  0.5320  1.1710  0.5243
   72SLPC   C34 6331   2.489   6.189   9.810  0.2835  0.1953 -0.2230
   72SLPC   H4X 6332   2.464   6.297   9.798 -1.2090 -0.1769 -0.5557
   72SLPC   H4Y 6333   2.404   6.128   9.776  1.2242 -0.1439 -2.0137
   72SLPC   C35 6334   2.616   6.151   9.731 -0.2743 -0.3881 -0.1745
   72SLPC   H5X 6335   2.643   6.047   9.757 -1.2686 -0.9915 -1.4949
   72SLPC   H5Y 6336   2.702   6.217   9.756  0.9355 -1.3908 -1.6012
   72SLPC   C36 6337   2.594   6.180   9.583  0.0967 -0.9003  0.6193
   72SLPC   H6X 6338   2.688   6.169   9.525 -0.0231 -0.1669  0.2772
   72SLPC   H6Y 6339   2.575   6.288   9.563  1.5505 -1.1342 -2.3241
   72SLPC   C37 6340   2.486   6.097   9.509 -0.2735  0.5589 -0.7940
   72SLPC   H7X 6341   2.383   6.125   9.541 -1.0550 -1.6132 -1.3173
   72SLPC   H7Y 6342   2.500   5.989   9.530 -0.8251  0.2296 -2.0228
   72SLPC   C38 6343   2.490   6.111   9.356 -0.0122  0.0483  0.0611
   72SLPC   H8X 6344   2.599   6.115   9.333  0.0708 -3.1238 -0.2942
   72SLPC   H8Y 6345   2.437   6.203   9.323  1.3909  0.6930 -0.4300
   72SLPC   C39 6346   2.425   5.985   9.286  0.5442  0.0905 -0.2994
   72SLPC   H9X 6347   2.317   5.994   9.308  0.0835 -0.9105 -2.0386
   72SLPC   H9Y 6348   2.463   5.901   9.348  2.8609  0.3776 -1.2823
   72SLPC  C310 6349   2.441   5.951   9.144 -0.6476  0.2521  0.1561
   72SLPC  H10X 6350   2.413   5.849   9.111 -3.3649  1.6587 -2.0790
   72SLPC  H10Y 6351   2.551   5.960   9.128 -0.4303 -1.1670  0.8136
   72SLPC  C311 6352   2.366   6.037   9.045 -1.1793  0.0488  0.4058
   72SLPC  H11X 6353   2.395   5.996   8.946 -0.8340 -0.5204  0.7404
   72SLPC  H11Y 6354   2.404   6.141   9.050  0.9746 -0.7718  1.5084
   72SLPC  C312 6355   2.213   6.034   9.038  0.3414  0.0094 -0.3382
   72SLPC  H12X 6356   2.176   6.106   8.963  1.9401 -0.3008 -1.4404
   72SLPC  H12Y 6357   2.172   6.066   9.136  2.0377  1.5059 -0.0798
   72SLPC  C313 6358   2.153   5.907   8.977 -0.2809 -0.0750  0.2987
   72SLPC  H13X 6359   2.048   5.910   9.014 -0.1161 -2.3776  1.0314
   72SLPC  H13Y 6360   2.201   5.815   9.017 -1.5217 -1.0334 -0.3632
   72SLPC  C314 6361   2.126   5.908   8.826  0.1962 -0.1632 -0.2582
   72SLPC  H14X 6362   2.224   5.942   8.785 -1.1047  0.2070 -3.2368
   72SLPC  H14Y 6363   2.053   5.987   8.799  1.6813  1.8932  1.5695
   72SLPC  C315 6364   2.077   5.769   8.787 -0.1300 -0.0246  0.5276
   72SLPC  H15X 6365   1.972   5.756   8.820 -0.5952  0.7192 -0.6211
   72SLPC  H15Y 6366   2.149   5.702   8.838 -1.6271 -0.6906  1.8421
   72SLPC  C316 6367   2.090   5.738   8.635  1.2695 -0.2840  0.0161
   72SLPC  H16X 6368   2.036   5.814   8.574 -0.0266 -0.6281  0.7096
   72SLPC  H16Y 6369   2.049   5.638   8.610  1.9036 -0.5262 -0.0440
   72SLPC  C317 6370   2.231   5.753   8.585  1.1093 -0.1678 -0.0723
   72SLPC  H17X 6371   2.302   5.683   8.635  1.2118  1.4479  2.1022
   72SLPC  H17Y 6372   2.254   5.861   8.593  1.4525 -0.2065 -0.4494
   72SLPC  C318 6373   2.227   5.719   8.432 -0.1927  0.1841 -0.6120
   72SLPC  H18X 6374   2.170   5.803   8.387 -1.4416  0.1403  0.8707
   72SLPC  H18Y 6375   2.194   5.613   8.431  0.7361 -0.1243  0.4464
   72SLPC  H18Z 6376   2.325   5.730   8.381 -0.1184 -0.2473 -0.5667
   73SLPC     N 6377   3.332   4.698  10.963  0.4137 -0.6312  0.7733
   73SLPC   C13 6378   3.311   4.590  11.065 -0.1353  0.4756  0.1197
   73SLPC  H13A 6379   3.388   4.593  11.142  0.0726  0.2879 -0.0803
   73SLPC  H13B 6380   3.213   4.599  11.109 -0.6490  0.0981 -0.9314
   73SLPC  H13C 6381   3.312   4.489  11.027  0.5236  0.5212  0.0005
   73SLPC   C14 6382   3.474   4.713  10.923  0.1162 -0.2596 -0.1144
   73SLPC  H14A 6383   3.482   4.801  10.860 -0.3025 -0.3255 -0.2643
   73SLPC  H14B 6384   3.542   4.722  11.006  0.1240 -0.9470 -0.0417
   73SLPC  H14C 6385   3.506   4.627  10.866  2.4487  0.9037 -0.6242
   73SLPC   C15 6386   3.279   4.823  11.026  0.5257  0.8364 -0.0048
   73SLPC  H15A 6387   3.267   4.903  10.954  0.8717 -1.4860 -2.7512
   73SLPC  H15B 6388   3.174   4.803  11.042  0.7804  1.3745  2.4949
   73SLPC  H15C 6389   3.328   4.852  11.118 -0.6373 -0.3128  1.0080
   73SLPC   C12 6390   3.249   4.659  10.836 -0.3496  0.2873 -0.2316
   73SLPC  H12A 6391   3.238   4.741  10.767 -0.5272  0.6690  0.2445
   73SLPC  H12B 6392   3.147   4.636  10.865 -0.1233  0.3057  0.6135
   73SLPC   C11 6393   3.288   4.510  10.783  0.1033  0.4169  0.0830
   73SLPC  H11A 6394   3.398   4.494  10.771  0.0506 -0.4511  0.6849
   73SLPC  H11B 6395   3.230   4.516  10.689  0.4307  1.1918 -0.0774
   73SLPC     P 6396   3.069   4.384  10.874 -0.3570  0.4744  0.1889
   73SLPC   O13 6397   3.047   4.277  10.974  0.6564 -0.1288  0.3225
   73SLPC   O14 6398   3.004   4.513  10.895  0.1613 -0.3693 -0.7535
   73SLPC   O12 6399   3.229   4.405  10.861 -0.1007  0.0062  0.2080
   73SLPC   O11 6400   3.029   4.323  10.730  0.5725  0.2673  0.3237
   73SLPC    C1 6401   3.106   4.224  10.670 -0.5843  0.3502 -0.5844
   73SLPC    HA 6402   3.212   4.218  10.705 -0.2650  0.2750 -1.5667
   73SLPC    HB 6403   3.065   4.121  10.682 -1.3096  0.6068 -0.8363
   73SLPC    C2 6404   3.135   4.255  10.520 -0.3269 -0.2156  0.3316
   73SLPC    HS 6405   3.167   4.360  10.506 -0.1940  0.1650  3.1821
   73SLPC   O21 6406   3.016   4.228  10.441 -0.0944  0.3114 -0.5056
   73SLPC   C21 6407   2.962   4.317  10.357  0.4102 -0.5844 -0.7496
   73SLPC   O22 6408   2.992   4.432  10.344 -0.0036 -0.2270 -0.4881
   73SLPC   C22 6409   2.864   4.241  10.266  0.0052 -0.0638  0.6135
   73SLPC   H2R 6410   2.895   4.135  10.265  0.8099  0.1425  2.0407
   73SLPC   H2S 6411   2.771   4.240  10.326 -1.9848 -0.7250 -2.3991
   73SLPC    C3 6412   3.241   4.152  10.471  1.2203  0.3757 -0.4137
   73SLPC    HX 6413   3.198   4.050  10.487  1.0185  0.7807  1.7698
   73SLPC    HY 6414   3.328   4.166  10.538 -0.6823 -0.7135  2.3904
   73SLPC   O31 6415   3.266   4.167  10.326  0.3757  0.3109 -0.1424
   73SLPC   C31 6416   3.323   4.279  10.288  0.2212  0.8154  0.8753
   73SLPC   O32 6417   3.393   4.349  10.354 -0.1038  0.4998  0.4831
   73SLPC   C32 6418   3.290   4.309  10.136 -0.7751 -0.1603  0.0972
   73SLPC   H2X 6419   3.241   4.408  10.147  0.7948  0.3191  3.2211
   73SLPC   H2Y 6420   3.218   4.234  10.096 -0.6604  0.5138 -1.3984
   73SLPC   C23 6421   2.829   4.298  10.128 -0.1470 -0.2492  0.0592
   73SLPC   H3R 6422   2.925   4.319  10.077  0.0079 -0.7580  0.1432
   73SLPC   H3S 6423   2.773   4.394  10.137  0.7797  0.5253 -2.0509
   73SLPC   C24 6424   2.737   4.218  10.043 -1.1298 -0.3220  0.4163
   73SLPC   H4R 6425   2.645   4.193  10.100 -0.9331 -0.1362  0.8146
   73SLPC   H4S 6426   2.789   4.121  10.029 -1.4484 -0.6926  1.6785
   73SLPC   C25 6427   2.696   4.279   9.908 -0.0662 -0.3286 -0.1151
   73SLPC   H5R 6428   2.611   4.349   9.919 -0.0734 -0.4429  0.5694
   73SLPC   H5S 6429   2.669   4.189   9.848  0.8948 -1.3580  0.9801
   73SLPC   C26 6430   2.805   4.354   9.828  0.2854 -0.0060 -0.0145
   73SLPC   H6R 6431   2.897   4.299   9.799  0.1972  1.0415 -2.3641
   73SLPC   H6S 6432   2.837   4.438   9.894  0.8450 -1.1827  1.2468
   73SLPC   C27 6433   2.744   4.409   9.695 -0.5372 -0.7066 -0.2157
   73SLPC   H7R 6434   2.649   4.464   9.716  0.7081  0.8641  1.3852
   73SLPC   H7S 6435   2.712   4.318   9.639 -0.6980 -0.7940  0.0161
   73SLPC   C28 6436   2.843   4.482   9.606  0.7920  0.0228 -0.0569
   73SLPC   H8R 6437   2.806   4.467   9.502 -1.1459 -0.3683  0.6891
   73SLPC   H8S 6438   2.941   4.430   9.600  0.6414 -0.1608 -1.1360
   73SLPC   C29 6439   2.854   4.629   9.642  0.3418 -0.1025  0.7969
   73SLPC   H9R 6440   2.898   4.657   9.738  2.0266 -3.6840  1.1536
   73SLPC  C210 6441   2.829   4.732   9.562  0.4142  0.4751 -0.0923
   73SLPC  H10R 6442   2.869   4.832   9.586  2.0432  0.1422 -1.3227
   73SLPC  C211 6443   2.771   4.725   9.426 -0.3201 -0.4182 -0.3937
   73SLPC  H11R 6444   2.702   4.810   9.405  1.2291  1.3838  1.5595
   73SLPC  H11S 6445   2.710   4.633   9.416 -0.6789 -0.0550 -1.6820
   73SLPC  C212 6446   2.882   4.723   9.330  0.3255 -0.0217 -0.1985
   73SLPC  H12R 6447   2.969   4.662   9.358  0.0743  0.5238  1.8519
   73SLPC  C213 6448   2.899   4.796   9.217 -0.7176  1.1468 -0.4121
   73SLPC  H13R 6449   3.000   4.793   9.174  0.0453  1.3849  1.3415
   73SLPC  C214 6450   2.810   4.898   9.154 -0.1248 -0.2059 -1.3297
   73SLPC  H14R 6451   2.865   4.992   9.137  0.3040  0.0193  1.1089
   73SLPC  H14S 6452   2.713   4.904   9.209 -0.0786 -0.2286 -1.2458
   73SLPC  C215 6453   2.772   4.845   9.014 -0.0725  0.2489 -0.0821
   73SLPC  H15R 6454   2.736   4.740   9.014  1.1706 -0.1939  1.7506
   73SLPC  H15S 6455   2.865   4.849   8.952  0.6846 -2.3493  0.8256
   73SLPC  C216 6456   2.679   4.932   8.926 -0.6117 -0.1163  0.0765
   73SLPC  H16R 6457   2.712   5.038   8.920  0.5850 -0.4742  0.1784
   73SLPC  H16S 6458   2.575   4.916   8.959 -0.4464 -0.6120  0.3515
   73SLPC  C217 6459   2.681   4.878   8.779 -0.2939  0.2489 -0.1100
   73SLPC  H17R 6460   2.660   4.769   8.790  1.7468 -0.4511 -2.7821
   73SLPC  H17S 6461   2.783   4.886   8.737 -0.2633 -3.0129 -0.7717
   73SLPC  C218 6462   2.592   4.950   8.676  0.2475  0.4199  0.4951
   73SLPC  H18R 6463   2.592   4.878   8.592 -0.2383 -1.2674  1.9116
   73SLPC  H18S 6464   2.641   5.043   8.639  0.6878 -0.6311 -1.6033
   73SLPC  H18T 6465   2.483   4.963   8.693  0.0469 -3.1127  2.3625
   73SLPC   C33 6466   3.416   4.314  10.048  0.0667 -0.4429 -0.2460
   73SLPC   H3X 6467   3.490   4.385  10.091 -0.9810 -0.2709  1.3403
   73SLPC   H3Y 6468   3.383   4.347   9.947  2.3990 -1.5643 -1.4181
   73SLPC   C34 6469   3.487   4.180  10.014  0.2872 -0.9079 -0.6158
   73SLPC   H4X 6470   3.550   4.163  10.104 -0.5365  2.2285  0.6442
   73SLPC   H4Y 6471   3.551   4.204   9.927  1.6225 -1.3161  0.2450
   73SLPC   C35 6472   3.397   4.068   9.977  0.4264  0.0436  1.0270
   73SLPC   H5X 6473   3.346   4.115   9.891  1.3196  0.8876  0.9489
   73SLPC   H5Y 6474   3.323   4.030  10.050  1.0322 -1.4335  0.8955
   73SLPC   C36 6475   3.476   3.948   9.927  0.1875  0.1165  1.0184
   73SLPC   H6X 6476   3.536   3.914  10.014  2.2715  0.3216 -0.3118
   73SLPC   H6Y 6477   3.546   3.987   9.850 -0.2721  0.0493  0.5620
   73SLPC   C37 6478   3.393   3.836   9.857 -0.1369  0.0330 -0.8468
   73SLPC   H7X 6479   3.294   3.878   9.830 -0.8317  0.1446  1.7475
   73SLPC   H7Y 6480   3.371   3.763   9.938  2.7071 -0.9246 -0.8676
   73SLPC   C38 6481   3.464   3.766   9.745 -0.2235  0.1898  0.6697
   73SLPC   H8X 6482   3.411   3.673   9.718 -3.5373  2.1523  0.1292
   73SLPC   H8Y 6483   3.564   3.732   9.782  0.5797  0.0873 -1.5302
   73SLPC   C39 6484   3.493   3.859   9.621 -0.8538 -0.3071 -0.2101
   73SLPC   H9X 6485   3.562   3.795   9.562 -1.2753  0.1816 -1.2474
   73SLPC   H9Y 6486   3.538   3.958   9.646 -2.0630  0.1298  0.2703
   73SLPC  C310 6487   3.366   3.881   9.537  0.3712  0.1941  0.5671
   73SLPC  H10X 6488   3.294   3.941   9.596  1.5021  0.6122  1.5493
   73SLPC  H10Y 6489   3.327   3.781   9.508  1.3394 -0.6513  2.0870
   73SLPC  C311 6490   3.402   3.950   9.399  0.3283  0.0361 -0.2400
   73SLPC  H11X 6491   3.304   3.980   9.355  0.0107 -0.2356  0.2660
   73SLPC  H11Y 6492   3.455   3.872   9.342 -3.1433  0.1960 -3.8747
   73SLPC  C312 6493   3.494   4.076   9.416  0.4974 -0.0591 -0.0397
   73SLPC  H12X 6494   3.514   4.118   9.314 -1.7372  2.0461  0.3419
   73SLPC  H12Y 6495   3.594   4.051   9.458  0.3076 -0.9806 -0.1466
   73SLPC  C313 6496   3.437   4.187   9.502  0.4984  0.3543  0.4599
   73SLPC  H13X 6497   3.411   4.145   9.602 -3.5173  0.9161 -0.2395
   73SLPC  H13Y 6498   3.343   4.220   9.454 -0.2737 -0.7767  1.1621
   73SLPC  C314 6499   3.527   4.312   9.524  0.1645  0.1920 -0.6409
   73SLPC  H14X 6500   3.557   4.359   9.428 -2.3052  0.3369 -1.3790
   73SLPC  H14Y 6501   3.626   4.277   9.559 -0.3941 -1.0742 -0.3034
   73SLPC  C315 6502   3.451   4.423   9.604 -0.0268  0.7988 -0.2685
   73SLPC  H15X 6503   3.449   4.395   9.711  0.6035  0.1792 -0.4194
   73SLPC  H15Y 6504   3.349   4.412   9.562  0.5204  0.5649 -1.5503
   73SLPC  C316 6505   3.507   4.562   9.579  0.3690 -0.4675  0.0481
   73SLPC  H16X 6506   3.428   4.640   9.581  1.6725  0.8546  1.3625
   73SLPC  H16Y 6507   3.554   4.573   9.479  0.1052 -1.1338 -0.1556
   73SLPC  C317 6508   3.598   4.600   9.689  0.6283  0.0397  0.3497
   73SLPC  H17X 6509   3.671   4.522   9.717  0.0393 -0.8742 -0.6387
   73SLPC  H17Y 6510   3.534   4.609   9.780  0.1731  0.9802 -0.0606
   73SLPC  C318 6511   3.676   4.734   9.674  0.2854 -0.3112 -0.4103
   73SLPC  H18X 6512   3.769   4.729   9.613 -0.5741  1.3857 -1.9033
   73SLPC  H18Y 6513   3.706   4.760   9.777  0.6880  2.9240 -1.3024
   73SLPC  H18Z 6514   3.601   4.810   9.645 -2.1522 -2.9970 -1.3968
   74SLPC     N 6515   3.716   5.421  10.689  0.5980 -0.1393 -0.1218
   74SLPC   C13 6516   3.688   5.568  10.696 -0.3153 -0.2677  0.3393
   74SLPC  H13A 6517   3.624   5.618  10.624 -0.5350 -0.3343  0.4892
   74SLPC  H13B 6518   3.643   5.594  10.790 -0.6876  1.1138 -0.2094
   74SLPC  H13C 6519   3.782   5.615  10.672 -0.1004 -0.7199  0.2973
   74SLPC   C14 6520   3.591   5.345  10.736 -0.2892 -0.2277 -0.0944
   74SLPC  H14A 6521   3.619   5.244  10.762 -4.3279 -1.4381 -0.0856
   74SLPC  H14B 6522   3.557   5.392  10.828 -0.7716 -1.2868  0.2730
   74SLPC  H14C 6523   3.516   5.352  10.659  1.2567 -1.3570 -1.7206
   74SLPC   C15 6524   3.832   5.393  10.776 -0.0700 -0.8183 -0.4159
   74SLPC  H15A 6525   3.865   5.291  10.760 -2.2303 -1.0332 -4.0218
   74SLPC  H15B 6526   3.909   5.460  10.740 -0.0719  0.4458  1.8173
   74SLPC  H15C 6527   3.825   5.416  10.881 -1.3416 -0.3853 -0.5942
   74SLPC   C12 6528   3.739   5.382  10.545  0.0390  0.3978 -0.2030
   74SLPC  H12A 6529   3.651   5.398  10.486  1.0746 -0.1006 -1.9138
   74SLPC  H12B 6530   3.749   5.275  10.535 -0.6712  0.4265 -1.2631
   74SLPC   C11 6531   3.860   5.459  10.473  0.3232  0.2362  0.1898
   74SLPC  H11A 6532   3.845   5.569  10.484  0.1897  0.3652 -1.2525
   74SLPC  H11B 6533   3.853   5.433  10.365  0.0767 -1.4759  0.6033
   74SLPC     P 6534   4.062   5.292  10.503 -0.0849  0.0850  0.2872
   74SLPC   O13 6535   4.166   5.278  10.610 -0.2685  0.3872  0.0572
   74SLPC   O14 6536   3.968   5.175  10.491  0.2868 -0.1501 -0.5334
   74SLPC   O12 6537   3.985   5.425  10.534  0.0286 -0.2221  0.1581
   74SLPC   O11 6538   4.123   5.320  10.365 -0.2293  0.1365  0.0989
   74SLPC    C1 6539   4.204   5.430  10.325 -0.6589 -0.0584 -0.2893
   74SLPC    HA 6540   4.173   5.526  10.372  0.9754 -0.8706  2.6010
   74SLPC    HB 6541   4.301   5.409  10.375 -1.5324 -1.0354  1.0168
   74SLPC    C2 6542   4.235   5.446  10.176 -0.0606 -0.0272  0.1805
   74SLPC    HS 6543   4.144   5.455  10.113 -0.6970  2.0028  1.3576
   74SLPC   O21 6544   4.325   5.334  10.138  0.3969  0.1620 -0.4556
   74SLPC   C21 6545   4.315   5.300  10.013 -0.6584 -0.5961 -0.4003
   74SLPC   O22 6546   4.236   5.354   9.937 -0.6857  0.3861  0.2986
   74SLPC   C22 6547   4.413   5.193   9.983 -0.2376  0.2095  0.7303
   74SLPC   H2R 6548   4.474   5.176  10.074  1.2142 -2.9120 -0.7401
   74SLPC   H2S 6549   4.358   5.098   9.964 -2.6133  0.8248  4.0646
   74SLPC    C3 6550   4.319   5.582  10.144  0.6846  0.5976 -0.6593
   74SLPC    HX 6551   4.411   5.581  10.206  0.6167  1.9514 -0.5256
   74SLPC    HY 6552   4.260   5.669  10.180  1.2784  1.0843 -0.8544
   74SLPC   O31 6553   4.364   5.594  10.008  0.4425  0.3496  0.2748
   74SLPC   C31 6554   4.271   5.652   9.929 -0.2901 -0.2112 -0.0084
   74SLPC   O32 6555   4.167   5.699   9.969 -0.3184  0.1301  0.3285
   74SLPC   C32 6556   4.311   5.625   9.781 -0.3853  0.0463  0.3047
   74SLPC   H2X 6557   4.226   5.666   9.721  0.3980 -0.2313 -1.0106
   74SLPC   H2Y 6558   4.315   5.514   9.771 -1.2383  0.1037 -0.9153
   74SLPC   C23 6559   4.514   5.227   9.868  0.0549 -0.0625  0.6636
   74SLPC   H3R 6560   4.596   5.153   9.881  1.7095  1.1974 -2.0437
   74SLPC   H3S 6561   4.542   5.335   9.876 -1.8779  0.4114  1.2889
   74SLPC   C24 6562   4.447   5.215   9.721  0.1887  0.4638 -0.5739
   74SLPC   H4R 6563   4.374   5.297   9.707 -0.1539  0.5040  1.3281
   74SLPC   H4S 6564   4.386   5.122   9.733  1.0292  0.0193  0.3788
   74SLPC   C25 6565   4.550   5.187   9.605 -0.5127  0.0228 -0.2031
   74SLPC   H5R 6566   4.619   5.101   9.612  0.5363  0.8098 -0.7779
   74SLPC   H5S 6567   4.619   5.274   9.606  2.7969 -2.5198 -0.6054
   74SLPC   C26 6568   4.471   5.175   9.477  0.7964 -0.2439 -0.6065
   74SLPC   H6R 6569   4.414   5.269   9.461 -0.1290 -1.0205 -1.9130
   74SLPC   H6S 6570   4.395   5.095   9.481 -0.0716  0.5914 -0.3876
   74SLPC   C27 6571   4.553   5.167   9.351  0.6004 -0.2141  0.1895
   74SLPC   H7R 6572   4.625   5.082   9.353  0.3027 -0.4824 -0.3328
   74SLPC   H7S 6573   4.610   5.262   9.338  1.8826 -0.9761  0.1572
   74SLPC   C28 6574   4.479   5.154   9.215  0.4777  0.0834 -0.1484
   74SLPC   H8R 6575   4.556   5.155   9.134 -1.2006  0.4910 -1.7729
   74SLPC   H8S 6576   4.430   5.251   9.193  0.0453 -0.4143 -1.4380
   74SLPC   C29 6577   4.383   5.045   9.198  0.0355 -0.3057 -0.9758
   74SLPC   H9R 6578   4.331   5.012   9.289  2.9259  0.5198  1.0449
   74SLPC  C210 6579   4.353   4.968   9.084 -0.5819  0.1032  0.5071
   74SLPC  H10R 6580   4.271   4.895   9.085 -0.8815  0.3400 -1.9737
   74SLPC  C211 6581   4.429   4.980   8.953  0.4387  0.2536 -0.5038
   74SLPC  H11R 6582   4.389   4.908   8.879  0.0286  0.8388 -0.8643
   74SLPC  H11S 6583   4.537   4.958   8.965  0.7970  1.3293 -1.5927
   74SLPC  C212 6584   4.427   5.126   8.904  0.3114 -0.4385 -0.0717
   74SLPC  H12R 6585   4.348   5.184   8.953  0.6058 -0.6946  0.7156
   74SLPC  C213 6586   4.506   5.190   8.815  0.9327 -0.1369 -0.7879
   74SLPC  H13R 6587   4.496   5.299   8.807 -1.0523 -0.1443  1.1616
   74SLPC  C214 6588   4.623   5.128   8.749 -0.1183  0.6477  0.6004
   74SLPC  H14R 6589   4.636   5.020   8.770  1.6142  1.3478  3.3167
   74SLPC  H14S 6590   4.713   5.167   8.800 -1.7154  2.1303  2.3585
   74SLPC  C215 6591   4.630   5.167   8.599  0.2747  0.6023  0.2207
   74SLPC  H15R 6592   4.622   5.278   8.594  1.6119  0.6259 -3.7524
   74SLPC  H15S 6593   4.548   5.121   8.540 -1.2121  2.0084  1.1516
   74SLPC  C216 6594   4.772   5.151   8.538  0.5999  0.4701  0.5395
   74SLPC  H16R 6595   4.800   5.044   8.545  1.8695  0.7930  0.5390
   74SLPC  H16S 6596   4.853   5.208   8.589  0.0798  1.6378  0.0941
   74SLPC  C217 6597   4.775   5.197   8.390 -1.1451  0.3080 -0.8734
   74SLPC  H17R 6598   4.745   5.304   8.383  1.3754  1.2034  1.2511
   74SLPC  H17S 6599   4.708   5.136   8.326  0.6880  0.1012 -2.6488
   74SLPC  C218 6600   4.916   5.183   8.338  0.3460 -0.1044 -0.2488
   74SLPC  H18R 6601   4.928   5.215   8.232  1.2636  0.1432 -0.0778
   74SLPC  H18S 6602   4.945   5.076   8.349 -0.4531 -0.3961 -0.9701
   74SLPC  H18T 6603   4.998   5.243   8.383 -0.0614  1.3506 -1.4109
   74SLPC   C33 6604   4.432   5.704   9.741 -0.2298 -0.7844  0.5551
   74SLPC   H3X 6605   4.526   5.654   9.774  1.0147  0.5730 -0.8578
   74SLPC   H3Y 6606   4.430   5.807   9.783 -2.5263  0.5049 -2.5320
   74SLPC   C34 6607   4.437   5.727   9.589  0.7575  0.4363 -0.2111
   74SLPC   H4X 6608   4.522   5.793   9.561  1.9589 -0.0595  2.1930
   74SLPC   H4Y 6609   4.345   5.786   9.567  0.0059 -1.2552 -1.7536
   74SLPC   C35 6610   4.440   5.601   9.498  0.0484 -0.0618  0.7275
   74SLPC   H5X 6611   4.343   5.548   9.510  0.1774 -0.8623 -1.5721
   74SLPC   H5Y 6612   4.511   5.525   9.536 -2.6689 -2.4621  1.1487
   74SLPC   C36 6613   4.481   5.617   9.351  1.0277 -0.0319  0.2115
   74SLPC   H6X 6614   4.440   5.718   9.326  1.7570  0.2262  0.0323
   74SLPC   H6Y 6615   4.430   5.530   9.305 -0.5711 -0.4172  2.6237
   74SLPC   C37 6616   4.633   5.612   9.321  0.1832  0.2706  0.6311
   74SLPC   H7X 6617   4.677   5.519   9.361  0.8795  0.5330  0.4868
   74SLPC   H7Y 6618   4.678   5.698   9.374  2.0073 -0.0313 -0.3868
   74SLPC   C38 6619   4.671   5.628   9.167 -0.1721 -0.1197 -0.9333
   74SLPC   H8X 6620   4.780   5.611   9.164 -0.2571 -0.5111 -2.0596
   74SLPC   H8Y 6621   4.658   5.734   9.136  0.0569  0.4996  1.0328
   74SLPC   C39 6622   4.611   5.525   9.069  0.1146 -0.7217 -0.5947
   74SLPC   H9X 6623   4.502   5.543   9.066  0.2298  0.6805  2.1218
   74SLPC   H9Y 6624   4.622   5.425   9.117 -0.1948 -1.5336 -2.1847
   74SLPC  C310 6625   4.678   5.528   8.932  0.2474  0.3442 -0.1163
   74SLPC  H10X 6626   4.619   5.467   8.860 -0.3012 -0.2699  0.8429
   74SLPC  H10Y 6627   4.775   5.473   8.928  0.3346  0.4832  0.0760
   74SLPC  C311 6628   4.704   5.663   8.870 -0.4818  0.2925  0.0588
   74SLPC  H11X 6629   4.762   5.734   8.933  1.3301 -2.3854  1.4950
   74SLPC  H11Y 6630   4.616   5.722   8.836  1.0410  2.6253  0.0186
   74SLPC  C312 6631   4.808   5.648   8.756 -0.9840  0.0269  0.0171
   74SLPC  H12X 6632   4.893   5.587   8.793 -1.1559  0.4783  1.1678
   74SLPC  H12Y 6633   4.849   5.747   8.727  0.5964 -1.0162 -1.3453
   74SLPC  C313 6634   4.750   5.578   8.634 -0.0669  0.5971  0.1853
   74SLPC  H13X 6635   4.728   5.469   8.644 -0.4389  0.8307  2.0285
   74SLPC  H13Y 6636   4.822   5.601   8.553 -0.9305  1.9182 -0.2273
   74SLPC  C314 6637   4.607   5.628   8.591  0.1611 -0.0882 -0.6560
   74SLPC  H14X 6638   4.606   5.739   8.596 -0.4867 -0.1874  2.3658
   74SLPC  H14Y 6639   4.531   5.597   8.665 -1.4601  1.3716 -1.6563
   74SLPC  C315 6640   4.558   5.581   8.457 -0.2295 -0.3281  0.1281
   74SLPC  H15X 6641   4.454   5.617   8.442 -0.0288 -0.2534 -1.0853
   74SLPC  H15Y 6642   4.557   5.470   8.449 -0.2281 -0.4130  1.2505
   74SLPC  C316 6643   4.634   5.639   8.337 -0.6129 -0.5072 -0.0319
   74SLPC  H16X 6644   4.736   5.596   8.342 -0.7643 -0.9706 -0.8170
   74SLPC  H16Y 6645   4.639   5.750   8.340 -1.5646 -0.3957 -1.5942
   74SLPC  C317 6646   4.574   5.604   8.200 -0.1700  0.2230  0.1190
   74SLPC  H17X 6647   4.480   5.660   8.181 -0.4144 -0.6295 -1.2589
   74SLPC  H17Y 6648   4.565   5.494   8.210  0.0647  0.1901 -0.0094
   74SLPC  C318 6649   4.668   5.638   8.084 -0.2104 -0.0344 -0.5254
   74SLPC  H18X 6650   4.638   5.589   7.989 -2.3591 -1.0774  0.6463
   74SLPC  H18Y 6651   4.772   5.610   8.110 -0.0959 -0.4024 -1.3721
   74SLPC  H18Z 6652   4.666   5.749   8.075 -1.7057  0.3832  3.6035
   75SLPC     N 6653   2.616   2.341   6.482 -0.0022  0.4062 -0.6792
   75SLPC   C13 6654   2.721   2.249   6.429 -0.0005 -0.6360 -0.5770
   75SLPC  H13A 6655   2.665   2.166   6.389 -1.7856  1.4186 -2.4753
   75SLPC  H13B 6656   2.771   2.292   6.344 -0.5009  0.9578 -0.0762
   75SLPC  H13C 6657   2.786   2.208   6.506  1.5043 -0.8811 -1.9543
   75SLPC   C14 6658   2.512   2.267   6.553 -0.0083  0.3319  0.5770
   75SLPC  H14A 6659   2.438   2.327   6.603  0.0115  2.7234 -2.0971
   75SLPC  H14B 6660   2.466   2.203   6.480 -0.5840  1.6602 -0.2469
   75SLPC  H14C 6661   2.555   2.188   6.612  0.5265 -1.1989 -1.7776
   75SLPC   C15 6662   2.557   2.408   6.363  0.0638 -0.6703 -0.1552
   75SLPC  H15A 6663   2.474   2.466   6.400  0.5213  0.5385 -1.0223
   75SLPC  H15B 6664   2.623   2.486   6.329 -0.0874 -1.1134 -1.5211
   75SLPC  H15C 6665   2.534   2.334   6.287  1.4995 -0.0949 -1.1838
   75SLPC   C12 6666   2.673   2.445   6.578  0.8200 -0.1619  0.3033
   75SLPC  H12A 6667   2.724   2.396   6.660 -2.0099  0.5527  2.5745
   75SLPC  H12B 6668   2.595   2.511   6.613 -1.0337 -1.0905 -1.9482
   75SLPC   C11 6669   2.793   2.534   6.526  0.5259 -0.3684 -0.3067
   75SLPC  H11A 6670   2.817   2.599   6.613  0.1395 -0.2506 -0.2823
   75SLPC  H11B 6671   2.747   2.604   6.452  0.4029 -0.5278 -0.3808
   75SLPC     P 6672   3.027   2.441   6.576  0.1357  0.1541  0.4555
   75SLPC   O13 6673   3.124   2.337   6.529 -0.3465  0.1989  0.5534
   75SLPC   O14 6674   3.087   2.575   6.589  0.2861  0.0389 -0.2559
   75SLPC   O12 6675   2.908   2.459   6.477  1.1076  0.1410 -0.5061
   75SLPC   O11 6676   2.962   2.382   6.706  1.0017 -0.2114 -0.6740
   75SLPC    C1 6677   3.043   2.394   6.832 -0.5271  0.4498  0.2165
   75SLPC    HA 6678   3.117   2.310   6.834 -2.1740 -1.0805 -1.1451
   75SLPC    HB 6679   3.107   2.485   6.832 -1.2580  0.9627  0.2745
   75SLPC    C2 6680   2.953   2.391   6.953  0.1216 -0.6343 -0.6207
   75SLPC    HS 6681   2.919   2.495   6.972  1.7718 -0.5378  2.0636
   75SLPC   O21 6682   3.023   2.338   7.068  0.2031 -0.1131  0.1789
   75SLPC   C21 6683   2.993   2.374   7.185 -0.3588 -0.1383  0.7458
   75SLPC   O22 6684   2.919   2.469   7.213  0.3596  0.1129 -0.6083
   75SLPC   C22 6685   3.061   2.289   7.283  0.0966  0.8097  0.0083
   75SLPC   H2R 6686   3.044   2.182   7.255  0.0548  0.8919 -0.2821
   75SLPC   H2S 6687   3.170   2.306   7.274  0.2876 -0.5860 -0.5199
   75SLPC    C3 6688   2.819   2.301   6.933 -0.0745 -0.6086 -0.3198
   75SLPC    HX 6689   2.849   2.194   6.931  0.6479 -0.4043 -0.2613
   75SLPC    HY 6690   2.763   2.309   6.837  0.1413 -0.4379 -0.4301
   75SLPC   O31 6691   2.714   2.318   7.040 -0.3795  0.4366  0.0049
   75SLPC   C31 6692   2.652   2.436   7.039 -0.3138 -0.2496  0.9532
   75SLPC   O32 6693   2.668   2.524   6.954  0.4500 -0.6389 -0.5933
   75SLPC   C32 6694   2.547   2.446   7.152 -0.4208 -0.0172 -0.8029
   75SLPC   H2X 6695   2.485   2.355   7.165  1.2289 -0.6619  3.0851
   75SLPC   H2Y 6696   2.475   2.521   7.114  0.6689  0.8254 -1.2534
   75SLPC   C23 6697   3.007   2.312   7.427 -0.3339 -0.2351  0.0193
   75SLPC   H3R 6698   2.897   2.293   7.431 -0.2541 -0.8580 -0.6659
   75SLPC   H3S 6699   3.014   2.422   7.444 -0.1332 -0.0271 -1.3290
   75SLPC   C24 6700   3.093   2.222   7.517  0.7541  0.3888 -0.5513
   75SLPC   H4R 6701   3.181   2.279   7.553  0.8944  0.0697 -0.3775
   75SLPC   H4S 6702   3.130   2.134   7.460 -0.8261 -1.8734  1.7780
   75SLPC   C25 6703   3.011   2.176   7.648 -0.1744  0.2114  0.6070
   75SLPC   H5R 6704   2.966   2.074   7.641  0.1185  0.1717 -0.9142
   75SLPC   H5S 6705   2.931   2.251   7.664 -0.5468 -0.3274  1.3217
   75SLPC   C26 6706   3.099   2.174   7.777 -0.1733 -0.9002 -0.4877
   75SLPC   H6R 6707   3.143   2.275   7.787 -2.2908 -0.3389  4.1251
   75SLPC   H6S 6708   3.185   2.105   7.765  0.1910 -0.6804  0.7726
   75SLPC   C27 6709   3.023   2.113   7.892 -0.1454 -0.3547 -0.2307
   75SLPC   H7R 6710   2.977   2.019   7.853  2.1465 -2.1040  1.1098
   75SLPC   H7S 6711   2.956   2.194   7.926 -0.2518 -1.0451  1.2196
   75SLPC   C28 6712   3.117   2.058   7.999  0.2261  0.7480  0.0628
   75SLPC   H8R 6713   3.169   2.139   8.054  0.2891  0.8986 -0.2143
   75SLPC   H8S 6714   3.196   1.998   7.949 -1.3166 -0.9381 -0.4424
   75SLPC   C29 6715   3.047   1.953   8.088 -0.6527 -0.5546 -0.5633
   75SLPC   H9R 6716   2.938   1.961   8.080 -0.8524 -1.2330  1.2432
   75SLPC  C210 6717   3.114   1.850   8.152  0.0646  1.0604  0.6895
   75SLPC  H10R 6718   3.057   1.782   8.217  0.8577  0.2988  0.5943
   75SLPC  C211 6719   3.261   1.825   8.144  0.4126 -0.2639  0.1015
   75SLPC  H11R 6720   3.318   1.920   8.132 -2.6021  1.2175 -3.7447
   75SLPC  H11S 6721   3.279   1.772   8.048 -0.7954 -1.2433  0.4030
   75SLPC  C212 6722   3.306   1.742   8.262 -0.2066  0.5600 -0.2507
   75SLPC  H12R 6723   3.337   1.798   8.351 -2.1820  1.0265  0.1882
   75SLPC  C213 6724   3.296   1.603   8.261 -0.6138 -0.1943  0.4409
   75SLPC  H13R 6725   3.334   1.546   8.347  2.8037  0.2744 -0.6698
   75SLPC  C214 6726   3.240   1.519   8.149 -0.6053 -0.4104 -0.5131
   75SLPC  H14R 6727   3.317   1.468   8.088  0.6468 -1.4939  1.8859
   75SLPC  H14S 6728   3.188   1.584   8.076 -1.8631 -0.8621 -0.0446
   75SLPC  C215 6729   3.147   1.409   8.200 -0.4361 -0.4072  0.7211
   75SLPC  H15R 6730   3.056   1.457   8.242  0.7170  1.7159  0.8718
   75SLPC  H15S 6731   3.201   1.349   8.276 -1.6420 -1.3612  0.8374
   75SLPC  C216 6732   3.122   1.312   8.082  0.2492  0.0125 -0.6888
   75SLPC  H16R 6733   3.205   1.239   8.079  1.2447  1.1615 -1.4565
   75SLPC  H16S 6734   3.131   1.376   7.991  1.1774 -1.5198 -1.6902
   75SLPC  C217 6735   2.991   1.240   8.086 -0.0091  0.9852 -0.5485
   75SLPC  H17R 6736   2.982   1.166   8.004 -1.0926  0.9302 -0.3861
   75SLPC  H17S 6737   2.912   1.313   8.062 -1.7591 -0.8178 -0.3857
   75SLPC  C218 6738   2.966   1.163   8.209 -0.1080  0.1419 -1.0900
   75SLPC  H18R 6739   2.993   1.222   8.299  0.3733  0.2884 -1.3333
   75SLPC  H18S 6740   3.011   1.061   8.202  0.8347  0.5591 -1.1745
   75SLPC  H18T 6741   2.855   1.161   8.219  0.1181  2.0279  2.9127
   75SLPC   C33 6742   2.608   2.489   7.287  0.3640 -0.0354 -0.4185
   75SLPC   H3X 6743   2.693   2.419   7.304  1.6082  1.4417 -0.4673
   75SLPC   H3Y 6744   2.653   2.587   7.261  0.1001  0.4512  0.9232
   75SLPC   C34 6745   2.503   2.492   7.403 -0.7225  0.0373  0.2501
   75SLPC   H4X 6746   2.448   2.395   7.407 -2.2850  0.8408 -0.9724
   75SLPC   H4Y 6747   2.432   2.574   7.376 -3.2055 -2.1471 -0.0572
   75SLPC   C35 6748   2.562   2.537   7.539 -0.2891  0.1693  0.3477
   75SLPC   H5X 6749   2.639   2.617   7.533  0.0623 -0.3731 -3.1235
   75SLPC   H5Y 6750   2.600   2.441   7.582  0.8980  0.9323  1.0298
   75SLPC   C36 6751   2.454   2.580   7.632 -0.2170  0.0109 -0.1208
   75SLPC   H6X 6752   2.366   2.517   7.658  0.1820  0.3074  2.0000
   75SLPC   H6Y 6753   2.420   2.684   7.612  1.1761  0.6216  0.6160
   75SLPC   C37 6754   2.525   2.603   7.771  0.0492  0.3574 -0.1990
   75SLPC   H7X 6755   2.597   2.687   7.759  2.4847 -1.5000  0.9205
   75SLPC   H7Y 6756   2.580   2.515   7.811 -1.7124 -1.0297 -0.7505
   75SLPC   C38 6757   2.430   2.640   7.883 -1.1737  0.2213  0.1481
   75SLPC   H8X 6758   2.369   2.550   7.907  3.2570 -2.6563  1.1815
   75SLPC   H8Y 6759   2.363   2.722   7.849 -0.1836  0.9405 -0.1092
   75SLPC   C39 6760   2.511   2.672   8.008 -0.0669 -0.4421  0.4040
   75SLPC   H9X 6761   2.596   2.733   7.969  0.8278 -1.2360  1.0853
   75SLPC   H9Y 6762   2.547   2.578   8.055 -1.8062 -2.3285 -1.9355
   75SLPC  C310 6763   2.433   2.760   8.108 -0.3222  0.0174  1.1134
   75SLPC  H10X 6764   2.345   2.702   8.144 -0.7461 -0.2016 -0.2293
   75SLPC  H10Y 6765   2.399   2.857   8.066 -1.9129  0.1758  2.7342
   75SLPC  C311 6766   2.522   2.806   8.223  0.2183  0.7502  0.8214
   75SLPC  H11X 6767   2.467   2.878   8.289  1.4906  3.0013 -0.5225
   75SLPC  H11Y 6768   2.608   2.865   8.185  1.3302 -1.3568  0.0002
   75SLPC  C312 6769   2.573   2.690   8.313 -0.2566  0.0972 -0.2985
   75SLPC  H12X 6770   2.635   2.613   8.262 -0.8366  0.6611 -1.8986
   75SLPC  H12Y 6771   2.493   2.634   8.365  2.3620 -1.5884  2.0813
   75SLPC  C313 6772   2.667   2.734   8.432 -0.3408  0.4674 -0.0411
   75SLPC  H13X 6773   2.677   2.655   8.510 -2.9027 -0.0358 -0.1731
   75SLPC  H13Y 6774   2.622   2.819   8.488 -3.1135  1.2168 -3.2458
   75SLPC  C314 6775   2.810   2.753   8.377  0.3564 -0.1381 -0.3105
   75SLPC  H14X 6776   2.812   2.747   8.266 -1.0927  1.4143 -0.4415
   75SLPC  H14Y 6777   2.861   2.659   8.408 -0.6198 -0.7816 -0.6403
   75SLPC  C315 6778   2.885   2.884   8.425  0.8654 -0.6125 -0.1432
   75SLPC  H15X 6779   2.881   2.867   8.534  1.0452 -0.8920 -0.1787
   75SLPC  H15Y 6780   2.834   2.981   8.411  0.1613 -0.8565  0.7341
   75SLPC  C316 6781   3.025   2.889   8.384  0.0037 -0.1538 -0.2019
   75SLPC  H16X 6782   3.031   2.971   8.309  0.0465 -0.1570 -0.2026
   75SLPC  H16Y 6783   3.073   2.804   8.332 -0.5269 -0.6890  0.1804
   75SLPC  C317 6784   3.119   2.941   8.496 -0.8203 -0.4253  0.6164
   75SLPC  H17X 6785   3.220   2.944   8.450  0.7844  0.0270  4.0379
   75SLPC  H17Y 6786   3.115   2.863   8.574 -0.4201 -0.4611  0.6024
   75SLPC  C318 6787   3.086   3.072   8.565  0.0392 -0.0373 -0.2464
   75SLPC  H18X 6788   3.058   3.154   8.496 -0.3224  0.6438  0.6953
   75SLPC  H18Y 6789   3.182   3.106   8.610  0.9385 -1.2754 -1.1854
   75SLPC  H18Z 6790   3.011   3.055   8.645 -2.8478  1.9629 -2.4270
   76SLPC     N 6791   3.984   0.553   6.023 -0.1208 -0.1439 -0.4910
   76SLPC   C13 6792   3.891   0.673   6.013 -0.8790  0.0762  0.9625
   76SLPC  H13A 6793   3.785   0.650   6.015 -1.0026  0.6350  0.8566
   76SLPC  H13B 6794   3.902   0.757   6.080 -1.2404  2.7165 -2.1383
   76SLPC  H13C 6795   3.899   0.717   5.915  0.5929 -0.9246  0.6299
   76SLPC   C14 6796   3.942   0.443   5.936 -0.0490 -0.2537  0.1353
   76SLPC  H14A 6797   3.883   0.478   5.853 -0.4416 -0.1381  0.4610
   76SLPC  H14B 6798   4.023   0.382   5.899 -0.1872  0.4959 -1.4671
   76SLPC  H14C 6799   3.876   0.386   6.000 -2.3899  2.1868  0.0039
   76SLPC   C15 6800   3.989   0.501   6.161  0.3525  0.1929 -0.7073
   76SLPC  H15A 6801   3.894   0.487   6.210  0.8812  1.0739  0.5921
   76SLPC  H15B 6802   4.050   0.413   6.170  0.3264  0.1889 -0.5717
   76SLPC  H15C 6803   4.040   0.573   6.223  1.9265 -0.3679 -1.3318
   76SLPC   C12 6804   4.118   0.603   5.978 -0.0392  0.0574 -0.3018
   76SLPC  H12A 6805   4.142   0.686   6.042 -0.1271  0.0338 -0.2379
   76SLPC  H12B 6806   4.115   0.648   5.880  0.7833  2.6630  0.8514
   76SLPC   C11 6807   4.256   0.518   5.977  0.1438 -0.4878 -0.4111
   76SLPC  H11A 6808   4.334   0.565   5.913  0.5213 -1.0585 -0.3698
   76SLPC  H11B 6809   4.225   0.424   5.926 -0.4078  0.4845 -1.9108
   76SLPC     P 6810   4.357   0.613   6.204  0.0139  0.4431 -0.0136
   76SLPC   O13 6811   4.488   0.640   6.152  0.3480 -0.1764 -0.3923
   76SLPC   O14 6812   4.256   0.720   6.206  0.0004 -0.3464  0.8140
   76SLPC   O12 6813   4.291   0.500   6.117  0.1513 -0.2287  1.1522
   76SLPC   O11 6814   4.374   0.547   6.348  0.1206 -0.2514 -0.1233
   76SLPC    C1 6815   4.288   0.443   6.398  0.0327 -1.1847  0.3111
   76SLPC    HA 6816   4.210   0.486   6.464  0.3943  0.9830 -0.6319
   76SLPC    HB 6817   4.244   0.385   6.314 -0.8092  1.4681 -1.1244
   76SLPC    C2 6818   4.357   0.332   6.491  0.2363  0.7577  0.5070
   76SLPC    HS 6819   4.281   0.265   6.538 -0.2398 -1.1256 -2.8084
   76SLPC   O21 6820   4.432   0.397   6.594  0.4617  0.3436 -0.0783
   76SLPC   C21 6821   4.361   0.450   6.690  0.7998 -0.1808 -0.3009
   76SLPC   O22 6822   4.239   0.443   6.706  0.2984 -0.3999 -0.0649
   76SLPC   C22 6823   4.442   0.521   6.789  0.6396 -0.6057  0.5966
   76SLPC   H2R 6824   4.499   0.602   6.737  0.8948 -0.9880  0.2826
   76SLPC   H2S 6825   4.366   0.570   6.854 -0.8432 -0.3849 -1.2563
   76SLPC    C3 6826   4.455   0.244   6.403 -0.7720  0.2482 -0.7428
   76SLPC    HX 6827   4.531   0.316   6.365  2.6443 -2.6947  0.2342
   76SLPC    HY 6828   4.388   0.208   6.322 -0.0464  0.2493 -1.3502
   76SLPC   O31 6829   4.505   0.133   6.474  0.3649  0.4614  0.1293
   76SLPC   C31 6830   4.627   0.147   6.522  0.3045 -0.2599  0.1335
   76SLPC   O32 6831   4.700   0.242   6.509  0.7194  0.5305 -0.2547
   76SLPC   C32 6832   4.654   0.025   6.606 -0.6080 -0.0909 -0.2519
   76SLPC   H2X 6833   4.736  -0.039   6.568  0.5800  1.0352  0.3709
   76SLPC   H2Y 6834   4.561  -0.034   6.624 -1.9115  1.3731 -1.9289
   76SLPC   C23 6835   4.547   0.436   6.868 -0.2727 -0.3068  0.0273
   76SLPC   H3R 6836   4.625   0.398   6.799 -0.1889 -1.2957  0.6612
   76SLPC   H3S 6837   4.502   0.346   6.915  0.4893  0.4363  2.2748
   76SLPC   C24 6838   4.621   0.518   6.976 -0.5078  0.7867  0.1872
   76SLPC   H4R 6839   4.705   0.566   6.923  1.1136  0.5150  2.4718
   76SLPC   H4S 6840   4.665   0.443   7.045  0.9870  0.6865 -0.8424
   76SLPC   C25 6841   4.524   0.608   7.051 -0.5146 -0.0849  0.8012
   76SLPC   H5R 6842   4.433   0.551   7.077 -2.8177  2.4704 -1.2916
   76SLPC   H5S 6843   4.501   0.684   6.973 -0.9927 -2.8474 -1.8063
   76SLPC   C26 6844   4.577   0.669   7.189 -0.2924 -0.2216  0.2483
   76SLPC   H6R 6845   4.667   0.730   7.164  0.2656 -1.2435 -0.2500
   76SLPC   H6S 6846   4.609   0.589   7.258  1.4000 -0.5963 -0.9136
   76SLPC   C27 6847   4.470   0.754   7.252 -0.2068 -0.3212 -0.5976
   76SLPC   H7R 6848   4.374   0.701   7.270 -0.1574 -0.6317 -1.2218
   76SLPC   H7S 6849   4.446   0.836   7.181  1.5207  0.4666 -0.3049
   76SLPC   C28 6850   4.523   0.811   7.386  0.0304  0.9290 -0.2643
   76SLPC   H8R 6851   4.558   0.729   7.452  0.9164  1.0456 -0.5747
   76SLPC   H8S 6852   4.612   0.868   7.350  0.7634 -1.1921 -1.9483
   76SLPC   C29 6853   4.416   0.885   7.463  0.0388  0.3253  0.3373
   76SLPC   H9R 6854   4.379   0.970   7.403  1.9682  0.5424 -0.5711
   76SLPC  C210 6855   4.358   0.859   7.577 -0.3941 -0.9071 -0.0073
   76SLPC  H10R 6856   4.276   0.924   7.608  0.2656  0.4096 -0.9606
   76SLPC  C211 6857   4.386   0.742   7.666  0.0495  0.3459  0.3679
   76SLPC  H11R 6858   4.405   0.789   7.765  0.2336  0.7030  0.1639
   76SLPC  H11S 6859   4.477   0.687   7.634 -0.3025  1.5229 -2.7868
   76SLPC  C212 6860   4.271   0.646   7.684  0.3447 -0.3757 -0.1103
   76SLPC  H12R 6861   4.218   0.620   7.591  0.3501  4.4400 -1.5748
   76SLPC  C213 6862   4.221   0.600   7.800  0.4363 -0.7915  0.0664
   76SLPC  H13R 6863   4.127   0.543   7.800 -0.9161  1.3312 -1.6315
   76SLPC  C214 6864   4.275   0.630   7.939  0.4986  0.0803 -0.4226
   76SLPC  H14R 6865   4.205   0.698   7.993 -0.7262 -1.9466  0.6230
   76SLPC  H14S 6866   4.375   0.679   7.941  0.4407  0.2371 -1.2283
   76SLPC  C215 6867   4.295   0.502   8.013 -0.5365  0.0153  0.6727
   76SLPC  H15R 6868   4.352   0.430   7.950  0.5897  2.4545 -1.2001
   76SLPC  H15S 6869   4.195   0.463   8.042 -0.4697 -0.7953 -0.1385
   76SLPC  C216 6870   4.391   0.521   8.136  0.8647 -0.3710 -0.5832
   76SLPC  H16R 6871   4.492   0.552   8.102  1.9084 -0.6032  2.1989
   76SLPC  H16S 6872   4.414   0.421   8.178  2.4253  1.7143  3.8196
   76SLPC  C217 6873   4.345   0.635   8.239 -0.7596  0.0555 -0.5443
   76SLPC  H17R 6874   4.242   0.603   8.266 -0.1149 -0.8105  0.9524
   76SLPC  H17S 6875   4.345   0.736   8.192  3.2804  1.1617  1.5896
   76SLPC  C218 6876   4.438   0.645   8.367 -0.0600  0.5061  0.1405
   76SLPC  H18R 6877   4.381   0.710   8.437 -1.3665  1.4560 -1.7513
   76SLPC  H18S 6878   4.534   0.683   8.327 -1.1633  0.6510 -2.4893
   76SLPC  H18T 6879   4.463   0.544   8.405  0.2810  0.8421  0.8149
   76SLPC   C33 6880   4.707   0.074   6.738  0.0060 -0.9000  0.0758
   76SLPC   H3X 6881   4.637   0.150   6.780  2.4641  0.3270  2.0883
   76SLPC   H3Y 6882   4.804   0.124   6.719 -1.8353  2.3808 -1.1183
   76SLPC   C34 6883   4.725  -0.037   6.837  0.3694  0.0611 -0.0706
   76SLPC   H4X 6884   4.779  -0.121   6.789  0.2845  0.6928 -1.3001
   76SLPC   H4Y 6885   4.636  -0.089   6.878  0.5194  1.1206  1.6266
   76SLPC   C35 6886   4.794   0.007   6.970  0.1112  0.4167  0.2566
   76SLPC   H5X 6887   4.896   0.041   6.945  1.4543 -3.2367  0.4808
   76SLPC   H5Y 6888   4.811  -0.080   7.037 -0.0659 -0.4529 -0.8175
   76SLPC   C36 6889   4.713   0.098   7.049 -0.8604  0.1730  0.1943
   76SLPC   H6X 6890   4.603   0.085   7.041 -0.5132 -1.6091 -1.9681
   76SLPC   H6Y 6891   4.728   0.197   7.002 -1.7228  0.3811  0.3525
   76SLPC   C37 6892   4.765   0.114   7.195  0.2872 -0.0269  0.7238
   76SLPC   H7X 6893   4.871   0.144   7.183 -0.3879  1.7566 -0.9993
   76SLPC   H7Y 6894   4.747   0.024   7.258 -1.2361  0.0747  0.4670
   76SLPC   C38 6895   4.679   0.227   7.261 -0.0158  0.6674  0.9471
   76SLPC   H8X 6896   4.570   0.212   7.248  0.0475 -0.1644  1.3133
   76SLPC   H8Y 6897   4.713   0.321   7.214  0.4429 -1.0730 -2.4215
   76SLPC   C39 6898   4.698   0.231   7.414 -0.4031  0.3418 -0.5080
   76SLPC   H9X 6899   4.805   0.209   7.435 -0.7654 -0.9085  0.1186
   76SLPC   H9Y 6900   4.624   0.154   7.446 -2.1967  2.8392  1.5605
   76SLPC  C310 6901   4.654   0.371   7.475  0.1444 -0.4034 -1.2600
   76SLPC  H10X 6902   4.545   0.388   7.462  0.0710 -0.7099 -1.0762
   76SLPC  H10Y 6903   4.707   0.444   7.410  3.1392 -2.9267 -1.7775
   76SLPC  C311 6904   4.670   0.384   7.623 -0.0331 -0.0051  0.1491
   76SLPC  H11X 6905   4.617   0.477   7.655  1.0048  0.3216  0.9545
   76SLPC  H11Y 6906   4.778   0.404   7.642  0.1429 -0.3197 -0.4832
   76SLPC  C312 6907   4.615   0.265   7.709 -0.2119  0.3141 -0.5812
   76SLPC  H12X 6908   4.673   0.173   7.687 -0.1837  0.6010 -1.7490
   76SLPC  H12Y 6909   4.509   0.238   7.689  0.3131 -1.3083 -1.2078
   76SLPC  C313 6910   4.618   0.310   7.858 -0.0705  0.4593 -0.0434
   76SLPC  H13X 6911   4.542   0.388   7.882 -0.7476 -0.6821  1.6241
   76SLPC  H13Y 6912   4.719   0.357   7.867  0.6821 -0.9380 -1.1002
   76SLPC  C314 6913   4.600   0.191   7.954 -0.0090  0.5900 -0.1136
   76SLPC  H14X 6914   4.675   0.114   7.924 -1.4945 -1.2314  0.7431
   76SLPC  H14Y 6915   4.505   0.134   7.942 -0.6262  1.9311 -1.8383
   76SLPC  C315 6916   4.599   0.214   8.105  0.0164  0.2842 -0.5476
   76SLPC  H15X 6917   4.496   0.244   8.133  1.1055  2.4224  1.4525
   76SLPC  H15Y 6918   4.674   0.291   8.134  0.1881 -0.6514  1.6081
   76SLPC  C316 6919   4.640   0.088   8.186  0.6942  0.5642  0.1108
   76SLPC  H16X 6920   4.750   0.079   8.173  1.0609 -0.4857  3.3616
   76SLPC  H16Y 6921   4.585  -0.001   8.149  0.3100  1.3620 -1.2818
   76SLPC  C317 6922   4.617   0.091   8.333 -0.4374  0.4608  0.1053
   76SLPC  H17X 6923   4.513   0.123   8.360  0.4272  3.5438 -0.0198
   76SLPC  H17Y 6924   4.680   0.169   8.382  1.8629 -0.6467 -1.0429
   76SLPC  C318 6925   4.666  -0.040   8.402  0.0286  0.1382 -0.6935
   76SLPC  H18X 6926   4.600  -0.123   8.369  0.3066 -0.1336 -0.5710
   76SLPC  H18Y 6927   4.649  -0.034   8.512 -0.7980 -1.4988 -0.7248
   76SLPC  H18Z 6928   4.772  -0.061   8.377  0.1744 -0.4014  0.3320
   77SLPC     N 6929   0.497   0.134   6.174 -0.3330 -0.4152 -0.1508
   77SLPC   C13 6930   0.442   0.093   6.043  0.2524 -0.2600  0.0417
   77SLPC  H13A 6931   0.487   0.130   5.952 -1.3663  0.5177 -0.4691
   77SLPC  H13B 6932   0.432  -0.014   6.037 -0.6338 -0.1829  0.0997
   77SLPC  H13C 6933   0.346   0.141   6.033  0.6944  1.4394  3.1631
   77SLPC   C14 6934   0.501   0.284   6.195 -0.1823 -0.5080 -0.0881
   77SLPC  H14A 6935   0.570   0.312   6.273 -0.7209  0.0467  0.1955
   77SLPC  H14B 6936   0.544   0.323   6.104  0.0057  0.7815  0.5492
   77SLPC  H14C 6937   0.405   0.324   6.226 -0.1463 -1.0355  0.7394
   77SLPC   C15 6938   0.628   0.078   6.195 -0.2152  0.0748 -0.0620
   77SLPC  H15A 6939   0.645  -0.028   6.190  2.3742  0.5011 -1.3537
   77SLPC  H15B 6940   0.701   0.119   6.127 -0.5214 -0.4936 -0.7301
   77SLPC  H15C 6941   0.656   0.101   6.297 -0.8168 -1.0123  0.3585
   77SLPC   C12 6942   0.413   0.086   6.287  0.5403 -0.8292 -0.5806
   77SLPC  H12A 6943   0.458   0.118   6.380 -0.5065 -1.8029  0.2825
   77SLPC  H12B 6944   0.410  -0.021   6.278 -1.1717 -0.8656  0.1697
   77SLPC   C11 6945   0.266   0.119   6.295 -0.6176  0.2681  0.0833
   77SLPC  H11A 6946   0.226   0.068   6.385  1.0978  0.4824  1.0025
   77SLPC  H11B 6947   0.211   0.081   6.207 -3.6767  0.4883  1.8151
   77SLPC     P 6948   0.247   0.337   6.446 -0.2720 -0.0710  0.8929
   77SLPC   O13 6949   0.389   0.333   6.493 -0.3290 -0.4958 -0.5093
   77SLPC   O14 6950   0.177   0.468   6.431  0.1293 -0.0876 -0.1964
   77SLPC   O12 6951   0.236   0.262   6.304 -0.2242 -0.3640 -0.0196
   77SLPC   O11 6952   0.167   0.234   6.534 -0.0850  0.2555 -0.5363
   77SLPC    C1 6953   0.235   0.165   6.647  0.5655 -0.5288  0.2652
   77SLPC    HA 6954   0.190   0.066   6.669 -1.6548  0.1623 -1.0345
   77SLPC    HB 6955   0.339   0.135   6.622  0.5399  0.8572 -1.6239
   77SLPC    C2 6956   0.229   0.256   6.767 -0.1177  0.1790  0.3835
   77SLPC    HS 6957   0.296   0.343   6.746 -2.6093  1.9154 -0.6239
   77SLPC   O21 6958   0.258   0.183   6.890 -0.0498 -0.3657 -0.0851
   77SLPC   C21 6959   0.394   0.179   6.906  0.8908 -0.3166  0.5215
   77SLPC   O22 6960   0.472   0.239   6.836  0.1092 -0.8219 -0.4156
   77SLPC   C22 6961   0.438   0.106   7.036 -0.2253  0.3822 -0.2231
   77SLPC   H2R 6962   0.441   0.180   7.119  1.1745 -0.8172  0.8085
   77SLPC   H2S 6963   0.360   0.030   7.056  0.2886 -0.0732  0.0417
   77SLPC    C3 6964   0.093   0.325   6.779 -0.3476 -0.2266  1.1705
   77SLPC    HX 6965   0.019   0.248   6.810  1.7634 -2.1477  1.5542
   77SLPC    HY 6966   0.060   0.376   6.686 -2.0592 -2.1925  0.6665
   77SLPC   O31 6967   0.100   0.424   6.882 -0.0823  0.8275 -0.6525
   77SLPC   C31 6968   0.157   0.534   6.854  0.0761 -0.3610  0.4382
   77SLPC   O32 6969   0.192   0.573   6.741 -0.0688  0.2127  0.2792
   77SLPC   C32 6970   0.190   0.612   6.980 -0.6719  0.3111  0.0110
   77SLPC   H2X 6971   0.099   0.654   7.028 -0.3717 -1.6460  2.3861
   77SLPC   H2Y 6972   0.259   0.691   6.944 -2.1963  1.7745  0.2018
   77SLPC   C23 6973   0.573   0.054   7.012  0.1485 -0.1706  0.3265
   77SLPC   H3R 6974   0.649   0.129   6.979  0.6666 -0.6972  0.3071
   77SLPC   H3S 6975   0.574  -0.020   6.929  0.1927 -0.5792  0.6924
   77SLPC   C24 6976   0.612  -0.027   7.129 -0.2969  0.3940 -0.5953
   77SLPC   H4R 6977   0.560  -0.125   7.127  0.8145 -0.1712 -2.7826
   77SLPC   H4S 6978   0.595   0.027   7.225  1.4434 -0.7842  0.4048
   77SLPC   C25 6979   0.760  -0.050   7.129 -0.0784 -0.1445  0.1765
   77SLPC   H5R 6980   0.810   0.045   7.100  2.1462 -1.5896 -0.8379
   77SLPC   H5S 6981   0.790  -0.123   7.052  0.2032  0.0220  0.1306
   77SLPC   C26 6982   0.817  -0.109   7.254 -0.0510 -0.3364 -0.2574
   77SLPC   H6R 6983   0.791  -0.052   7.346  1.2612 -0.1106 -0.0206
   77SLPC   H6S 6984   0.928  -0.109   7.252 -0.0593 -0.4867 -3.3147
   77SLPC   C27 6985   0.768  -0.251   7.273  0.7116  0.2691 -0.2951
   77SLPC   H7R 6986   0.784  -0.308   7.180 -1.4005 -2.0066  0.6880
   77SLPC   H7S 6987   0.657  -0.264   7.279  0.7383  0.4424  0.7752
   77SLPC   C28 6988   0.830  -0.333   7.387 -0.1708 -0.0828  0.0869
   77SLPC   H8R 6989   0.941  -0.323   7.387 -0.2882  1.5674  1.6659
   77SLPC   H8S 6990   0.799  -0.439   7.378  0.9480 -0.3525 -0.7842
   77SLPC   C29 6991   0.775  -0.284   7.517  0.6072  0.2416  0.9636
   77SLPC   H9R 6992   0.706  -0.199   7.516  0.6825  0.3464 -2.3781
   77SLPC  C210 6993   0.834  -0.310   7.644 -0.5105 -0.8585 -0.3426
   77SLPC  H10R 6994   0.789  -0.270   7.736  2.6524  0.9575  0.4895
   77SLPC  C211 6995   0.952  -0.408   7.662  0.6559 -0.7126  0.7554
   77SLPC  H11R 6996   1.026  -0.339   7.708  0.8400 -0.0841 -0.4521
   77SLPC  H11S 6997   0.992  -0.445   7.565 -1.5416 -1.3968  0.0834
   77SLPC  C212 6998   0.925  -0.533   7.742  0.0937 -0.1815 -0.2767
   77SLPC  H12R 6999   0.933  -0.624   7.681  0.0302  0.0444 -0.6225
   77SLPC  C213 7000   0.900  -0.532   7.877 -1.1254 -0.2276  0.2336
   77SLPC  H13R 7001   0.879  -0.628   7.927 -0.1648 -0.4377  0.2231
   77SLPC  C214 7002   0.893  -0.412   7.962  0.3600 -0.7744 -0.0483
   77SLPC  H14R 7003   0.797  -0.424   8.018  1.9649 -1.2716  2.6895
   77SLPC  H14S 7004   0.882  -0.315   7.908 -1.6585 -0.3070  1.1397
   77SLPC  C215 7005   1.008  -0.389   8.060 -0.2249 -0.2994  0.4224
   77SLPC  H15R 7006   1.090  -0.380   7.986 -1.6181 -2.1266 -1.4132
   77SLPC  H15S 7007   1.045  -0.472   8.123 -0.0907  0.6526  1.6234
   77SLPC  C216 7008   0.997  -0.256   8.144  0.4849  0.8850 -0.6944
   77SLPC  H16R 7009   0.915  -0.278   8.215  1.5506 -0.4665  0.1595
   77SLPC  H16S 7010   0.973  -0.181   8.066  1.9845  0.7053 -1.3418
   77SLPC  C217 7011   1.127  -0.220   8.224  0.0944 -0.1236  0.7830
   77SLPC  H17R 7012   1.119  -0.111   8.244  1.5982  0.0822  0.3153
   77SLPC  H17S 7013   1.215  -0.230   8.157 -0.2202 -0.4881  0.4238
   77SLPC  C218 7014   1.153  -0.299   8.352 -0.6564  0.3915 -0.4852
   77SLPC  H18R 7015   1.148  -0.409   8.339  2.2612  0.1454  0.1811
   77SLPC  H18S 7016   1.061  -0.289   8.412 -0.0560 -2.6697  1.0702
   77SLPC  H18T 7017   1.237  -0.264   8.416 -0.6152 -3.7091  1.9127
   77SLPC   C33 7018   0.266   0.528   7.083 -0.0093 -0.4791  0.4886
   77SLPC   H3X 7019   0.360   0.495   7.033 -1.1146 -2.1216 -0.5704
   77SLPC   H3Y 7020   0.207   0.440   7.114  0.5070 -0.2852  2.0611
   77SLPC   C34 7021   0.301   0.622   7.200  0.0907  0.3414 -0.1808
   77SLPC   H4X 7022   0.211   0.666   7.249 -0.4751 -1.1295  0.1431
   77SLPC   H4Y 7023   0.359   0.710   7.165  0.1917  1.0486  1.7519
   77SLPC   C35 7024   0.391   0.567   7.308  0.1859 -0.5810  0.1983
   77SLPC   H5X 7025   0.422   0.651   7.375 -0.7831 -0.8707  1.0152
   77SLPC   H5Y 7026   0.485   0.533   7.259 -0.1351 -1.0198 -0.1046
   77SLPC   C36 7027   0.334   0.456   7.395 -0.1037 -0.5637  0.0118
   77SLPC   H6X 7028   0.410   0.427   7.471 -1.1490  0.1917  1.3603
   77SLPC   H6Y 7029   0.311   0.371   7.327 -2.6238 -0.7654  1.0598
   77SLPC   C37 7030   0.196   0.495   7.463  1.0439 -0.3705 -0.3067
   77SLPC   H7X 7031   0.118   0.508   7.385  0.9927  1.0377 -0.0342
   77SLPC   H7Y 7032   0.204   0.590   7.519 -0.1428  0.2633 -1.1929
   77SLPC   C38 7033   0.169   0.392   7.574  0.6690 -0.5648 -0.0786
   77SLPC   H8X 7034   0.253   0.363   7.641 -0.2067 -1.4087  0.6652
   77SLPC   H8Y 7035   0.139   0.300   7.519  2.7747 -0.4798 -1.4398
   77SLPC   C39 7036   0.052   0.429   7.671 -0.4349  1.0088  0.0550
   77SLPC   H9X 7037  -0.037   0.445   7.605 -1.2480 -0.7455  0.6743
   77SLPC   H9Y 7038   0.075   0.527   7.716  0.3902  0.6852  0.3487
   77SLPC  C310 7039   0.019   0.318   7.775 -0.2571 -0.4378 -0.5414
   77SLPC  H10X 7040   0.109   0.297   7.837 -0.8272 -1.8904 -0.1894
   77SLPC  H10Y 7041   0.008   0.230   7.709 -1.1577  0.2711 -1.3629
   77SLPC  C311 7042  -0.108   0.346   7.853  0.4589 -0.0478  0.7993
   77SLPC  H11X 7043  -0.143   0.260   7.914 -0.4536  0.0558  0.4190
   77SLPC  H11Y 7044  -0.178   0.368   7.771  1.5360  0.0203 -0.1145
   77SLPC  C312 7045  -0.081   0.453   7.962  0.5267  0.3692  0.8933
   77SLPC  H12X 7046  -0.047   0.547   7.915 -0.1677  0.4490  0.5501
   77SLPC  H12Y 7047   0.012   0.419   8.014  0.9876  1.2247  0.6344
   77SLPC  C313 7048  -0.198   0.461   8.066  0.2072 -0.0233 -0.8135
   77SLPC  H13X 7049  -0.298   0.471   8.021  0.2302  1.5821 -0.5113
   77SLPC  H13Y 7050  -0.171   0.545   8.134  0.1953 -0.3998 -0.3365
   77SLPC  C314 7051  -0.206   0.336   8.151  0.5545  0.3794  0.0416
   77SLPC  H14X 7052  -0.111   0.323   8.208 -0.3659  1.1493  1.7949
   77SLPC  H14Y 7053  -0.209   0.241   8.093 -0.4600  0.3600  0.1274
   77SLPC  C315 7054  -0.314   0.342   8.256  0.4656  0.1277  0.1301
   77SLPC  H15X 7055  -0.410   0.359   8.201  0.5868  2.1974  0.4974
   77SLPC  H15Y 7056  -0.295   0.436   8.313  0.7073 -0.6042  1.2645
   77SLPC  C316 7057  -0.316   0.235   8.370  0.1966  0.0346  0.5310
   77SLPC  H16X 7058  -0.404   0.254   8.435 -0.5449 -3.3810  0.6450
   77SLPC  H16Y 7059  -0.222   0.243   8.429  1.2703 -1.7699 -0.8813
   77SLPC  C317 7060  -0.339   0.088   8.310 -0.0631 -0.3729 -0.1491
   77SLPC  H17X 7061  -0.249   0.061   8.251 -1.2318 -1.2711 -1.5325
   77SLPC  H17Y 7062  -0.421   0.099   8.237 -3.2366 -1.3907  3.0983
   77SLPC  C318 7063  -0.371  -0.025   8.414  0.0493 -1.2125 -0.4043
   77SLPC  H18X 7064  -0.276  -0.065   8.456 -0.3918 -0.2285  1.5793
   77SLPC  H18Y 7065  -0.434  -0.110   8.380  0.2972 -2.2384  1.6308
   77SLPC  H18Z 7066  -0.435   0.019   8.494 -1.7938  0.5251 -2.7654
   78SLPC     N 7067   3.493   1.224   6.145  0.4815  0.6034  0.1318
   78SLPC   C13 7068   3.376   1.185   6.061 -0.0553 -0.6538  0.8663
   78SLPC  H13A 7069   3.300   1.262   6.067  0.6476  0.1412 -0.1953
   78SLPC  H13B 7070   3.401   1.169   5.957 -2.2676  1.0466  0.0318
   78SLPC  H13C 7071   3.329   1.094   6.096 -0.6192 -0.2666  1.1308
   78SLPC   C14 7072   3.540   1.362   6.113  0.5873  0.1885  0.0927
   78SLPC  H14A 7073   3.637   1.376   6.160 -0.0909  1.3208  1.2001
   78SLPC  H14B 7074   3.554   1.373   6.007  0.6126  0.3260  0.1105
   78SLPC  H14C 7075   3.468   1.434   6.149 -0.1845  0.1952 -1.4116
   78SLPC   C15 7076   3.600   1.131   6.116  0.2397 -0.6810 -0.6145
   78SLPC  H15A 7077   3.638   1.160   6.019 -0.4351  1.5424 -0.2535
   78SLPC  H15B 7078   3.680   1.147   6.187 -1.9161  0.4783  1.6597
   78SLPC  H15C 7079   3.575   1.027   6.121 -0.4072 -0.4623  0.9040
   78SLPC   C12 7080   3.458   1.204   6.293  0.0628 -0.2208  0.5431
   78SLPC  H12A 7081   3.381   1.278   6.311  0.0551  0.4727 -2.0484
   78SLPC  H12B 7082   3.545   1.235   6.350 -0.3967 -1.2979  1.8458
   78SLPC   C11 7083   3.416   1.067   6.335 -0.1579  0.1341 -0.4102
   78SLPC  H11A 7084   3.411   1.085   6.444 -0.8862 -0.6142 -0.3160
   78SLPC  H11B 7085   3.486   0.987   6.306 -1.0041 -1.2904  1.4214
   78SLPC     P 7086   3.181   0.975   6.368 -0.5969  0.1078  0.0482
   78SLPC   O13 7087   3.125   1.085   6.443 -0.7194 -0.8843  0.0924
   78SLPC   O14 7088   3.087   0.902   6.285  0.0695  0.8247  0.7600
   78SLPC   O12 7089   3.288   1.044   6.284 -0.5999  0.4009  0.1575
   78SLPC   O11 7090   3.269   0.884   6.470  0.0147 -0.0805  0.3256
   78SLPC    C1 7091   3.210   0.786   6.552  0.7102 -1.4012 -0.0390
   78SLPC    HA 7092   3.153   0.713   6.491  0.9077 -0.5110 -1.3017
   78SLPC    HB 7093   3.291   0.739   6.611  1.1675  0.6568  1.0250
   78SLPC    C2 7094   3.120   0.845   6.667 -0.3033  0.2041 -0.5749
   78SLPC    HS 7095   3.040   0.905   6.619 -0.0481  2.2665  1.5108
   78SLPC   O21 7096   3.199   0.923   6.754  0.0823  0.9693  0.2984
   78SLPC   C21 7097   3.142   1.012   6.822 -0.0899 -0.0323 -0.0719
   78SLPC   O22 7098   3.028   1.060   6.806 -0.2969  0.0691  0.2942
   78SLPC   C22 7099   3.226   1.050   6.943 -0.6074  0.2158  0.4638
   78SLPC   H2R 7100   3.261   0.956   6.989 -1.1116 -0.7288 -1.0122
   78SLPC   H2S 7101   3.308   1.117   6.911 -0.5158  0.4548  1.2021
   78SLPC    C3 7102   3.042   0.734   6.756  0.8275  0.3797  0.3186
   78SLPC    HX 7103   3.123   0.677   6.806  0.0916 -0.1743  0.8930
   78SLPC    HY 7104   2.988   0.656   6.698 -1.4336  2.7599 -0.8918
   78SLPC   O31 7105   2.959   0.794   6.860 -0.1718 -0.4216 -0.7535
   78SLPC   C31 7106   2.833   0.803   6.831 -0.2593  0.7423  0.0837
   78SLPC   O32 7107   2.773   0.764   6.729  0.0100 -0.0255 -0.1594
   78SLPC   C32 7108   2.761   0.873   6.954  0.2392  0.0778 -1.3212
   78SLPC   H2X 7109   2.661   0.901   6.914  0.3313  0.5845 -1.1981
   78SLPC   H2Y 7110   2.811   0.968   6.982 -1.0380 -0.2935  2.3842
   78SLPC   C23 7111   3.141   1.137   7.043 -0.9585  0.0047  0.3381
   78SLPC   H3R 7112   3.052   1.185   6.997 -1.1485 -4.2775 -4.2309
   78SLPC   H3S 7113   3.209   1.219   7.077  2.9596 -2.4125 -1.3044
   78SLPC   C24 7114   3.086   1.075   7.174 -0.4681  0.4531 -0.1468
   78SLPC   H4R 7115   3.158   1.000   7.215  0.4341  0.3181 -1.9202
   78SLPC   H4S 7116   2.995   1.017   7.145 -1.0817  1.5689 -0.4659
   78SLPC   C25 7117   3.037   1.169   7.282  0.3488  0.7202  0.2639
   78SLPC   H5R 7118   2.967   1.245   7.241 -0.1995  0.0177 -0.1145
   78SLPC   H5S 7119   3.129   1.225   7.306  0.8841 -1.0554  2.5735
   78SLPC   C26 7120   2.988   1.103   7.404 -0.0861  0.1504  0.2800
   78SLPC   H6R 7121   3.063   1.032   7.446 -0.0567  0.1371  0.2057
   78SLPC   H6S 7122   2.900   1.040   7.380  0.3633 -0.5887  0.5487
   78SLPC   C27 7123   2.957   1.205   7.514  0.0248 -0.6186  0.3927
   78SLPC   H7R 7124   2.902   1.294   7.476  0.2313 -0.3476  0.7289
   78SLPC   H7S 7125   3.055   1.247   7.544 -0.7663  0.0765  2.1186
   78SLPC   C28 7126   2.883   1.149   7.640 -0.3329  0.2987  0.1559
   78SLPC   H8R 7127   2.788   1.100   7.609 -0.7382 -0.6338  2.7858
   78SLPC   H8S 7128   2.864   1.244   7.695  0.5338  1.3584 -1.3170
   78SLPC   C29 7129   2.977   1.055   7.710 -0.0713 -0.0363  0.3444
   78SLPC   H9R 7130   3.082   1.072   7.681 -0.3592 -0.7919 -1.1640
   78SLPC  C210 7131   2.941   0.956   7.797  0.1724 -0.2125 -0.3138
   78SLPC  H10R 7132   3.022   0.916   7.860 -0.2557 -0.9480 -0.2291
   78SLPC  C211 7133   2.803   0.928   7.848  0.3091 -0.8889  0.3572
   78SLPC  H11R 7134   2.736   0.960   7.765  0.3650 -0.0336  0.6365
   78SLPC  H11S 7135   2.793   1.000   7.932  0.4362  0.8139 -1.0473
   78SLPC  C212 7136   2.792   0.781   7.884  0.2300  0.0516 -0.0647
   78SLPC  H12R 7137   2.865   0.709   7.845 -3.3044 -3.2419 -1.0096
   78SLPC  C213 7138   2.693   0.731   7.967 -0.6807 -0.2282  0.3531
   78SLPC  H13R 7139   2.675   0.624   7.985 -2.1073  0.2136  1.6608
   78SLPC  C214 7140   2.579   0.812   8.026  0.4543  0.1198 -0.8153
   78SLPC  H14R 7141   2.481   0.784   7.982 -0.4167  2.8671 -0.7469
   78SLPC  H14S 7142   2.590   0.919   7.997  1.7545 -0.3097 -1.9596
   78SLPC  C215 7143   2.576   0.812   8.178  0.5818  0.1269  0.3165
   78SLPC  H15R 7144   2.561   0.711   8.222 -0.2714 -0.0738 -0.4331
   78SLPC  H15S 7145   2.489   0.866   8.222 -0.1611  0.1100 -1.1254
   78SLPC  C216 7146   2.691   0.889   8.252  0.3409  0.1696 -0.9950
   78SLPC  H16R 7147   2.674   0.984   8.197  0.1474 -0.5131 -2.1187
   78SLPC  H16S 7148   2.791   0.844   8.234 -0.5366 -3.6368  2.7462
   78SLPC  C217 7149   2.671   0.894   8.404 -0.8277 -0.0636 -0.3476
   78SLPC  H17R 7150   2.677   0.794   8.452  0.5203 -0.3351 -1.0719
   78SLPC  H17S 7151   2.563   0.920   8.416 -0.0767  1.7534  3.3382
   78SLPC  C218 7152   2.752   0.996   8.491  0.4472  0.1027 -0.5658
   78SLPC  H18R 7153   2.859   0.969   8.505  0.4738 -0.7071 -2.2497
   78SLPC  H18S 7154   2.705   1.001   8.592 -0.1296 -0.3991 -0.8062
   78SLPC  H18T 7155   2.732   1.101   8.461 -0.2851  0.8831  2.3918
   78SLPC   C33 7156   2.751   0.786   7.080 -0.9612  0.3676  0.2753
   78SLPC   H3X 7157   2.842   0.725   7.099 -0.1791  1.4674  0.1053
   78SLPC   H3Y 7158   2.674   0.713   7.046 -2.4094  1.4238  1.2262
   78SLPC   C34 7159   2.717   0.874   7.197  0.1147 -0.6040 -0.7699
   78SLPC   H4X 7160   2.621   0.927   7.178  0.1494  0.3290  1.5479
   78SLPC   H4Y 7161   2.797   0.950   7.205  0.0374 -0.5646 -0.3565
   78SLPC   C35 7162   2.719   0.809   7.335 -0.4575 -0.1590  0.4555
   78SLPC   H5X 7163   2.827   0.794   7.359 -0.7320  1.0548  2.5398
   78SLPC   H5Y 7164   2.670   0.709   7.339  0.8529 -0.8577 -0.4682
   78SLPC   C36 7165   2.668   0.891   7.455  0.6223 -0.0536 -0.4324
   78SLPC   H6X 7166   2.670   1.002   7.443 -1.0113 -0.1696 -2.0255
   78SLPC   H6Y 7167   2.725   0.868   7.547 -1.1014  1.2342  0.9847
   78SLPC   C37 7168   2.522   0.861   7.477  0.4065 -0.4244 -0.4532
   78SLPC   H7X 7169   2.509   0.751   7.487  3.0344 -0.5447  2.3922
   78SLPC   H7Y 7170   2.465   0.886   7.385 -1.4338 -0.2510  0.7327
   78SLPC   C38 7171   2.470   0.938   7.596  0.2115  0.1242  0.0242
   78SLPC   H8X 7172   2.489   1.046   7.582  3.3919 -0.3500  0.2229
   78SLPC   H8Y 7173   2.522   0.887   7.680 -1.2153 -3.5941 -1.2411
   78SLPC   C39 7174   2.329   0.909   7.644 -0.2030 -0.1106  0.1623
   78SLPC   H9X 7175   2.314   0.935   7.751 -1.5606  1.3888 -0.3757
   78SLPC   H9Y 7176   2.308   0.801   7.633 -1.5881  0.3544 -2.2336
   78SLPC  C310 7177   2.224   0.987   7.568 -0.2393 -0.7306  0.0897
   78SLPC  H10X 7178   2.218   0.959   7.460  0.1108 -2.5044  0.5162
   78SLPC  H10Y 7179   2.233   1.097   7.580  0.0720 -0.8697  1.1207
   78SLPC  C311 7180   2.077   0.957   7.611  0.3257  0.5624 -0.5838
   78SLPC  H11X 7181   2.079   0.978   7.720  0.8218  1.4010 -0.7528
   78SLPC  H11Y 7182   2.051   0.850   7.598  4.2651 -0.6216  0.6079
   78SLPC  C312 7183   1.968   1.048   7.548  0.3213 -0.4189  0.6635
   78SLPC  H12X 7184   1.952   1.012   7.445  0.7063 -0.8135  0.7419
   78SLPC  H12Y 7185   2.006   1.152   7.557  1.4046 -0.5331 -2.2456
   78SLPC  C313 7186   1.827   1.023   7.613 -0.3833  1.0221 -0.2007
   78SLPC  H13X 7187   1.805   0.916   7.593  0.8462  0.9625 -1.3010
   78SLPC  H13Y 7188   1.750   1.078   7.556 -0.7986 -0.7280 -1.3501
   78SLPC  C314 7189   1.822   1.067   7.759 -0.3571 -0.1146 -0.1669
   78SLPC  H14X 7190   1.882   0.998   7.823  3.1424  3.4455  0.5684
   78SLPC  H14Y 7191   1.715   1.057   7.789 -0.6306  1.0153 -0.7614
   78SLPC  C315 7192   1.871   1.212   7.776  0.2104  0.2660 -0.8790
   78SLPC  H15X 7193   1.835   1.267   7.686 -0.9861  0.0805 -0.5258
   78SLPC  H15Y 7194   1.982   1.210   7.775  0.2040 -2.0008 -0.1289
   78SLPC  C316 7195   1.827   1.284   7.904 -0.1359  0.5545 -0.1465
   78SLPC  H16X 7196   1.867   1.229   7.992  1.4709  2.7142  0.5248
   78SLPC  H16Y 7197   1.717   1.270   7.906  0.0800 -1.4848 -1.2458
   78SLPC  C317 7198   1.862   1.428   7.888 -0.3964 -0.6484  0.1269
   78SLPC  H17X 7199   1.802   1.466   7.803  0.8904 -1.1461 -1.0214
   78SLPC  H17Y 7200   1.971   1.432   7.866 -0.4312 -1.1413 -0.1230
   78SLPC  C318 7201   1.827   1.523   8.010 -0.0307 -0.0635  0.1263
   78SLPC  H18X 7202   1.834   1.632   7.994  0.0328  0.0981  1.2035
   78SLPC  H18Y 7203   1.887   1.508   8.102 -0.2405  1.7067  0.5680
   78SLPC  H18Z 7204   1.722   1.504   8.043  0.8817 -1.3170  2.4868
   79SLPC     N 7205   6.667   3.203   5.980 -0.0256 -0.5337 -0.2417
   79SLPC   C13 7206   6.597   3.210   5.844  0.0571 -0.2132 -0.0305
   79SLPC  H13A 7207   6.639   3.282   5.775  1.9206 -2.4234 -1.2716
   79SLPC  H13B 7208   6.596   3.114   5.795 -0.3505  0.9332 -2.3536
   79SLPC  H13C 7209   6.493   3.241   5.852  0.2620  0.2473  0.9023
   79SLPC   C14 7210   6.805   3.155   5.958  0.3013  0.1135  0.0752
   79SLPC  H14A 7211   6.850   3.215   5.880 -0.1689  1.1004  0.5508
   79SLPC  H14B 7212   6.864   3.151   6.048  0.0272  0.6362  0.2793
   79SLPC  H14C 7213   6.792   3.057   5.914 -1.7689  0.2329  0.3689
   79SLPC   C15 7214   6.588   3.110   6.069  1.0544  0.3135 -0.8392
   79SLPC  H15A 7215   6.591   3.009   6.033  0.9278 -0.1639  0.4464
   79SLPC  H15B 7216   6.637   3.098   6.165  1.6809  0.7015 -1.1117
   79SLPC  H15C 7217   6.491   3.155   6.086  1.0681 -0.3651  1.1700
   79SLPC   C12 7218   6.655   3.344   6.042  0.3227 -0.2935 -0.4209
   79SLPC  H12A 7219   6.552   3.376   6.034  0.1588 -0.6438  0.2832
   79SLPC  H12B 7220   6.716   3.406   5.978  1.3040  2.5723  3.1309
   79SLPC   C11 7221   6.703   3.374   6.190 -0.0872  0.2098  1.1904
   79SLPC  H11A 7222   6.664   3.302   6.265  0.0436 -1.6380 -0.4783
   79SLPC  H11B 7223   6.659   3.474   6.207  0.3640  0.5348  0.4918
   79SLPC     P 7224   6.955   3.311   6.279 -0.1134  0.1668 -0.2406
   79SLPC   O13 7225   6.984   3.187   6.201  0.1323 -0.1198  0.5436
   79SLPC   O14 7226   7.076   3.384   6.313  0.4582  0.4142 -0.7043
   79SLPC   O12 7227   6.849   3.393   6.197  0.6034  0.5194  0.7412
   79SLPC   O11 7228   6.876   3.275   6.404 -0.2271  0.2704  0.0243
   79SLPC    C1 7229   6.818   3.376   6.488  0.2172  0.2285  0.0227
   79SLPC    HA 7230   6.844   3.476   6.448  1.1885  0.6786  1.7195
   79SLPC    HB 7231   6.708   3.369   6.498  0.2148  1.0283  0.6074
   79SLPC    C2 7232   6.879   3.387   6.630 -0.4383  0.3385 -0.0224
   79SLPC    HS 7233   6.990   3.398   6.623 -0.4659  0.1570 -0.7377
   79SLPC   O21 7234   6.833   3.279   6.714  0.7025  0.6689  0.4305
   79SLPC   C21 7235   6.900   3.174   6.690  0.1946 -0.1433 -0.1079
   79SLPC   O22 7236   7.002   3.161   6.620 -0.2276 -0.3666 -0.2558
   79SLPC   C22 7237   6.838   3.050   6.751  0.5150  0.2672  0.7862
   79SLPC   H2R 7238   6.763   3.065   6.832 -0.5500  1.7317 -0.4287
   79SLPC   H2S 7239   6.782   2.993   6.673  0.7753  0.7744  0.2197
   79SLPC    C3 7240   6.839   3.524   6.699  0.3608  0.5156 -0.3305
   79SLPC    HX 7241   6.731   3.545   6.684 -0.3451 -1.4863  1.6653
   79SLPC    HY 7242   6.908   3.597   6.651  0.0902  0.1929 -1.2261
   79SLPC   O31 7243   6.873   3.523   6.839  0.9324 -0.2053 -0.1800
   79SLPC   C31 7244   6.761   3.527   6.925 -0.4525  0.3218  0.3996
   79SLPC   O32 7245   6.650   3.556   6.891 -0.0055 -0.2359  0.2564
   79SLPC   C32 7246   6.811   3.485   7.058  0.1791 -0.2737 -0.4833
   79SLPC   H2X 7247   6.920   3.463   7.049  0.6020  1.8009 -0.5681
   79SLPC   H2Y 7248   6.754   3.390   7.074 -0.4277  0.3993  1.5036
   79SLPC   C23 7249   6.938   2.950   6.815 -0.5948 -0.1964  0.0817
   79SLPC   H3R 7250   7.020   2.921   6.746 -0.4889  0.3795 -0.0388
   79SLPC   H3S 7251   6.885   2.854   6.837 -0.3253 -0.2082  0.6555
   79SLPC   C24 7252   7.004   3.005   6.944  0.0452  0.9957 -0.0780
   79SLPC   H4R 7253   7.045   3.107   6.928  2.0509  0.3159  0.4599
   79SLPC   H4S 7254   7.091   2.941   6.969  0.2023  1.3250  0.2362
   79SLPC   C25 7255   6.903   3.018   7.059 -0.2944  0.0928 -0.6260
   79SLPC   H5R 7256   6.872   2.916   7.090  0.8841 -0.8509 -2.5060
   79SLPC   H5S 7257   6.823   3.090   7.031 -0.4584  0.4549  0.7179
   79SLPC   C26 7258   6.972   3.081   7.176 -0.2564  0.0611 -0.8108
   79SLPC   H6R 7259   7.052   3.149   7.140  0.8749 -0.1806  1.1595
   79SLPC   H6S 7260   7.031   2.999   7.223 -1.0299  0.5964  1.1606
   79SLPC   C27 7261   6.877   3.154   7.278  0.7124  1.1240  0.0494
   79SLPC   H7R 7262   6.791   3.087   7.295  2.7241 -1.2036  1.4851
   79SLPC   H7S 7263   6.837   3.240   7.220  0.0677  0.5942 -0.2970
   79SLPC   C28 7264   6.939   3.203   7.400  0.5853 -0.4425  0.5521
   79SLPC   H8R 7265   6.879   3.268   7.466  1.2970  1.2091 -0.3952
   79SLPC   H8S 7266   7.032   3.258   7.371  0.7618 -0.2170  1.5381
   79SLPC   C29 7267   6.967   3.075   7.480  0.4434  0.2805  0.1379
   79SLPC   H9R 7268   6.974   2.979   7.427  0.6578  0.2784  0.1695
   79SLPC  C210 7269   6.994   3.068   7.613  0.1904  0.2521  0.0068
   79SLPC  H10R 7270   6.993   2.965   7.651 -1.7552 -0.7543 -2.5763
   79SLPC  C211 7271   7.004   3.180   7.708  0.2545  0.3388 -0.0636
   79SLPC  H11R 7272   7.020   3.267   7.641 -2.2224  0.8991  0.0263
   79SLPC  H11S 7273   7.098   3.161   7.764  0.9342  2.7757 -0.2862
   79SLPC  C212 7274   6.870   3.193   7.780 -0.5141  0.4988  0.1876
   79SLPC  H12R 7275   6.785   3.199   7.711 -1.4609  0.4816  1.3342
   79SLPC  C213 7276   6.858   3.191   7.913 -0.4179 -0.5572  0.1794
   79SLPC  H13R 7277   6.756   3.199   7.953  0.0821  0.9170  1.1953
   79SLPC  C214 7278   6.973   3.181   8.009  0.0641  0.4754  0.2293
   79SLPC  H14R 7279   6.954   3.226   8.108 -1.4696 -0.6354  0.4450
   79SLPC  H14S 7280   7.067   3.231   7.975 -0.2337  0.0704 -1.2485
   79SLPC  C215 7281   7.006   3.038   8.039  0.2539 -0.4028  0.4625
   79SLPC  H15R 7282   6.993   2.987   7.941 -0.8569 -0.5211  0.6591
   79SLPC  H15S 7283   6.933   2.995   8.110  0.5892 -0.9801  0.4621
   79SLPC  C216 7284   7.146   3.009   8.086  0.7059  0.2025  0.2429
   79SLPC  H16R 7285   7.209   3.052   8.006 -0.1455  0.1452 -0.4624
   79SLPC  H16S 7286   7.160   2.899   8.083  0.5765  0.2114 -0.7569
   79SLPC  C217 7287   7.179   3.075   8.225 -0.5979 -0.0183  0.5970
   79SLPC  H17R 7288   7.102   3.033   8.292 -1.1024  0.3906  0.2792
   79SLPC  H17S 7289   7.165   3.185   8.227  0.4295  0.3927 -4.7862
   79SLPC  C218 7290   7.325   3.041   8.269  0.5866  0.6531 -0.5368
   79SLPC  H18R 7291   7.402   3.080   8.200 -0.4501  0.9467 -1.5615
   79SLPC  H18S 7292   7.320   2.934   8.298  1.2448  1.0658  1.1614
   79SLPC  H18T 7293   7.349   3.086   8.367  0.7446 -0.0880 -0.2365
   79SLPC   C33 7294   6.771   3.579   7.169 -0.5427  0.3260  0.1638
   79SLPC   H3X 7295   6.662   3.599   7.164 -0.5194  1.1835  2.4432
   79SLPC   H3Y 7296   6.830   3.672   7.154 -1.3959  1.2122  2.1360
   79SLPC   C34 7297   6.806   3.537   7.314  0.1291  0.1680 -0.3137
   79SLPC   H4X 7298   6.915   3.537   7.333  0.2162 -0.2157 -0.7867
   79SLPC   H4Y 7299   6.781   3.429   7.318  0.7478  0.0070 -0.6216
   79SLPC   C35 7300   6.731   3.607   7.429 -0.3630 -0.5119 -0.2015
   79SLPC   H5X 7301   6.623   3.584   7.420 -0.7123  0.7430  0.5412
   79SLPC   H5Y 7302   6.751   3.716   7.434 -2.0922 -0.1276 -1.2416
   79SLPC   C36 7303   6.792   3.551   7.566 -0.1282  1.3261 -0.5630
   79SLPC   H6X 7304   6.901   3.566   7.577  0.4402 -2.0606 -1.1585
   79SLPC   H6Y 7305   6.762   3.444   7.564  2.2518  0.5953  0.8631
   79SLPC   C37 7306   6.722   3.606   7.686  0.4830 -0.0638 -0.3791
   79SLPC   H7X 7307   6.620   3.562   7.693 -0.0582  1.4087  1.0281
   79SLPC   H7Y 7308   6.706   3.715   7.679  1.4925  0.1372  0.3162
   79SLPC   C38 7309   6.802   3.587   7.819 -0.7267 -0.7599 -0.3323
   79SLPC   H8X 7310   6.909   3.615   7.802 -0.0371 -3.0455  0.0498
   79SLPC   H8Y 7311   6.799   3.483   7.858  0.4505 -0.0252  1.8025
   79SLPC   C39 7312   6.732   3.664   7.937  0.6346  0.1861  0.6567
   79SLPC   H9X 7313   6.633   3.615   7.953  0.1320  0.9104 -0.1938
   79SLPC   H9Y 7314   6.711   3.768   7.903 -1.1611  0.3043  2.0357
   79SLPC  C310 7315   6.806   3.661   8.071 -0.0868  0.3611  0.4689
   79SLPC  H10X 7316   6.735   3.666   8.156 -1.2187 -1.9489 -0.3102
   79SLPC  H10Y 7317   6.881   3.741   8.090 -0.7810  1.1797 -0.2144
   79SLPC  C311 7318   6.884   3.536   8.093 -0.2511 -0.6614 -0.2924
   79SLPC  H11X 7319   6.958   3.523   8.011 -1.4533 -0.8024 -1.3637
   79SLPC  H11Y 7320   6.811   3.452   8.100  0.0867 -1.0397 -1.1889
   79SLPC  C312 7321   6.954   3.516   8.234  0.6227  0.3045  0.1458
   79SLPC  H12X 7322   7.028   3.596   8.257  1.3400 -1.0987  3.0240
   79SLPC  H12Y 7323   7.007   3.418   8.228  0.7459  0.2896  1.2786
   79SLPC  C313 7324   6.854   3.514   8.353 -0.0223 -0.2451 -0.4925
   79SLPC  H13X 7325   6.765   3.450   8.332  0.8529 -1.4827 -0.5303
   79SLPC  H13Y 7326   6.810   3.615   8.347  1.0927  0.3089  0.4494
   79SLPC  C314 7327   6.908   3.492   8.496 -0.7326 -0.8099 -0.7201
   79SLPC  H14X 7328   6.921   3.382   8.511  2.7995 -0.1920  1.2213
   79SLPC  H14Y 7329   6.822   3.526   8.557 -1.3766 -2.4959 -0.6385
   79SLPC  C315 7330   7.039   3.575   8.516  0.4266  0.2249 -0.3686
   79SLPC  H15X 7331   7.112   3.546   8.438  0.4847 -1.1064  0.1708
   79SLPC  H15Y 7332   7.078   3.538   8.613 -1.0760  1.5853  0.7728
   79SLPC  C316 7333   7.028   3.729   8.524  0.7663 -0.5340 -0.6833
   79SLPC  H16X 7334   6.992   3.745   8.627 -0.6922 -0.9234 -1.1261
   79SLPC  H16Y 7335   6.951   3.775   8.459 -3.4399 -2.6314  2.5808
   79SLPC  C317 7336   7.157   3.798   8.497 -0.8230 -0.5673 -0.7136
   79SLPC  H17X 7337   7.130   3.905   8.513  0.7249 -0.6222  2.5571
   79SLPC  H17Y 7338   7.182   3.788   8.389  1.2296 -0.0496 -0.3053
   79SLPC  C318 7339   7.273   3.745   8.585 -0.2251  0.8549 -0.2673
   79SLPC  H18X 7340   7.234   3.728   8.687  0.1315  1.9571  0.0541
   79SLPC  H18Y 7341   7.361   3.813   8.588 -0.9001  1.6545  1.3178
   79SLPC  H18Z 7342   7.308   3.645   8.549 -0.6842 -0.0036  1.6046
   80SLPC     N 7343   2.667   0.866   6.335  0.3116  0.0375  0.8098
   80SLPC   C13 7344   2.689   0.926   6.464 -0.9081  0.1534 -0.0873
   80SLPC  H13A 7345   2.604   0.971   6.512  1.1974  1.5934  2.4335
   80SLPC  H13B 7346   2.738   0.858   6.532 -2.8255 -0.1227  1.0336
   80SLPC  H13C 7347   2.756   1.009   6.449  0.5105 -1.0123 -0.4111
   80SLPC   C14 7348   2.577   0.750   6.350 -0.2785 -0.4616 -0.5607
   80SLPC  H14A 7349   2.597   0.696   6.441 -1.3357  0.8209  0.4401
   80SLPC  H14B 7350   2.472   0.774   6.339 -0.1185  0.1853 -0.6597
   80SLPC  H14C 7351   2.590   0.682   6.267 -3.9013 -0.1187 -1.4802
   80SLPC   C15 7352   2.800   0.822   6.289  0.0571  0.2293 -0.3384
   80SLPC  H15A 7353   2.867   0.907   6.286 -0.0380  0.3785  1.1594
   80SLPC  H15B 7354   2.842   0.749   6.357 -0.0810  0.1603 -0.3276
   80SLPC  H15C 7355   2.803   0.783   6.188  1.5780  1.9077 -0.9634
   80SLPC   C12 7356   2.617   0.969   6.239  0.2710  0.0067  0.2117
   80SLPC  H12A 7357   2.620   0.936   6.136 -0.0114  1.6159 -0.3263
   80SLPC  H12B 7358   2.685   1.053   6.244 -0.5308  0.7943 -1.7728
   80SLPC   C11 7359   2.479   1.036   6.264 -0.0505 -0.3686  0.1032
   80SLPC  H11A 7360   2.478   1.123   6.195  1.9773  0.5329  1.1848
   80SLPC  H11B 7361   2.457   1.065   6.369 -0.9955 -0.5710 -0.0352
   80SLPC     P 7362   2.227   0.950   6.247 -0.1754  0.0902 -0.7733
   80SLPC   O13 7363   2.165   1.070   6.196 -0.2414 -0.2578  1.1712
   80SLPC   O14 7364   2.161   0.825   6.222 -0.1939 -0.4968  0.5923
   80SLPC   O12 7365   2.380   0.945   6.213  0.1124 -0.3135  0.3042
   80SLPC   O11 7366   2.226   0.975   6.396 -0.4905 -0.4151  0.0930
   80SLPC    C1 7367   2.250   0.873   6.491  0.6943 -0.2166 -1.1009
   80SLPC    HA 7368   2.292   0.775   6.461 -0.3966 -1.3807  1.0361
   80SLPC    HB 7369   2.330   0.903   6.561  1.0705 -0.3022 -1.4935
   80SLPC    C2 7370   2.135   0.833   6.578  0.1098 -0.6360 -0.5225
   80SLPC    HS 7371   2.082   0.928   6.601  1.7101  0.1583 -0.0418
   80SLPC   O21 7372   2.186   0.753   6.687 -0.0249 -0.4441 -0.2124
   80SLPC   C21 7373   2.239   0.819   6.783  1.1820  0.5611 -0.1971
   80SLPC   O22 7374   2.241   0.941   6.795  0.0428  0.6353  0.1899
   80SLPC   C22 7375   2.286   0.719   6.892  0.2362  0.0171 -0.6359
   80SLPC   H2R 7376   2.206   0.645   6.914 -1.5115  1.9836 -0.1485
   80SLPC   H2S 7377   2.365   0.658   6.844  0.5385  1.3294 -1.8108
   80SLPC    C3 7378   2.021   0.754   6.500 -0.4969  0.5054  0.1674
   80SLPC    HX 7379   2.079   0.696   6.426 -3.0313 -0.5685 -1.0276
   80SLPC    HY 7380   1.959   0.828   6.444  1.5921  0.6674 -2.0346
   80SLPC   O31 7381   1.943   0.667   6.585  0.3178  0.3881  0.2931
   80SLPC   C31 7382   1.848   0.733   6.653  0.8204 -0.3627 -0.2071
   80SLPC   O32 7383   1.823   0.854   6.634  0.5575  0.2449 -0.5072
   80SLPC   C32 7384   1.774   0.644   6.752 -0.4077  0.5891  0.6649
   80SLPC   H2X 7385   1.852   0.628   6.830 -0.0534 -0.4790  0.1074
   80SLPC   H2Y 7386   1.753   0.550   6.697 -0.3986  0.3655  1.0440
   80SLPC   C23 7387   2.312   0.778   7.031  0.3505 -1.0395  0.5627
   80SLPC   H3R 7388   2.401   0.843   7.021  0.5007 -1.1880  0.9361
   80SLPC   H3S 7389   2.335   0.684   7.086  2.2390 -1.3225 -0.7032
   80SLPC   C24 7390   2.204   0.862   7.091  0.6870 -0.8277 -0.8797
   80SLPC   H4R 7391   2.235   0.963   7.057  0.0628 -0.1686  0.5035
   80SLPC   H4S 7392   2.211   0.851   7.201 -1.5336  0.1717 -0.6201
   80SLPC   C25 7393   2.060   0.827   7.060  0.3141 -0.2736  0.0567
   80SLPC   H5R 7394   2.038   0.720   7.040  1.4864 -0.5059  0.0087
   80SLPC   H5S 7395   2.027   0.887   6.972 -1.6217  0.9540  1.5858
   80SLPC   C26 7396   1.963   0.874   7.178 -0.2414  0.2603  0.6158
   80SLPC   H6R 7397   1.998   0.974   7.213 -2.2538  0.8945  0.8640
   80SLPC   H6S 7398   1.961   0.801   7.261  0.4181 -0.8965 -0.3721
   80SLPC   C27 7399   1.819   0.898   7.132 -0.4785 -0.0308  0.4478
   80SLPC   H7R 7400   1.789   0.822   7.057 -0.1154 -1.7440  2.0091
   80SLPC   H7S 7401   1.799   0.995   7.081  0.2579  0.7227  1.5614
   80SLPC   C28 7402   1.717   0.904   7.247  0.2230  0.3053  0.5974
   80SLPC   H8R 7403   1.752   0.986   7.314 -0.2572  0.7360  0.3235
   80SLPC   H8S 7404   1.734   0.812   7.307 -2.0748 -0.7754 -0.3653
   80SLPC   C29 7405   1.567   0.901   7.211  0.3516 -0.1809 -0.6481
   80SLPC   H9R 7406   1.529   0.810   7.163 -0.7324 -1.4737  2.4935
   80SLPC  C210 7407   1.483   1.003   7.245  0.5906  0.0131 -0.0595
   80SLPC  H10R 7408   1.385   0.995   7.195  0.7301 -2.7916  0.0268
   80SLPC  C211 7409   1.521   1.134   7.318 -0.4365  0.5139 -0.7807
   80SLPC  H11R 7410   1.592   1.199   7.263  1.1013 -0.9235 -0.5137
   80SLPC  H11S 7411   1.575   1.111   7.412  1.3114  0.4013 -1.7994
   80SLPC  C212 7412   1.406   1.231   7.338  0.1662 -0.7587 -0.2374
   80SLPC  H12R 7413   1.349   1.242   7.245  0.7125  2.7955 -0.2356
   80SLPC  C213 7414   1.365   1.297   7.442 -0.6342 -0.0311 -0.8359
   80SLPC  H13R 7415   1.264   1.342   7.434 -0.9589 -1.2227 -4.0412
   80SLPC  C214 7416   1.414   1.295   7.588 -0.3097  0.5116 -0.4022
   80SLPC  H14R 7417   1.500   1.226   7.600  0.2532  1.5146  1.4357
   80SLPC  H14S 7418   1.333   1.254   7.653  1.0628  0.3338  1.2440
   80SLPC  C215 7419   1.444   1.432   7.633 -0.4537  0.2311  0.0059
   80SLPC  H15R 7420   1.363   1.500   7.600 -0.2629  0.4645  0.0086
   80SLPC  H15S 7421   1.534   1.473   7.581 -2.1223  1.6098 -1.8798
   80SLPC  C216 7422   1.476   1.448   7.780  0.2037 -0.8749 -0.1771
   80SLPC  H16R 7423   1.513   1.550   7.804  0.2806 -1.0624  0.5100
   80SLPC  H16S 7424   1.565   1.382   7.795  0.8606  0.0616  0.0866
   80SLPC  C217 7425   1.362   1.408   7.876  0.2448 -0.2930 -0.2449
   80SLPC  H17R 7426   1.361   1.298   7.866  2.0141 -0.0980 -3.1449
   80SLPC  H17S 7427   1.266   1.455   7.843 -0.8235 -0.4269  2.5629
   80SLPC  C218 7428   1.396   1.436   8.026  0.5921  0.6507 -0.2753
   80SLPC  H18R 7429   1.319   1.392   8.092 -1.0615  1.0493 -1.8846
   80SLPC  H18S 7430   1.400   1.544   8.048 -3.7164  0.8450 -0.1543
   80SLPC  H18T 7431   1.499   1.399   8.048  1.6953  0.8016 -4.7211
   80SLPC   C33 7432   1.648   0.692   6.821  0.1646  0.1644 -0.6512
   80SLPC   H3X 7433   1.572   0.719   6.744  0.5394  1.0471 -0.7035
   80SLPC   H3Y 7434   1.658   0.772   6.897  0.8069  1.2316 -1.8405
   80SLPC   C34 7435   1.562   0.575   6.888  0.1175  0.2710  0.1016
   80SLPC   H4X 7436   1.547   0.482   6.830  1.6566  0.0102  0.0848
   80SLPC   H4Y 7437   1.468   0.624   6.920  0.1336  0.2169  0.2317
   80SLPC   C35 7438   1.625   0.540   7.024 -0.4262 -0.7130 -0.0075
   80SLPC   H5X 7439   1.657   0.631   7.079  0.1273  0.8432 -2.7933
   80SLPC   H5Y 7440   1.720   0.486   7.003  1.0027  0.9492  1.9628
   80SLPC   C36 7441   1.534   0.440   7.104 -0.4304  0.1800  0.9614
   80SLPC   H6X 7442   1.550   0.335   7.071  0.0354  0.4349  0.3776
   80SLPC   H6Y 7443   1.429   0.467   7.081  0.0045  1.5803  0.5806
   80SLPC   C37 7444   1.525   0.444   7.257 -0.0823  0.3528  0.1622
   80SLPC   H7X 7445   1.615   0.390   7.294 -0.7089 -0.0504  1.1110
   80SLPC   H7Y 7446   1.441   0.385   7.299  1.6831 -1.8419  0.6851
   80SLPC   C38 7447   1.525   0.586   7.327  0.5498  0.6260  0.6693
   80SLPC   H8X 7448   1.442   0.646   7.285  0.4666  0.6617  0.8807
   80SLPC   H8Y 7449   1.620   0.634   7.297 -0.1264 -0.1119 -2.8652
   80SLPC   C39 7450   1.518   0.580   7.480 -0.4494 -0.3851 -0.4636
   80SLPC   H9X 7451   1.608   0.525   7.515 -1.0901 -0.9001  0.4328
   80SLPC   H9Y 7452   1.428   0.525   7.516 -0.1404  1.1395  2.8547
   80SLPC  C310 7453   1.525   0.719   7.552  0.3633  0.6212  0.4087
   80SLPC  H10X 7454   1.457   0.794   7.507  1.0652  0.9281 -0.1558
   80SLPC  H10Y 7455   1.629   0.755   7.543  1.0228 -1.2534  0.1905
   80SLPC  C311 7456   1.489   0.709   7.701  0.4104 -0.3258 -0.2825
   80SLPC  H11X 7457   1.556   0.637   7.752  0.3014 -0.1111  0.1716
   80SLPC  H11Y 7458   1.387   0.670   7.718 -0.0144  0.5696 -0.7172
   80SLPC  C312 7459   1.501   0.840   7.781  0.8282 -0.2382  0.6732
   80SLPC  H12X 7460   1.408   0.898   7.768  1.1135  0.6490  2.4298
   80SLPC  H12Y 7461   1.588   0.893   7.735 -0.1205 -0.3307 -1.3026
   80SLPC  C313 7462   1.527   0.816   7.926 -1.0748  0.1777 -0.4367
   80SLPC  H13X 7463   1.604   0.737   7.942  0.2965  1.3563 -1.0012
   80SLPC  H13Y 7464   1.430   0.778   7.962 -1.5490  1.2977 -0.5135
   80SLPC  C314 7465   1.573   0.939   8.000 -0.2064 -0.0388 -0.4006
   80SLPC  H14X 7466   1.518   1.030   7.966 -0.4842 -0.9990 -2.6172
   80SLPC  H14Y 7467   1.681   0.954   7.982 -0.6766  1.8305 -1.8349
   80SLPC  C315 7468   1.558   0.911   8.153  0.4456 -0.4032 -0.0509
   80SLPC  H15X 7469   1.449   0.898   8.173  0.3117 -0.5332 -0.8216
   80SLPC  H15Y 7470   1.589   1.003   8.206 -0.0085 -1.2790  1.7887
   80SLPC  C316 7471   1.632   0.789   8.198 -0.4786  0.1586  0.0181
   80SLPC  H16X 7472   1.731   0.775   8.149 -0.8975  2.2689 -1.4777
   80SLPC  H16Y 7473   1.575   0.704   8.156 -0.2578  0.3552 -0.6793
   80SLPC  C317 7474   1.625   0.775   8.352  0.7181  0.0069 -0.4001
   80SLPC  H17X 7475   1.668   0.674   8.372 -1.2171 -0.4931  1.4567
   80SLPC  H17Y 7476   1.519   0.771   8.385  0.4422  0.6692 -1.1922
   80SLPC  C318 7477   1.708   0.884   8.420 -0.1012 -0.0174 -0.3066
   80SLPC  H18X 7478   1.668   0.985   8.397 -0.6063 -1.0023 -3.9120
   80SLPC  H18Y 7479   1.813   0.896   8.385 -0.3770  0.5711 -0.9158
   80SLPC  H18Z 7480   1.711   0.864   8.530  1.9658 -0.2848 -0.3769
   81SAPS     N 7481   1.769   2.609  11.254 -0.7252  0.1881 -0.1846
   81SAPS   HN1 7482   1.772   2.623  11.151 -0.4218  1.7986  0.0317
   81SAPS   HN2 7483   1.852   2.558  11.291 -1.5513 -0.3391  0.9933
   81SAPS   HN3 7484   1.690   2.545  11.276 -1.3500  0.6650 -1.0372
   81SAPS   C12 7485   1.786   2.740  11.326  0.0329  0.4935  0.1302
   81SAPS  H12A 7486   1.705   2.803  11.293  0.0329  1.9860  2.8305
   81SAPS   C13 7487   1.780   2.737  11.481  0.2217 -0.6966 -0.2842
   81SAPS  O13A 7488   1.788   2.621  11.532  0.2693  0.8666 -0.0542
   81SAPS  O13B 7489   1.772   2.841  11.547  0.1366 -0.2996  0.4048
   81SAPS   C11 7490   1.916   2.810  11.277  0.3475  0.0921  0.7353
   81SAPS  H11A 7491   2.004   2.756  11.318  0.7047  1.1139  1.3198
   81SAPS  H11B 7492   1.924   2.915  11.311 -1.3078  0.3770  0.3052
   81SAPS     P 7493   1.952   2.927  11.043  0.0758  0.0104 -0.2976
   81SAPS   O13 7494   1.856   3.035  11.072 -0.2004 -0.0168 -0.1398
   81SAPS   O14 7495   2.095   2.956  11.064  0.2277 -0.7452 -0.2380
   81SAPS   O12 7496   1.916   2.800  11.130  0.8857  0.7253 -0.4337
   81SAPS   O11 7497   1.928   2.869  10.896  0.3089 -0.0783  0.1282
   81SAPS    C1 7498   1.808   2.804  10.857  0.4795  0.3401  0.2912
   81SAPS    HA 7499   1.810   2.700  10.896 -0.9825  1.3818  3.3129
   81SAPS    HB 7500   1.718   2.852  10.901  0.3236 -0.3950  0.7904
   81SAPS    C2 7501   1.785   2.809  10.702  0.3436 -0.0823  0.2898
   81SAPS    HS 7502   1.683   2.773  10.681  0.2789 -0.2184  0.8292
   81SAPS   O21 7503   1.891   2.733  10.640 -0.1257 -0.5040 -0.2151
   81SAPS   C21 7504   1.874   2.605  10.619  0.3705  0.1376  0.6725
   81SAPS   O22 7505   1.771   2.545  10.654  0.1338 -0.5920 -0.7435
   81SAPS   C22 7506   1.991   2.539  10.549 -0.3303 -0.0168  0.0635
   81SAPS   H2R 7507   2.088   2.587  10.575  0.2379 -0.0815 -1.8688
   81SAPS   H2S 7508   1.997   2.437  10.592  3.2715  0.4800  0.8549
   81SAPS    C3 7509   1.785   2.957  10.665  0.0153 -0.4532  0.1121
   81SAPS    HX 7510   1.891   2.987  10.678 -0.3908  0.3062  1.8659
   81SAPS    HY 7511   1.717   3.008  10.737  0.1256 -3.0369  2.1408
   81SAPS   O31 7512   1.753   2.978  10.526 -0.2506  0.0101 -0.6938
   81SAPS   C31 7513   1.618   2.991  10.502  0.0767  0.5440  0.2972
   81SAPS   O32 7514   1.532   2.995  10.590  0.1805  0.3236 -0.2857
   81SAPS   C32 7515   1.590   2.990  10.351 -0.2887  0.0881 -0.1835
   81SAPS   H2X 7516   1.541   3.088  10.329  0.2784  0.8778  1.9693
   81SAPS   H2Y 7517   1.521   2.904  10.338  0.2854 -0.3546 -0.2931
   81SAPS   C23 7518   1.957   2.532  10.396 -0.1211 -0.3047  0.5744
   81SAPS   H3R 7519   1.958   2.633  10.349  2.4441 -1.5381 -2.2042
   81SAPS   H3S 7520   1.859   2.482  10.384 -0.8342  1.3838 -0.8859
   81SAPS   C24 7521   2.060   2.447  10.321 -0.0593 -0.1982 -0.7340
   81SAPS   H4R 7522   2.148   2.514  10.325 -2.7363  3.5810 -2.0809
   81SAPS   H4S 7523   2.034   2.459  10.213 -0.1310  1.7493 -0.5067
   81SAPS   C25 7524   2.071   2.301  10.361  0.0387 -0.4850  0.3415
   81SAPS   H5R 7525   2.144   2.277  10.440  1.7911  4.4147  0.4109
   81SAPS   C26 7526   1.988   2.205  10.306  0.2514 -0.2096 -0.8311
   81SAPS   H6R 7527   1.985   2.105  10.352  0.1719 -0.1242 -0.6504
   81SAPS   C27 7528   1.886   2.226  10.194 -0.7144 -0.3484 -0.0439
   81SAPS   H7R 7529   1.893   2.143  10.120 -0.4737 -1.5780  1.3311
   81SAPS   H7S 7530   1.918   2.312  10.131  2.0263  1.2154  3.3244
   81SAPS   C28 7531   1.750   2.252  10.249  0.0177 -0.0101 -0.0923
   81SAPS   H8R 7532   1.744   2.264  10.359  1.6629  0.5347 -0.0510
   81SAPS   C29 7533   1.640   2.264  10.179  0.1107 -0.0894  0.1327
   81SAPS   H9R 7534   1.545   2.279  10.232 -0.4112  1.6010 -1.2557
   81SAPS  C210 7535   1.627   2.250  10.027  0.2238 -0.1904 -0.5503
   81SAPS  H10R 7536   1.528   2.200  10.013  0.9981 -1.8682 -0.1583
   81SAPS  H10S 7537   1.718   2.199   9.988  1.4845  1.2912  0.4435
   81SAPS  C211 7538   1.620   2.381   9.956 -0.5008 -0.1818  0.2295
   81SAPS  H11R 7539   1.658   2.470  10.008  0.1083  0.9646 -2.1133
   81SAPS  C212 7540   1.592   2.398   9.829 -0.3713 -0.2182  0.6093
   81SAPS  H12R 7541   1.603   2.498   9.785 -0.5984 -0.6638 -0.4723
   81SAPS  C213 7542   1.554   2.295   9.730 -0.1558  0.2999  0.2717
   81SAPS  H13R 7543   1.607   2.199   9.749  0.3646  0.5018 -0.1604
   81SAPS  H13S 7544   1.596   2.305   9.628 -0.8581 -1.9915 -0.2717
   81SAPS  C214 7545   1.413   2.276   9.727  0.4077 -0.0877  0.9494
   81SAPS  H14R 7546   1.372   2.197   9.791 -0.9944 -1.1680 -1.2188
   81SAPS  C215 7547   1.332   2.337   9.646 -0.0393 -0.0639 -0.0431
   81SAPS  H15R 7548   1.223   2.325   9.654 -0.1634 -0.2446 -1.7407
   81SAPS  C216 7549   1.370   2.440   9.532  0.8130  0.2248 -0.3428
   81SAPS  H16R 7550   1.479   2.457   9.523  0.7089  0.1789 -1.8981
   81SAPS  H16S 7551   1.321   2.539   9.545 -1.8814 -1.2185  1.0031
   81SAPS  C217 7552   1.320   2.394   9.381 -0.3575 -0.3674  0.2733
   81SAPS  H17R 7553   1.211   2.375   9.384 -0.5377  0.6753  0.5826
   81SAPS  H17S 7554   1.375   2.299   9.366  1.3661  0.2284  2.4593
   81SAPS  C218 7555   1.363   2.496   9.274 -0.4572 -0.8205  0.1835
   81SAPS  H18R 7556   1.474   2.497   9.269 -0.3960  0.9879  1.2191
   81SAPS  H18S 7557   1.349   2.600   9.311 -1.2598 -0.3401 -1.4170
   81SAPS  C219 7558   1.301   2.487   9.130  0.0426  0.2308  0.2712
   81SAPS  H19R 7559   1.193   2.463   9.133 -0.2859  1.6700 -0.0343
   81SAPS  H19S 7560   1.358   2.411   9.072 -1.7477 -0.3890 -0.7118
   81SAPS  C220 7561   1.329   2.611   9.045  0.3065  0.2931 -0.1616
   81SAPS  H20R 7562   1.438   2.620   9.023  0.4759 -0.0401  0.5246
   81SAPS  H20S 7563   1.306   2.704   9.101  0.1795  0.6212 -0.7551
   81SAPS  H20T 7564   1.282   2.611   8.945  3.0708 -0.3511 -1.4896
   81SAPS   C33 7565   1.713   2.982  10.263  0.1444  0.2238  0.1266
   81SAPS   H3X 7566   1.791   2.909  10.294 -2.2237 -2.7626 -0.6853
   81SAPS   H3Y 7567   1.780   3.071  10.266  0.4513  0.0459 -1.2275
   81SAPS   C34 7568   1.677   2.965  10.117  0.3096 -0.7480  0.1503
   81SAPS   H4X 7569   1.739   3.026  10.048 -1.4494 -0.7558 -1.4744
   81SAPS   H4Y 7570   1.575   3.009  10.102 -0.8023 -3.6850 -1.1854
   81SAPS   C35 7571   1.674   2.822  10.055 -0.6668  0.6806  0.4744
   81SAPS   H5X 7572   1.600   2.760  10.108 -0.9480  0.2941 -0.3618
   81SAPS   H5Y 7573   1.772   2.770  10.062 -0.1484  1.6012  0.2483
   81SAPS   C36 7574   1.622   2.817   9.908  0.3427  0.1033 -0.0945
   81SAPS   H6X 7575   1.520   2.857   9.894 -0.0924 -0.5081  1.1762
   81SAPS   H6Y 7576   1.622   2.718   9.858  1.0985 -0.0098  0.1246
   81SAPS   C37 7577   1.709   2.905   9.813 -0.1624  0.0658 -0.1370
   81SAPS   H7X 7578   1.817   2.880   9.817 -0.4023 -0.9501  0.1308
   81SAPS   H7Y 7579   1.695   3.009   9.849  0.0540  0.1225 -0.2156
   81SAPS   C38 7580   1.686   2.894   9.661 -0.0540 -0.6942 -0.8189
   81SAPS   H8X 7581   1.726   2.795   9.631  1.9387  0.5507 -2.3628
   81SAPS   H8Y 7582   1.733   2.972   9.597 -0.8166  1.4831  1.1871
   81SAPS   C39 7583   1.533   2.889   9.624  0.1512 -0.6169  0.1285
   81SAPS   H9X 7584   1.488   2.963   9.694  0.8359 -0.2305  0.1630
   81SAPS   H9Y 7585   1.494   2.786   9.637  0.1545 -0.3837  2.1427
   81SAPS  C310 7586   1.488   2.934   9.481 -0.1108  0.1553 -0.5086
   81SAPS  H10X 7587   1.524   3.037   9.460  3.4224 -0.9477 -0.2085
   81SAPS  H10Y 7588   1.377   2.941   9.476 -0.0305  2.1827  0.1705
   81SAPS  C311 7589   1.540   2.838   9.366 -0.7106  0.5756 -0.4280
   81SAPS  H11X 7590   1.487   2.886   9.280  1.4755 -0.0947 -2.2103
   81SAPS  H11Y 7591   1.506   2.734   9.386 -1.8575  0.9670 -0.3015
   81SAPS  C312 7592   1.685   2.841   9.343 -0.4285  0.7011  0.0301
   81SAPS  H12X 7593   1.753   2.764   9.385  2.3995  1.9653 -2.0832
   81SAPS  H12Y 7594   1.723   2.936   9.387 -0.2426  1.5384 -1.8561
   81SAPS  C313 7595   1.708   2.840   9.187 -0.9703  0.3115  0.3063
   81SAPS  H13X 7596   1.657   2.928   9.142 -1.7102 -0.8736 -1.2391
   81SAPS  H13Y 7597   1.649   2.752   9.152  1.3064 -1.7990  1.6568
   81SAPS  C314 7598   1.853   2.831   9.129  0.1230 -0.4160  0.5186
   81SAPS  H14X 7599   1.889   2.727   9.140  0.5727 -0.3182  0.0088
   81SAPS  H14Y 7600   1.925   2.895   9.184  0.4415 -0.6518  0.3774
   81SAPS  C315 7601   1.856   2.879   8.985  0.3422 -0.1697 -0.6173
   81SAPS  H15X 7602   1.960   2.881   8.945 -0.1322  0.4102 -1.8411
   81SAPS  H15Y 7603   1.822   2.985   8.985 -2.7858 -1.1100 -0.9415
   81SAPS  C316 7604   1.771   2.795   8.892  0.0081  0.0359 -0.4579
   81SAPS  H16X 7605   1.779   2.839   8.790 -0.3311  2.1045  0.3787
   81SAPS  H16Y 7606   1.668   2.788   8.934  0.0554 -0.4205 -0.4185
   81SAPS  C317 7607   1.830   2.657   8.875 -0.6230  0.1691  0.6373
   81SAPS  H17X 7608   1.765   2.599   8.805  0.3128  0.5451 -0.5630
   81SAPS  H17Y 7609   1.814   2.605   8.971 -0.0164 -2.2233 -0.5052
   81SAPS  C318 7610   1.975   2.650   8.827  0.2554  0.5997 -0.9079
   81SAPS  H18X 7611   1.994   2.706   8.733 -1.9888 -0.1537 -1.8483
   81SAPS  H18Y 7612   2.011   2.545   8.816  2.3092  1.3360 -1.4279
   81SAPS  H18Z 7613   2.035   2.688   8.913 -1.4084 -2.6603  1.8419
   82SAPS     N 7614   6.456   1.444  11.117 -0.4799  0.1560 -0.1917
   82SAPS   HN1 7615   6.501   1.415  11.028  4.0544  2.3823  1.2358
   82SAPS   HN2 7616   6.463   1.365  11.184 -0.4995  0.7356  0.4887
   82SAPS   HN3 7617   6.355   1.458  11.098 -1.1336  0.6570  3.3565
   82SAPS   C12 7618   6.516   1.567  11.178 -0.2318 -0.8746  0.2426
   82SAPS  H12A 7619   6.459   1.649  11.136 -0.9745 -1.0059  0.9794
   82SAPS   C13 7620   6.504   1.580  11.332 -0.3748 -0.6842 -0.4880
   82SAPS  O13A 7621   6.443   1.499  11.404  0.1527 -0.4668  0.1752
   82SAPS  O13B 7622   6.561   1.672  11.404  0.3236  0.3173 -0.3415
   82SAPS   C11 7623   6.670   1.561  11.146 -0.4931  0.0010  0.3213
   82SAPS  H11A 7624   6.719   1.484  11.208 -0.3282 -0.8435 -0.8436
   82SAPS  H11B 7625   6.707   1.661  11.178  0.8420 -0.6023  0.6730
   82SAPS     P 7626   6.837   1.554  10.938  0.2222 -0.0595  0.0192
   82SAPS   O13 7627   6.851   1.690  10.886 -0.5635 -0.2848 -0.7292
   82SAPS   O14 7628   6.944   1.507  11.027 -0.4160 -0.1933  0.2582
   82SAPS   O12 7629   6.703   1.531  11.007  0.1439  0.2392 -0.3256
   82SAPS   O11 7630   6.827   1.461  10.810  0.7425  0.4013  0.1172
   82SAPS    C1 7631   6.956   1.435  10.746 -0.7002 -1.4068  0.6511
   82SAPS    HA 7632   7.049   1.438  10.808  0.8159 -2.3623 -1.4967
   82SAPS    HB 7633   6.956   1.328  10.717  1.3185 -1.2580  0.0050
   82SAPS    C2 7634   6.977   1.532  10.623  0.0906 -0.7509  0.0624
   82SAPS    HS 7635   6.953   1.636  10.654 -2.1266 -0.7428 -1.5911
   82SAPS   O21 7636   6.897   1.497  10.515  0.5729  0.4761 -0.5514
   82SAPS   C21 7637   6.877   1.581  10.420  0.0511  0.4686 -0.1414
   82SAPS   O22 7638   6.912   1.695  10.411 -0.0035 -0.0912  0.0758
   82SAPS   C22 7639   6.803   1.507  10.301 -0.1595  0.1293 -0.6057
   82SAPS   H2R 7640   6.866   1.418  10.281  1.8025  1.2586  0.3670
   82SAPS   H2S 7641   6.700   1.482  10.332 -0.2475  0.3243 -0.7414
   82SAPS    C3 7642   7.132   1.535  10.582  0.5478  0.2596 -0.0639
   82SAPS    HX 7643   7.163   1.429  10.575  1.7444  0.6297 -0.4969
   82SAPS    HY 7644   7.187   1.582  10.667 -0.0771  0.7703  0.0681
   82SAPS   O31 7645   7.169   1.604  10.459 -0.2588  0.5298 -0.5647
   82SAPS   C31 7646   7.228   1.725  10.477 -0.2906 -0.3001 -0.0008
   82SAPS   O32 7647   7.263   1.771  10.583 -0.3006 -0.1199  0.0266
   82SAPS   C32 7648   7.241   1.783  10.330 -0.3668 -0.9348 -0.1414
   82SAPS   H2X 7649   7.294   1.880  10.342  0.6218 -1.5224  0.2338
   82SAPS   H2Y 7650   7.136   1.799  10.295  0.7506  1.9035 -2.3745
   82SAPS   C23 7651   6.804   1.576  10.166  0.4461 -0.0846 -0.2666
   82SAPS   H3R 7652   6.906   1.599  10.127  0.4798 -1.3920 -0.9852
   82SAPS   H3S 7653   6.746   1.671  10.163  1.5156  0.7249  2.8250
   82SAPS   C24 7654   6.759   1.490  10.049  0.4245 -0.3232  0.7594
   82SAPS   H4R 7655   6.810   1.392  10.042  1.6384  0.3222  0.5324
   82SAPS   H4S 7656   6.784   1.562   9.969 -2.1461 -1.0665 -0.7516
   82SAPS   C25 7657   6.611   1.484  10.035  0.4885 -0.1083  1.3958
   82SAPS   H5R 7658   6.544   1.484  10.122  0.2286 -1.8136  1.2033
   82SAPS   C26 7659   6.561   1.469   9.913 -0.1683 -0.1123  0.9481
   82SAPS   H6R 7660   6.452   1.455   9.906 -0.1267  0.4838 -1.2518
   82SAPS   C27 7661   6.638   1.455   9.782 -0.2524 -0.3834  0.1792
   82SAPS   H7R 7662   6.588   1.374   9.725  2.0283 -1.7572  0.0646
   82SAPS   H7S 7663   6.738   1.418   9.813  0.2913 -1.2166 -2.4247
   82SAPS   C28 7664   6.650   1.591   9.714 -0.7769  0.5808 -0.1274
   82SAPS   H8R 7665   6.622   1.677   9.777 -3.4452  0.3468 -0.9384
   82SAPS   C29 7666   6.697   1.612   9.592  0.2508  0.4318 -0.1450
   82SAPS   H9R 7667   6.715   1.716   9.561 -0.1215  0.3526 -0.6284
   82SAPS  C210 7668   6.736   1.503   9.497 -0.4132  0.4906 -0.2085
   82SAPS  H10R 7669   6.781   1.425   9.563 -4.8399 -1.9348  0.1465
   82SAPS  H10S 7670   6.821   1.529   9.431  0.7569 -1.6379  0.4374
   82SAPS  C211 7671   6.609   1.468   9.421 -0.0771  0.2573  0.6435
   82SAPS  H11R 7672   6.527   1.428   9.483 -0.4425 -0.4097 -0.2706
   82SAPS  C212 7673   6.591   1.481   9.285  0.3494 -0.0992 -0.1627
   82SAPS  H12R 7674   6.496   1.441   9.247  0.7768  0.4447 -1.8166
   82SAPS  C213 7675   6.688   1.534   9.183  0.3301 -0.5434  0.2051
   82SAPS  H13R 7676   6.695   1.463   9.097  1.2382 -1.0877  0.7202
   82SAPS  H13S 7677   6.791   1.560   9.214  0.3376  0.9105 -0.9709
   82SAPS  C214 7678   6.621   1.659   9.129 -0.1299  0.1759  0.9040
   82SAPS  H14R 7679   6.579   1.733   9.199 -0.0615  2.4229 -1.3660
   82SAPS  C215 7680   6.584   1.687   8.998 -0.1790  0.7405  0.9493
   82SAPS  H15R 7681   6.549   1.789   8.976  3.1440  1.7667  0.2000
   82SAPS  C216 7682   6.606   1.595   8.875 -0.0009  0.2673 -0.5318
   82SAPS  H16R 7683   6.510   1.584   8.821 -0.0432  0.2329 -0.4491
   82SAPS  H16S 7684   6.638   1.492   8.904  3.4061  0.9227 -1.7060
   82SAPS  C217 7685   6.717   1.650   8.789 -0.6439  0.2219  0.1303
   82SAPS  H17R 7686   6.750   1.574   8.715  1.3852  0.4080  0.7994
   82SAPS  H17S 7687   6.803   1.690   8.848 -0.1488 -0.4180 -0.1510
   82SAPS  C218 7688   6.673   1.764   8.699  0.2433 -0.3213 -0.4609
   82SAPS  H18R 7689   6.635   1.853   8.754  0.6771 -0.4239  0.0043
   82SAPS  H18S 7690   6.580   1.726   8.652 -0.7392  0.7145  0.6089
   82SAPS  C219 7691   6.776   1.820   8.593 -0.1930  0.8967 -0.2792
   82SAPS  H19R 7692   6.725   1.897   8.531 -1.2525  0.8492  0.5185
   82SAPS  H19S 7693   6.788   1.727   8.533  0.3776  0.3185  0.7198
   82SAPS  C220 7694   6.904   1.879   8.642  0.3370  0.3382 -0.8283
   82SAPS  H20R 7695   6.969   1.894   8.553  1.1028 -3.7440 -1.0512
   82SAPS  H20S 7696   6.954   1.811   8.714 -0.1849  0.3385 -0.4630
   82SAPS  H20T 7697   6.890   1.977   8.691  0.8843  0.5619 -1.1129
   82SAPS   C33 7698   7.308   1.683  10.228  0.0423 -0.1577 -1.2285
   82SAPS   H3X 7699   7.251   1.587  10.236  1.8177 -1.1931 -0.8610
   82SAPS   H3Y 7700   7.412   1.660  10.258 -0.2880 -0.3988 -0.2484
   82SAPS   C34 7701   7.295   1.721  10.073 -0.4565  0.3441  0.7791
   82SAPS   H4X 7702   7.353   1.652  10.009  0.0767  2.2059 -0.7939
   82SAPS   H4Y 7703   7.335   1.824  10.060 -1.6013  0.7634  0.4781
   82SAPS   C35 7704   7.154   1.719  10.019 -0.3774  0.0570  0.1076
   82SAPS   H5X 7705   7.087   1.775  10.087 -1.1438  0.9812 -1.3940
   82SAPS   H5Y 7706   7.123   1.612  10.018  1.5952 -0.5281 -0.9788
   82SAPS   C36 7707   7.129   1.768   9.877  0.2258  0.1036  0.1181
   82SAPS   H6X 7708   7.168   1.692   9.806 -0.0905 -0.8986  1.0142
   82SAPS   H6Y 7709   7.194   1.858   9.866  0.7136 -0.2554  0.0270
   82SAPS   C37 7710   6.988   1.793   9.830  0.5151 -0.3488 -0.4352
   82SAPS   H7X 7711   6.927   1.828   9.916  2.0960  0.5904  0.3239
   82SAPS   H7Y 7712   6.936   1.698   9.804 -1.0693  0.2578  0.4722
   82SAPS   C38 7713   6.992   1.881   9.705  0.3123  0.4001  0.5164
   82SAPS   H8X 7714   7.056   1.971   9.716 -0.2639  0.9699 -0.6962
   82SAPS   H8Y 7715   6.889   1.919   9.686  0.8521  2.1116  0.9734
   82SAPS   C39 7716   7.003   1.804   9.578  0.2888  0.1328 -0.5953
   82SAPS   H9X 7717   6.924   1.726   9.575 -2.6469  2.9584  0.7846
   82SAPS   H9Y 7718   7.093   1.739   9.586 -0.3954 -0.6374  1.0095
   82SAPS  C310 7719   7.009   1.883   9.453 -0.6771 -1.4463 -0.0892
   82SAPS  H10X 7720   7.111   1.926   9.440 -1.6788  0.7730 -0.8618
   82SAPS  H10Y 7721   6.937   1.968   9.451  0.9504 -0.0517 -1.1373
   82SAPS  C311 7722   6.975   1.792   9.333 -0.0511  0.5265 -0.7903
   82SAPS  H11X 7723   6.866   1.773   9.339 -0.0281  0.3971 -0.7654
   82SAPS  H11Y 7724   7.038   1.701   9.348 -0.4735  0.3206 -0.2045
   82SAPS  C312 7725   6.998   1.863   9.198 -0.0036  0.5045 -0.3105
   82SAPS  H12X 7726   6.940   1.958   9.193  0.1326  0.5762 -0.5057
   82SAPS  H12Y 7727   6.949   1.805   9.117  0.6455  0.5324 -0.7239
   82SAPS  C313 7728   7.144   1.893   9.178  0.0285  0.1881  0.8741
   82SAPS  H13X 7729   7.186   1.975   9.239  3.2207 -0.9314  0.2639
   82SAPS  H13Y 7730   7.165   1.921   9.072  1.3020  0.6204  1.2370
   82SAPS  C314 7731   7.239   1.770   9.196 -0.4037  0.1155  1.0892
   82SAPS  H14X 7732   7.213   1.689   9.125  4.4884  0.3312 -1.1389
   82SAPS  H14Y 7733   7.249   1.742   9.303  1.5500 -0.8639  0.6687
   82SAPS  C315 7734   7.383   1.814   9.152 -0.0011 -1.0637  0.0848
   82SAPS  H15X 7735   7.421   1.894   9.219 -0.3617 -1.7561  1.1326
   82SAPS  H15Y 7736   7.379   1.863   9.052  1.5651 -1.0437  0.0179
   82SAPS  C316 7737   7.481   1.694   9.129 -0.6930 -0.2496  0.3752
   82SAPS  H16X 7738   7.439   1.624   9.053  5.3292 -2.1283 -1.5620
   82SAPS  H16Y 7739   7.482   1.637   9.225  0.9268  1.2413  1.2747
   82SAPS  C317 7740   7.619   1.731   9.071 -0.2748 -0.1810 -0.1418
   82SAPS  H17X 7741   7.611   1.773   8.968  1.1670  2.2084  0.6797
   82SAPS  H17Y 7742   7.686   1.643   9.061  0.0574 -0.2418  2.2426
   82SAPS  C318 7743   7.700   1.841   9.152  0.0355  0.1795 -0.0421
   82SAPS  H18X 7744   7.728   1.805   9.254 -0.1684  1.0079  0.3110
   82SAPS  H18Y 7745   7.648   1.938   9.167  1.6537  0.9807  0.5203
   82SAPS  H18Z 7746   7.791   1.867   9.095 -0.5874 -0.1061 -1.1856
   83SAPS     N 7747   2.157   3.523  11.373 -0.2703  0.2221 -0.4394
   83SAPS   HN1 7748   2.234   3.575  11.420 -1.6680  2.7670 -0.8897
   83SAPS   HN2 7749   2.073   3.582  11.383  0.1478  0.6379  0.7672
   83SAPS   HN3 7750   2.144   3.440  11.434 -0.5957  0.9865  0.5335
   83SAPS   C12 7751   2.202   3.481  11.233 -0.4540 -0.1276 -0.3455
   83SAPS  H12A 7752   2.254   3.570  11.199  0.0687 -0.4159 -0.3052
   83SAPS   C13 7753   2.312   3.375  11.241 -0.0034 -0.2411  0.3631
   83SAPS  O13A 7754   2.351   3.334  11.354 -0.2219 -0.2444 -0.4696
   83SAPS  O13B 7755   2.346   3.324  11.133 -0.3298  0.3159  0.5457
   83SAPS   C11 7756   2.087   3.425  11.141 -0.2298  0.5862 -0.3826
   83SAPS  H11A 7757   2.069   3.318  11.162  1.2344 -0.0275 -2.2480
   83SAPS  H11B 7758   2.126   3.432  11.038 -0.9025 -0.4379 -0.7127
   83SAPS     P 7759   1.828   3.482  11.105  0.0702 -0.0413  0.0927
   83SAPS   O13 7760   1.775   3.352  11.149 -0.6734 -0.0872  0.5443
   83SAPS   O14 7761   1.740   3.597  11.134  0.4126 -0.1184 -0.2365
   83SAPS   O12 7762   1.974   3.509  11.161  0.1347 -0.6872  0.5068
   83SAPS   O11 7763   1.852   3.473  10.944 -0.3079  0.2117  0.4718
   83SAPS    C1 7764   1.899   3.589  10.881  0.1578 -0.4461  0.0517
   83SAPS    HA 7765   1.819   3.667  10.886  0.5135 -0.0358 -0.5661
   83SAPS    HB 7766   1.988   3.622  10.938 -0.3413  0.0021  0.5773
   83SAPS    C2 7767   1.949   3.562  10.742  0.0991  0.2554  0.0249
   83SAPS    HS 7768   1.966   3.662  10.698 -2.3646 -0.1621 -1.9905
   83SAPS   O21 7769   1.867   3.471  10.658  0.1517 -0.0891 -0.3000
   83SAPS   C21 7770   1.752   3.527  10.611 -0.7002 -0.7691  0.4401
   83SAPS   O22 7771   1.718   3.640  10.630 -0.3975 -0.6265  0.3854
   83SAPS   C22 7772   1.675   3.425  10.531  0.1440 -0.5608  1.5069
   83SAPS   H2R 7773   1.731   3.331  10.510  0.5496 -0.1266  0.6074
   83SAPS   H2S 7774   1.588   3.411  10.598  0.6671  1.7108  2.7151
   83SAPS    C3 7775   2.096   3.494  10.753  0.5926  0.1485  0.0554
   83SAPS    HX 7776   2.090   3.404  10.818  4.7135 -0.6396 -0.4747
   83SAPS    HY 7777   2.158   3.572  10.804  1.1289  0.4457 -1.0252
   83SAPS   O31 7778   2.149   3.449  10.623 -0.3755 -0.1036 -0.3858
   83SAPS   C31 7779   2.241   3.529  10.561  0.5420  0.6861 -0.5195
   83SAPS   O32 7780   2.270   3.647  10.594 -0.4105  0.7947 -0.6742
   83SAPS   C32 7781   2.320   3.448  10.458  0.2296  0.5883 -0.1652
   83SAPS   H2X 7782   2.337   3.347  10.501  1.4805  0.0002 -1.9969
   83SAPS   H2Y 7783   2.419   3.492  10.433  0.5948 -0.2489 -0.1897
   83SAPS   C23 7784   1.639   3.478  10.393  0.7291 -0.2126  0.3508
   83SAPS   H3R 7785   1.692   3.574  10.376 -1.3183  0.7804 -0.7653
   83SAPS   H3S 7786   1.532   3.508  10.397  0.9719  0.6214  0.8296
   83SAPS   C24 7787   1.660   3.381  10.277 -0.2384  0.4722 -0.2997
   83SAPS   H4R 7788   1.602   3.290  10.303 -1.7364  1.2309 -0.9967
   83SAPS   H4S 7789   1.767   3.349  10.274 -0.7711 -1.4570  0.3577
   83SAPS   C25 7790   1.610   3.447  10.144 -0.2199 -1.2288 -0.9208
   83SAPS   H5R 7791   1.529   3.520  10.153 -0.2403 -1.2861 -0.6416
   83SAPS   C26 7792   1.650   3.416  10.019 -0.1551  0.3276 -0.4666
   83SAPS   H6R 7793   1.625   3.485   9.938  1.5138 -0.0335 -1.3091
   83SAPS   C27 7794   1.743   3.303   9.999  0.0493 -0.2510  0.2874
   83SAPS   H7R 7795   1.684   3.216   9.964 -1.6960  0.6182  1.0276
   83SAPS   H7S 7796   1.790   3.261  10.090 -3.2822 -2.2797  1.1454
   83SAPS   C28 7797   1.841   3.347   9.900 -0.1215 -0.0177 -0.5126
   83SAPS   H8R 7798   1.940   3.376   9.937 -1.1298  2.1061  0.6137
   83SAPS   C29 7799   1.830   3.338   9.768 -0.2169 -0.2294  0.0184
   83SAPS   H9R 7800   1.918   3.384   9.720  1.7632 -1.1229  2.6644
   83SAPS  C210 7801   1.711   3.295   9.687 -0.4410 -0.1229  1.5833
   83SAPS  H10R 7802   1.618   3.316   9.743 -1.6795  0.0596 -0.4763
   83SAPS  H10S 7803   1.713   3.186   9.666 -0.3852  0.1906 -0.1656
   83SAPS  C211 7804   1.712   3.365   9.552 -0.0444  0.1839  0.0602
   83SAPS  H11R 7805   1.632   3.441   9.546  0.2504  0.4057 -1.2685
   83SAPS  C212 7806   1.782   3.349   9.443 -0.0045  0.1296 -0.2075
   83SAPS  H12R 7807   1.760   3.402   9.349  3.2835  0.0728 -1.0575
   83SAPS  C213 7808   1.889   3.246   9.414 -0.2349 -0.6710  0.5321
   83SAPS  H13R 7809   1.850   3.166   9.347 -2.0961 -0.8823  1.8112
   83SAPS  H13S 7810   1.921   3.193   9.506 -0.4108  0.2845  1.1460
   83SAPS  C214 7811   2.012   3.301   9.345  0.1779  0.3695  0.0405
   83SAPS  H14R 7812   2.092   3.337   9.411  0.3806  1.6606 -0.8841
   83SAPS  C215 7813   2.037   3.291   9.211 -0.1195  0.3950  0.0718
   83SAPS  H15R 7814   2.131   3.333   9.173 -0.8860  0.8040 -1.4052
   83SAPS  C216 7815   1.955   3.232   9.105  0.0171  0.9333 -0.2912
   83SAPS  H16R 7816   1.893   3.146   9.139 -0.3110  0.4465 -2.0426
   83SAPS  H16S 7817   2.022   3.213   9.018  1.0868  2.9048  0.0803
   83SAPS  C217 7818   1.852   3.333   9.041  0.0879 -0.0604 -0.4289
   83SAPS  H17R 7819   1.899   3.433   9.056 -0.3869 -0.1457  1.7727
   83SAPS  H17S 7820   1.762   3.328   9.107  1.1820  1.5459  1.2176
   83SAPS  C218 7821   1.818   3.289   8.896 -0.4116  0.8433  0.0120
   83SAPS  H18R 7822   1.782   3.184   8.894  3.0176 -0.4017 -2.3299
   83SAPS  H18S 7823   1.914   3.291   8.839 -1.2039  0.5853 -1.3667
   83SAPS  C219 7824   1.727   3.387   8.825  0.1525 -0.0138  0.6780
   83SAPS  H19R 7825   1.772   3.488   8.835 -0.4915  0.0819  2.8484
   83SAPS  H19S 7826   1.626   3.402   8.868 -0.3216 -1.1126 -0.0189
   83SAPS  C220 7827   1.711   3.366   8.669  0.1997  0.4687  0.6749
   83SAPS  H20R 7828   1.655   3.272   8.649 -1.4467  1.2487  1.4616
   83SAPS  H20S 7829   1.801   3.365   8.605  1.7230  3.3641  2.6358
   83SAPS  H20T 7830   1.644   3.447   8.632  1.7507  0.3315 -2.5041
   83SAPS   C33 7831   2.242   3.444  10.322 -0.5521 -0.0593 -0.1832
   83SAPS   H3X 7832   2.145   3.391  10.335  1.1004 -3.0707  0.1945
   83SAPS   H3Y 7833   2.299   3.389  10.245  0.1686  0.4548 -0.0213
   83SAPS   C34 7834   2.223   3.588  10.271  0.7790  0.2516  0.1559
   83SAPS   H4X 7835   2.324   3.636  10.277  0.6964  0.6274 -1.2852
   83SAPS   H4Y 7836   2.161   3.651  10.338 -0.3387 -1.9475  1.2409
   83SAPS   C35 7837   2.182   3.592  10.123  0.1301  0.6436 -1.2883
   83SAPS   H5X 7838   2.149   3.686  10.073 -2.0326  0.2471 -0.6361
   83SAPS   H5Y 7839   2.099   3.518  10.122  0.6685 -0.0246  1.4819
   83SAPS   C36 7840   2.297   3.541  10.028  0.9477  0.0167  0.0774
   83SAPS   H6X 7841   2.325   3.435  10.048  1.0811  0.5291  2.7119
   83SAPS   H6Y 7842   2.389   3.599  10.050  0.3079  0.7491  0.7985
   83SAPS   C37 7843   2.257   3.550   9.877  0.3206 -0.1121 -0.3144
   83SAPS   H7X 7844   2.249   3.655   9.841  1.6809  0.6724  1.5919
   83SAPS   H7Y 7845   2.155   3.507   9.878  0.0865  0.3810 -1.4924
   83SAPS   C38 7846   2.349   3.475   9.788 -0.3832  0.4181  0.1316
   83SAPS   H8X 7847   2.349   3.368   9.819  0.8518  0.0732 -1.0131
   83SAPS   H8Y 7848   2.449   3.518   9.812 -0.7987  2.0053 -0.9140
   83SAPS   C39 7849   2.314   3.500   9.641 -0.6744 -0.1796 -0.1722
   83SAPS   H9X 7850   2.262   3.597   9.627  0.3857  0.2633 -1.0134
   83SAPS   H9Y 7851   2.233   3.424   9.629  0.0663 -1.0894  0.5601
   83SAPS  C310 7852   2.433   3.474   9.546 -0.2450  0.5252  0.2536
   83SAPS  H10X 7853   2.472   3.370   9.538  0.7844  1.0903 -2.8047
   83SAPS  H10Y 7854   2.522   3.539   9.563  1.5893 -1.8239 -0.0683
   83SAPS  C311 7855   2.390   3.509   9.400  0.6053  0.3689  0.1087
   83SAPS  H11X 7856   2.385   3.619   9.388 -0.5109 -0.0273 -3.5230
   83SAPS  H11Y 7857   2.290   3.466   9.374  0.4226  1.5490 -1.1909
   83SAPS  C312 7858   2.486   3.452   9.296  0.1664  0.5237 -0.0894
   83SAPS  H12X 7859   2.468   3.342   9.292 -0.1206  0.5005  1.3597
   83SAPS  H12Y 7860   2.590   3.461   9.336  0.0505 -0.5737  0.4978
   83SAPS  C313 7861   2.460   3.522   9.170 -0.1537 -0.0771 -0.2572
   83SAPS  H13X 7862   2.480   3.629   9.191  0.3172  0.0953 -1.5326
   83SAPS  H13Y 7863   2.352   3.514   9.143 -0.9711 -0.7276  2.9857
   83SAPS  C314 7864   2.555   3.499   9.052 -1.0928  0.4189 -1.2402
   83SAPS  H14X 7865   2.549   3.391   9.026  1.9937  0.1955 -1.2106
   83SAPS  H14Y 7866   2.663   3.517   9.075 -0.7476 -1.6538 -1.1210
   83SAPS  C315 7867   2.509   3.581   8.930 -0.5449 -0.3789 -0.1193
   83SAPS  H15X 7868   2.489   3.686   8.958  3.8979  1.1818 -2.3372
   83SAPS  H15Y 7869   2.416   3.533   8.892 -0.7537  0.4850 -0.7153
   83SAPS  C316 7870   2.619   3.590   8.824 -0.2094 -0.2184 -0.6300
   83SAPS  H16X 7871   2.704   3.652   8.860 -0.5261  0.8876 -1.7536
   83SAPS  H16Y 7872   2.577   3.655   8.744 -2.9301 -2.1136 -0.8238
   83SAPS  C317 7873   2.666   3.455   8.775  0.3870 -0.6638 -0.3928
   83SAPS  H17X 7874   2.583   3.385   8.752 -1.7280  1.2426  1.1548
   83SAPS  H17Y 7875   2.728   3.417   8.859  0.1499  1.9588  1.0247
   83SAPS  C318 7876   2.757   3.474   8.653  0.4909  0.2051  0.2002
   83SAPS  H18X 7877   2.828   3.559   8.664  0.3987  0.2899  0.1404
   83SAPS  H18Y 7878   2.698   3.486   8.560 -0.1604 -2.0965  0.2785
   83SAPS  H18Z 7879   2.817   3.382   8.636  0.5852  0.3994 -0.5425
   84SAPS     N 7880   3.959   3.010  11.187 -0.4865  0.1422  0.0654
   84SAPS   HN1 7881   3.916   2.971  11.101 -0.6425 -0.5622  0.4603
   84SAPS   HN2 7882   3.886   3.016  11.261 -0.4149 -0.1223  0.1586
   84SAPS   HN3 7883   3.987   3.105  11.155  1.7321 -0.4952  0.0499
   84SAPS   C12 7884   4.074   2.926  11.231  0.9329 -0.2946  1.2042
   84SAPS  H12A 7885   4.139   2.978  11.299  1.1709 -0.5648  1.1863
   84SAPS   C13 7886   4.025   2.796  11.300  0.2762 -0.6546  0.3783
   84SAPS  O13A 7887   3.904   2.769  11.310  0.0009  0.0881  0.0104
   84SAPS  O13B 7888   4.106   2.718  11.351  0.1321 -0.2399 -0.2022
   84SAPS   C11 7889   4.160   2.886  11.107 -0.0005 -0.0949  0.2454
   84SAPS  H11A 7890   4.097   2.832  11.033 -1.8305 -0.3536  1.9408
   84SAPS  H11B 7891   4.248   2.827  11.139 -0.4550 -0.6232  0.5194
   84SAPS     P 7892   4.325   3.012  10.938  0.2511  0.0987 -0.2560
   84SAPS   O13 7893   4.358   3.159  10.922  0.2741 -0.1948  0.0694
   84SAPS   O14 7894   4.431   2.909  10.967  0.5385  0.1412  0.5355
   84SAPS   O12 7895   4.219   3.003  11.053  0.2822 -0.2323 -0.6273
   84SAPS   O11 7896   4.240   2.972  10.818 -0.2625  0.5577 -0.4926
   84SAPS    C1 7897   4.110   3.036  10.793 -0.9407  0.6677 -0.8163
   84SAPS    HA 7898   4.027   2.974  10.834  1.9804 -1.6540  1.9108
   84SAPS    HB 7899   4.102   3.137  10.837 -0.8066  0.3228  0.0253
   84SAPS    C2 7900   4.086   3.044  10.643  0.3202  0.7756 -0.3558
   84SAPS    HS 7901   3.996   3.107  10.628 -0.6608 -1.1397 -2.8447
   84SAPS   O21 7902   4.065   2.912  10.598 -0.2728 -0.0705  0.7103
   84SAPS   C21 7903   3.957   2.896  10.530  0.3131 -0.4471  0.8685
   84SAPS   O22 7904   3.868   2.978  10.503  0.6926 -0.4080  0.2245
   84SAPS   C22 7905   3.939   2.751  10.501 -0.0437  0.2988 -0.9282
   84SAPS   H2R 7906   3.951   2.690  10.593 -0.5146  1.3520 -0.1686
   84SAPS   H2S 7907   3.834   2.749  10.465 -0.1101 -2.5350 -0.7135
   84SAPS    C3 7908   4.203   3.114  10.561  0.1634  0.1107 -0.0772
   84SAPS    HX 7909   4.280   3.035  10.566 -0.1142 -0.2967 -1.8584
   84SAPS    HY 7910   4.238   3.207  10.611  0.0136 -0.7557  1.6868
   84SAPS   O31 7911   4.166   3.144  10.423  0.3456  0.2733  0.5446
   84SAPS   C31 7912   4.097   3.255  10.402  0.4060 -0.5631 -0.8514
   84SAPS   O32 7913   4.047   3.320  10.495 -0.0358  0.6855  0.0950
   84SAPS   C32 7914   4.086   3.294  10.257 -0.6239 -0.6304  0.3631
   84SAPS   H2X 7915   4.192   3.292  10.225  0.2555  0.7977  3.0762
   84SAPS   H2Y 7916   4.036   3.393  10.257 -0.4400 -0.5262 -1.4259
   84SAPS   C23 7917   4.032   2.692  10.402 -0.1532 -0.1707  0.2789
   84SAPS   H3R 7918   4.003   2.585  10.392 -0.7211 -0.0518  0.6599
   84SAPS   H3S 7919   4.136   2.696  10.441 -0.2168  0.6903  0.3682
   84SAPS   C24 7920   4.052   2.769  10.269  0.2319 -1.1088  0.3248
   84SAPS   H4R 7921   4.084   2.869  10.306  0.8001 -0.9650 -0.5334
   84SAPS   H4S 7922   3.950   2.772  10.223  1.2962 -2.8374 -2.3078
   84SAPS   C25 7923   4.146   2.717  10.171 -0.7321  0.3642  0.1099
   84SAPS   H5R 7924   4.231   2.660  10.213 -1.6592  0.0933  1.6584
   84SAPS   C26 7925   4.138   2.725  10.040  0.4175 -0.5582 -0.3159
   84SAPS   H6R 7926   4.212   2.676   9.975  2.2406  2.0117 -0.2364
   84SAPS   C27 7927   4.035   2.792   9.954 -0.0071  0.0372 -0.0390
   84SAPS   H7R 7928   4.087   2.879   9.910  0.2892 -0.2681 -0.2945
   84SAPS   H7S 7929   3.959   2.836  10.023  0.7558 -0.3940  1.0989
   84SAPS   C28 7930   3.962   2.704   9.858  0.4385  0.1749 -0.1015
   84SAPS   H8R 7931   3.912   2.617   9.904  3.1082 -0.5906  1.4426
   84SAPS   C29 7932   3.945   2.720   9.722 -0.4958  1.1474  0.2267
   84SAPS   H9R 7933   3.890   2.636   9.677  0.4789 -0.2080  1.4993
   84SAPS  C210 7934   3.985   2.846   9.646  0.2773 -0.4463  0.9265
   84SAPS  H10R 7935   4.058   2.908   9.702 -1.8273  1.2458  1.8527
   84SAPS  H10S 7936   3.892   2.906   9.641  0.7842  0.1933 -2.6594
   84SAPS  C211 7937   4.039   2.811   9.504  0.3567  0.5057 -0.5609
   84SAPS  H11R 7938   4.129   2.747   9.505  0.0630  0.0488 -2.1572
   84SAPS  C212 7939   4.000   2.843   9.383 -0.1133  0.2732 -0.3224
   84SAPS  H12R 7940   4.066   2.803   9.304 -2.2939 -4.2150 -0.0129
   84SAPS  C213 7941   3.887   2.929   9.349  0.0761 -0.2611  0.3361
   84SAPS  H13R 7942   3.835   2.974   9.436 -2.7293 -1.4787 -0.6521
   84SAPS  H13S 7943   3.798   2.877   9.308  1.0266 -1.1484 -0.6328
   84SAPS  C214 7944   3.933   3.031   9.248  0.8243 -0.2957  0.2907
   84SAPS  H14R 7945   4.041   3.054   9.251  0.5330  0.9697  2.1014
   84SAPS  C215 7946   3.854   3.112   9.169 -0.0078 -0.0397  0.6654
   84SAPS  H15R 7947   3.903   3.171   9.091 -1.1516 -1.5414 -1.2321
   84SAPS  C216 7948   3.709   3.109   9.165 -0.3117  0.3257 -0.4603
   84SAPS  H16R 7949   3.659   3.204   9.194 -0.7659 -0.3497  1.0357
   84SAPS  H16S 7950   3.669   3.025   9.226  0.5296 -0.8868 -1.5717
   84SAPS  C217 7951   3.661   3.075   9.025  0.1225 -0.1543  0.4703
   84SAPS  H17R 7952   3.697   2.977   8.985 -0.1607 -0.6890  1.5074
   84SAPS  H17S 7953   3.692   3.150   8.949 -0.2735 -0.6079 -0.1531
   84SAPS  C218 7954   3.505   3.053   9.015  0.1619  0.5506 -0.0561
   84SAPS  H18R 7955   3.454   3.139   9.063  0.0088  0.3402  0.1568
   84SAPS  H18S 7956   3.492   2.970   9.088 -1.7008  0.9929  0.1275
   84SAPS  C219 7957   3.454   3.025   8.878 -0.9038  0.3745 -0.7992
   84SAPS  H19R 7958   3.508   2.937   8.837 -0.2339  0.5079 -0.2086
   84SAPS  H19S 7959   3.481   3.110   8.811 -1.5390  0.7275 -0.6178
   84SAPS  C220 7960   3.308   3.003   8.875 -0.1168  0.2198 -0.9545
   84SAPS  H20R 7961   3.272   2.952   8.783 -0.3824 -1.5577  0.1159
   84SAPS  H20S 7962   3.244   3.091   8.898 -0.4705  0.1780 -1.7438
   84SAPS  H20T 7963   3.275   2.923   8.944 -2.1990  0.6090 -1.4717
   84SAPS   C33 7964   3.995   3.205  10.172 -0.1058 -0.3824 -0.2290
   84SAPS   H3X 7965   4.045   3.107  10.185  0.6117 -0.1116 -0.9063
   84SAPS   H3Y 7966   3.996   3.236  10.065 -1.0511 -2.3967 -0.8514
   84SAPS   C34 7967   3.848   3.202  10.226 -0.2785 -0.4619  0.2047
   84SAPS   H4X 7968   3.786   3.294  10.215  0.9416  0.5367  1.5421
   84SAPS   H4Y 7969   3.838   3.190  10.336 -0.7570  1.3429  0.3746
   84SAPS   C35 7970   3.773   3.079  10.167 -0.7706  0.1520 -0.4455
   84SAPS   H5X 7971   3.690   3.047  10.234 -1.0562  0.4340 -0.6722
   84SAPS   H5Y 7972   3.838   2.989  10.168 -1.9187 -0.6908  0.5033
   84SAPS   C36 7973   3.727   3.102  10.021  0.1776 -0.9443  0.0746
   84SAPS   H6X 7974   3.813   3.122   9.954  0.8782 -1.4454  0.8097
   84SAPS   H6Y 7975   3.654   3.186  10.029 -2.0221 -2.8902  1.3036
   84SAPS   C37 7976   3.654   2.982   9.964  0.2108 -0.2960  0.7313
   84SAPS   H7X 7977   3.564   2.966  10.027  1.3848  0.0468  2.5202
   84SAPS   H7Y 7978   3.714   2.889   9.963 -1.0726 -1.1595 -2.2083
   84SAPS   C38 7979   3.613   3.004   9.813 -0.5299  0.0620 -0.0455
   84SAPS   H8X 7980   3.705   3.010   9.751 -1.1924  2.3415 -0.8432
   84SAPS   H8Y 7981   3.555   3.099   9.809  0.2855  0.6057  0.7166
   84SAPS   C39 7982   3.530   2.893   9.752  0.4364  0.4060 -0.8520
   84SAPS   H9X 7983   3.421   2.906   9.773  0.4761 -0.5302 -0.0870
   84SAPS   H9Y 7984   3.554   2.792   9.791  0.6994  1.6011  2.1939
   84SAPS  C310 7985   3.533   2.899   9.597 -0.3830 -0.2252  0.3742
   84SAPS  H10X 7986   3.629   2.854   9.566 -0.8067  0.0466 -1.3706
   84SAPS  H10Y 7987   3.527   3.002   9.556  0.6521  0.0476  0.8902
   84SAPS  C311 7988   3.431   2.808   9.533  0.3526 -0.0367  0.1844
   84SAPS  H11X 7989   3.329   2.854   9.540  0.0384 -0.7585  0.3955
   84SAPS  H11Y 7990   3.429   2.711   9.587 -0.3062 -0.6493 -0.9286
   84SAPS  C312 7991   3.462   2.799   9.386 -0.8488  0.3902 -0.2369
   84SAPS  H12X 7992   3.556   2.740   9.377 -0.3118  1.2847 -0.5000
   84SAPS  H12Y 7993   3.477   2.904   9.353 -1.2616  0.7121  0.5787
   84SAPS  C313 7994   3.354   2.728   9.302  0.8507 -0.3147 -0.3099
   84SAPS  H13X 7995   3.264   2.792   9.290  0.8480 -0.5735 -1.7599
   84SAPS  H13Y 7996   3.323   2.638   9.359 -0.4578 -0.7680 -1.7120
   84SAPS  C314 7997   3.413   2.689   9.161  0.1689  0.4547 -0.2505
   84SAPS  H14X 7998   3.491   2.611   9.174  0.5336  1.1258  1.6478
   84SAPS  H14Y 7999   3.463   2.771   9.104  0.2770  0.2215 -0.4959
   84SAPS  C315 8000   3.313   2.625   9.066  0.3805 -0.1130  0.9334
   84SAPS  H15X 8001   3.241   2.697   9.023 -0.2288  0.1751  2.4190
   84SAPS  H15Y 8002   3.248   2.560   9.128 -2.0703  0.4063 -1.0335
   84SAPS  C316 8003   3.365   2.536   8.948 -0.0486  0.0613  0.5479
   84SAPS  H16X 8004   3.431   2.453   8.982 -1.1412 -0.1161  2.3128
   84SAPS  H16Y 8005   3.440   2.590   8.887 -0.8860 -0.0498 -0.5868
   84SAPS  C317 8006   3.256   2.477   8.859 -0.5254 -0.0903 -0.8312
   84SAPS  H17X 8007   3.217   2.562   8.799  0.4039  2.0880  1.5337
   84SAPS  H17Y 8008   3.171   2.436   8.918  1.4485 -1.0217  1.4563
   84SAPS  C318 8009   3.320   2.374   8.767  0.1315  0.3615  0.5884
   84SAPS  H18X 8010   3.265   2.357   8.672 -0.1226  0.1714  0.7690
   84SAPS  H18Y 8011   3.329   2.277   8.819 -0.7686 -0.6164 -1.0291
   84SAPS  H18Z 8012   3.427   2.401   8.746  1.6938 -4.3166  2.0596
   85SAPS     N 8013   0.556   4.555  11.207 -0.4170  0.5143 -0.2432
   85SAPS   HN1 8014   0.617   4.491  11.152  0.6691  1.2798  0.0581
   85SAPS   HN2 8015   0.565   4.653  11.176 -1.9000  1.5185  2.3748
   85SAPS   HN3 8016   0.593   4.551  11.304 -3.5620  0.9405  1.0272
   85SAPS   C12 8017   0.421   4.495  11.211  0.5947 -0.1252 -0.3821
   85SAPS  H12A 8018   0.437   4.403  11.265 -1.3222  0.0044  0.4391
   85SAPS   C13 8019   0.316   4.573  11.286 -0.8204  0.5166  0.1012
   85SAPS  O13A 8020   0.344   4.684  11.343  0.3709  0.3895  0.5571
   85SAPS  O13B 8021   0.202   4.522  11.287 -0.0373  0.3065  0.3318
   85SAPS   C11 8022   0.384   4.459  11.066 -0.2915  0.1211 -0.0172
   85SAPS  H11A 8023   0.358   4.552  11.011 -0.7343  0.2014  0.3200
   85SAPS  H11B 8024   0.288   4.403  11.072  0.5543 -1.5517 -1.7059
   85SAPS     P 8025   0.465   4.358  10.840  0.0511 -0.2493  0.1545
   85SAPS   O13 8026   0.596   4.310  10.787  0.1220  0.4042 -0.7612
   85SAPS   O14 8027   0.355   4.257  10.833  0.0457  0.3631 -0.1234
   85SAPS   O12 8028   0.486   4.386  10.996 -0.3391  0.0472  0.4723
   85SAPS   O11 8029   0.423   4.496  10.777 -0.2811  0.3502 -0.4681
   85SAPS    C1 8030   0.514   4.609  10.798  0.0183  0.0693 -0.0543
   85SAPS    HA 8031   0.525   4.645  10.903  1.2907  0.9525 -0.4873
   85SAPS    HB 8032   0.615   4.575  10.768 -0.2347 -1.0871  0.3870
   85SAPS    C2 8033   0.479   4.732  10.719  0.4799  0.4173  0.4124
   85SAPS    HS 8034   0.396   4.784  10.772 -1.1082 -1.4202 -0.2049
   85SAPS   O21 8035   0.454   4.676  10.583  0.6159  0.3231 -0.5049
   85SAPS   C21 8036   0.329   4.655  10.569 -0.8517 -0.4456 -0.1668
   85SAPS   O22 8037   0.237   4.684  10.641  0.4661 -0.5808 -0.0554
   85SAPS   C22 8038   0.311   4.572  10.437 -0.2443  0.1989 -0.3172
   85SAPS   H2R 8039   0.384   4.619  10.368 -2.4113  1.0986 -2.0672
   85SAPS   H2S 8040   0.318   4.462  10.452  0.9496  0.2928 -0.1066
   85SAPS    C3 8041   0.590   4.840  10.703  0.6100  0.5711 -0.2658
   85SAPS    HX 8042   0.622   4.848  10.810 -0.8120 -0.1618  0.2283
   85SAPS    HY 8043   0.526   4.919  10.659  0.4361  1.0952  0.9056
   85SAPS   O31 8044   0.710   4.800  10.629 -0.3525  0.0139 -0.5274
   85SAPS   C31 8045   0.773   4.903  10.575  0.6450 -0.1597 -0.1753
   85SAPS   O32 8046   0.752   5.018  10.604 -0.1967  0.2715  0.2037
   85SAPS   C32 8047   0.862   4.842  10.464 -0.2004 -1.1448  0.7373
   85SAPS   H2X 8048   0.967   4.844  10.500  0.1990 -0.4704 -0.4496
   85SAPS   H2Y 8049   0.875   4.925  10.391 -2.3486  0.9207  2.6109
   85SAPS   C23 8050   0.170   4.588  10.375  0.0626  0.5058  0.1965
   85SAPS   H3R 8051   0.137   4.694  10.384  0.4352  0.7231 -1.0137
   85SAPS   H3S 8052   0.098   4.528  10.434 -0.1235  0.1418 -0.3975
   85SAPS   C24 8053   0.175   4.551  10.225  0.8671  0.8090 -0.2375
   85SAPS   H4R 8054   0.241   4.615  10.162 -3.1971  3.5154 -1.9809
   85SAPS   H4S 8055   0.072   4.574  10.189  0.3116  2.9593  2.5947
   85SAPS   C25 8056   0.198   4.403  10.194  0.1394 -0.2565 -0.2739
   85SAPS   H5R 8057   0.125   4.340  10.246 -0.8418  0.2283 -1.0621
   85SAPS   C26 8058   0.304   4.342  10.134 -0.0929  0.6951 -0.1424
   85SAPS   H6R 8059   0.298   4.232  10.130  1.3232  0.4082  3.7323
   85SAPS   C27 8060   0.426   4.407  10.082 -0.5332 -0.7026 -0.0314
   85SAPS   H7R 8061   0.429   4.518  10.092 -0.6564 -0.6576 -0.4502
   85SAPS   H7S 8062   0.436   4.388   9.973  1.0215  0.3976 -0.1028
   85SAPS   C28 8063   0.564   4.356  10.134 -0.5268 -0.0605  0.1048
   85SAPS   H8R 8064   0.592   4.398  10.232 -1.5831 -0.1438  0.4473
   85SAPS   C29 8065   0.652   4.275  10.073  0.0104  0.2818  0.0944
   85SAPS   H9R 8066   0.749   4.252  10.119 -1.1098  1.0648  2.9044
   85SAPS  C210 8067   0.642   4.217   9.934  0.1665  0.6885 -0.2836
   85SAPS  H10R 8068   0.710   4.130   9.925  0.8989  0.9299  2.4001
   85SAPS  H10S 8069   0.673   4.283   9.851 -0.7667 -0.7686 -1.8202
   85SAPS  C211 8070   0.511   4.145   9.883  0.7256 -0.3917 -0.5822
   85SAPS  H11R 8071   0.473   4.066   9.949 -2.5686  0.5814 -1.2306
   85SAPS  C212 8072   0.442   4.178   9.770  0.0106 -0.6413  0.2479
   85SAPS  H12R 8073   0.341   4.135   9.760 -1.4608  1.6775  3.9007
   85SAPS  C213 8074   0.475   4.290   9.677 -0.1746 -0.7863 -0.3967
   85SAPS  H13R 8075   0.583   4.293   9.650 -0.0273 -1.8382  0.0667
   85SAPS  H13S 8076   0.463   4.386   9.732  3.0532 -0.1922 -0.6229
   85SAPS  C214 8077   0.384   4.290   9.554  0.6121  0.1982  0.0779
   85SAPS  H14R 8078   0.304   4.366   9.564  0.1556 -0.2288 -0.2744
   85SAPS  C215 8079   0.400   4.218   9.447 -0.0241 -0.5562  0.5603
   85SAPS  H15R 8080   0.330   4.234   9.364 -0.7230 -0.9354  1.0750
   85SAPS  C216 8081   0.510   4.120   9.417 -0.4565 -0.0011 -0.4390
   85SAPS  H16R 8082   0.490   4.030   9.479  0.4732 -1.0842 -1.6728
   85SAPS  H16S 8083   0.608   4.157   9.455 -0.7427  1.3634 -1.0062
   85SAPS  C217 8084   0.525   4.085   9.272  0.0774 -0.6053  0.5987
   85SAPS  H17R 8085   0.528   4.179   9.212 -1.3533 -0.5730  0.5560
   85SAPS  H17S 8086   0.433   4.031   9.241  0.2360 -0.2610 -0.4787
   85SAPS  C218 8087   0.636   3.983   9.248 -0.3586 -0.8541  0.6287
   85SAPS  H18R 8088   0.610   3.882   9.288 -1.4703 -1.3427 -1.2316
   85SAPS  H18S 8089   0.726   4.009   9.306 -1.1134 -0.3360  1.5709
   85SAPS  C219 8090   0.660   3.960   9.092 -0.3941  0.5708  0.1353
   85SAPS  H19R 8091   0.757   3.909   9.074  0.4980  2.5596 -0.8435
   85SAPS  H19S 8092   0.672   4.058   9.042  0.1215 -0.5023 -1.8879
   85SAPS  C220 8093   0.536   3.891   9.024 -0.4949 -0.3022 -0.0342
   85SAPS  H20R 8094   0.445   3.954   9.021 -1.0147 -0.9190  2.1287
   85SAPS  H20S 8095   0.518   3.784   9.049  0.0595 -0.6522 -1.0674
   85SAPS  H20T 8096   0.552   3.872   8.915  1.8999  1.6098 -0.0813
   85SAPS   C33 8097   0.838   4.703  10.408 -0.4061 -0.5626  0.4444
   85SAPS   H3X 8098   0.735   4.694  10.369 -0.0396 -1.3017 -0.3786
   85SAPS   H3Y 8099   0.847   4.620  10.481 -0.5953 -2.4234 -1.5743
   85SAPS   C34 8100   0.936   4.677  10.291 -0.5479 -0.2527  0.2483
   85SAPS   H4X 8101   1.036   4.640  10.324  0.6366  0.9429 -1.8662
   85SAPS   H4Y 8102   0.957   4.777  10.248 -0.7951  0.1597  1.0737
   85SAPS   C35 8103   0.883   4.591  10.186  0.2837  0.0906  0.7562
   85SAPS   H5X 8104   0.781   4.619  10.152 -0.1549 -2.1037  0.1791
   85SAPS   H5Y 8105   0.866   4.491  10.231 -2.5484  0.6060  0.9156
   85SAPS   C36 8106   0.978   4.589  10.067 -0.0751 -0.7084  0.0053
   85SAPS   H6X 8107   1.077   4.549  10.098 -0.4377 -2.6865 -1.2816
   85SAPS   H6Y 8108   1.006   4.687  10.022 -1.1649  0.2387  1.3557
   85SAPS   C37 8109   0.914   4.493   9.956 -0.2904 -0.8197 -0.3390
   85SAPS   H7X 8110   0.810   4.529   9.943  0.5970  1.4496 -1.3955
   85SAPS   H7Y 8111   0.915   4.386   9.986 -2.3807 -1.7549 -3.3747
   85SAPS   C38 8112   0.988   4.507   9.820 -0.3575  0.4229 -0.1172
   85SAPS   H8X 8113   1.094   4.485   9.842 -0.8166  1.0894  3.0316
   85SAPS   H8Y 8114   0.974   4.616   9.801  0.0193  0.0815 -2.4847
   85SAPS   C39 8115   0.929   4.410   9.718  0.3733  0.5859 -0.5407
   85SAPS   H9X 8116   0.819   4.420   9.720  0.4680  1.4429  1.3685
   85SAPS   H9Y 8117   0.947   4.309   9.761 -3.0210 -0.2346 -0.9137
   85SAPS  C310 8118   0.996   4.429   9.580 -0.0221 -0.0580  0.3190
   85SAPS  H10X 8119   1.101   4.398   9.595  0.0775 -0.6968 -1.6163
   85SAPS  H10Y 8120   0.998   4.538   9.559  4.6258  0.1593  1.4415
   85SAPS  C311 8121   0.924   4.352   9.468  0.2378 -0.0267 -0.2730
   85SAPS  H11X 8122   0.815   4.350   9.490  0.3930  2.1011  0.7320
   85SAPS  H11Y 8123   0.953   4.245   9.477 -0.1445 -0.1292 -0.2665
   85SAPS  C312 8124   0.935   4.409   9.327 -0.2075 -0.1511  0.1461
   85SAPS  H12X 8125   1.039   4.420   9.288 -0.4083  2.7898  0.2804
   85SAPS  H12Y 8126   0.881   4.506   9.320  0.1211  0.0096 -0.1887
   85SAPS  C313 8127   0.868   4.309   9.237 -0.4033  0.6601 -0.3847
   85SAPS  H13X 8128   0.764   4.304   9.275  0.1595 -0.5786  1.0572
   85SAPS  H13Y 8129   0.918   4.211   9.248  1.0401  1.3111 -1.0438
   85SAPS  C314 8130   0.880   4.366   9.092 -0.3094  0.6557  1.1318
   85SAPS  H14X 8131   0.839   4.469   9.098 -1.8788  0.1184 -0.0808
   85SAPS  H14Y 8132   0.809   4.309   9.029 -0.5226  3.2159 -1.0110
   85SAPS  C315 8133   1.022   4.363   9.026  0.7728  0.4213  0.4158
   85SAPS  H15X 8134   1.069   4.264   9.044  0.5804  0.1627 -0.4918
   85SAPS  H15Y 8135   1.089   4.440   9.070 -0.5237  2.5736 -1.3135
   85SAPS  C316 8136   1.010   4.372   8.874  0.3208  0.3787  0.4651
   85SAPS  H16X 8137   0.945   4.286   8.848  1.9865 -0.7481 -0.0021
   85SAPS  H16Y 8138   1.103   4.369   8.814 -0.6876  0.9705 -1.1786
   85SAPS  C317 8139   0.926   4.488   8.810 -0.4741 -0.2075  0.2085
   85SAPS  H17X 8140   0.942   4.578   8.874 -0.7205 -0.0133 -0.0022
   85SAPS  H17Y 8141   0.821   4.459   8.832 -0.6503 -0.6688 -1.1815
   85SAPS  C318 8142   0.931   4.510   8.659 -0.5296 -0.0645 -0.5369
   85SAPS  H18X 8143   0.854   4.445   8.613 -2.3038  0.1058  2.1033
   85SAPS  H18Y 8144   1.035   4.506   8.618  0.1438 -0.3914  1.1653
   85SAPS  H18Z 8145   0.904   4.617   8.645 -0.1941 -0.0158 -0.8222
   86SAPS     N 8146   2.123   4.684  11.118 -0.1455  0.4971 -0.6252
   86SAPS   HN1 8147   2.216   4.666  11.075 -0.9223 -0.5178 -1.9291
   86SAPS   HN2 8148   2.139   4.735  11.207  0.1338 -0.6822  0.0236
   86SAPS   HN3 8149   2.058   4.605  11.139 -0.1636  1.2254  2.2230
   86SAPS   C12 8150   2.047   4.767  11.023  0.4442 -0.1490 -0.4572
   86SAPS  H12A 8151   2.029   4.726  10.925  1.5115  1.3354 -1.2891
   86SAPS   C13 8152   1.903   4.805  11.075 -0.4028  0.3896 -0.0496
   86SAPS  O13A 8153   1.852   4.747  11.175 -0.0364 -0.1917 -0.0968
   86SAPS  O13B 8154   1.838   4.871  10.993  0.0975  0.5636  0.2810
   86SAPS   C11 8155   2.122   4.899  10.998  0.2428  1.0715  0.3438
   86SAPS  H11A 8156   2.101   4.973  11.078  0.5381  0.8062  0.6668
   86SAPS  H11B 8157   2.076   4.942  10.906  2.1076  3.0794  0.3132
   86SAPS     P 8158   2.360   4.961  10.894 -0.2686 -0.5404  0.0771
   86SAPS   O13 8159   2.351   5.111  10.913 -0.3498  0.3458  0.4508
   86SAPS   O14 8160   2.487   4.900  10.892  0.3090  0.0968 -0.6243
   86SAPS   O12 8161   2.265   4.891  11.000  0.1531  0.6810  0.0671
   86SAPS   O11 8162   2.287   4.924  10.762  0.1243  0.0125 -0.0773
   86SAPS    C1 8163   2.260   4.792  10.719 -0.2099 -0.1065  0.0111
   86SAPS    HA 8164   2.300   4.716  10.789  0.5623  1.7424  1.6345
   86SAPS    HB 8165   2.151   4.776  10.708  0.0070 -1.9102  0.4086
   86SAPS    C2 8166   2.303   4.770  10.567 -0.2423  0.2886 -0.8479
   86SAPS    HS 8167   2.399   4.825  10.574 -0.9246  1.2847  1.0256
   86SAPS   O21 8168   2.195   4.834  10.494  0.0589 -0.0962  0.6328
   86SAPS   C21 8169   2.218   4.941  10.419  0.2293  0.0871 -0.5838
   86SAPS   O22 8170   2.326   4.997  10.406 -0.2158 -0.8451 -0.9292
   86SAPS   C22 8171   2.093   4.988  10.344  0.0246 -0.5569  0.3565
   86SAPS   H2R 8172   2.007   4.919  10.356  0.9540 -1.9701 -0.8878
   86SAPS   H2S 8173   2.062   5.082  10.395 -1.1015  1.5050 -3.9235
   86SAPS    C3 8174   2.324   4.625  10.514  0.8030 -0.1263 -0.1020
   86SAPS    HX 8175   2.225   4.574  10.517 -0.9161  3.0838  2.8037
   86SAPS    HY 8176   2.390   4.582  10.592  0.5303  1.5393  1.0870
   86SAPS   O31 8177   2.371   4.620  10.377 -0.2891  0.3661  0.2463
   86SAPS   C31 8178   2.499   4.642  10.365 -0.4117  0.3040 -0.1035
   86SAPS   O32 8179   2.579   4.657  10.453 -0.2153 -0.8580 -0.1488
   86SAPS   C32 8180   2.539   4.634  10.217  0.4689 -0.3085  0.0456
   86SAPS   H2X 8181   2.477   4.707  10.161 -1.0296 -1.6200 -0.0569
   86SAPS   H2Y 8182   2.514   4.537  10.169 -2.4914 -0.5541  1.9396
   86SAPS   C23 8183   2.126   5.012  10.199  0.3106  0.1579  0.4013
   86SAPS   H3R 8184   2.220   4.964  10.163 -0.2498 -0.8561  0.2501
   86SAPS   H3S 8185   2.117   5.118  10.166 -1.6303 -0.2354 -0.4594
   86SAPS   C24 8186   2.021   4.940  10.109  0.4226 -0.3092  0.4076
   86SAPS   H4R 8187   1.918   4.964  10.143  0.2414 -0.7769  0.1937
   86SAPS   H4S 8188   2.042   4.831  10.121  2.0485 -0.1336 -0.7282
   86SAPS   C25 8189   2.011   4.961   9.957  0.2057 -0.4523  0.4156
   86SAPS   H5R 8190   1.994   5.066   9.929 -0.7809 -0.3780  1.2830
   86SAPS   C26 8191   1.989   4.866   9.860  0.0063  0.0751 -0.1549
   86SAPS   H6R 8192   1.985   4.903   9.756  0.0835  1.1806  0.2211
   86SAPS   C27 8193   1.997   4.713   9.880 -0.4218 -0.2039 -0.6685
   86SAPS   H7R 8194   2.050   4.678   9.971  1.9511 -1.8416 -2.5895
   86SAPS   H7S 8195   2.058   4.667   9.798  0.4529 -0.3673  0.0618
   86SAPS   C28 8196   1.866   4.635   9.899 -0.2071 -0.0753  0.6147
   86SAPS   H8R 8197   1.854   4.611  10.005  2.0060 -0.5690  0.7821
   86SAPS   C29 8198   1.779   4.612   9.798  1.0733 -0.0352  0.3687
   86SAPS   H9R 8199   1.695   4.548   9.827  0.9361 -0.5776 -1.1914
   86SAPS  C210 8200   1.795   4.653   9.654  0.1795  0.6150 -0.0284
   86SAPS  H10R 8201   1.754   4.577   9.584  2.9546 -0.5979 -0.4215
   86SAPS  H10S 8202   1.902   4.648   9.622 -0.0941 -1.3245 -0.6839
   86SAPS  C211 8203   1.747   4.791   9.618 -0.7444  0.4341  0.0579
   86SAPS  H11R 8204   1.716   4.850   9.705 -2.0569 -0.9334  0.5369
   86SAPS  C212 8205   1.713   4.832   9.494  0.1098  0.1335 -0.0466
   86SAPS  H12R 8206   1.668   4.931   9.476 -2.3507 -0.8226  0.6603
   86SAPS  C213 8207   1.713   4.749   9.364 -0.3449 -0.0936  0.2854
   86SAPS  H13R 8208   1.646   4.809   9.299 -1.0003  0.6367  1.6096
   86SAPS  H13S 8209   1.663   4.652   9.385  0.0194 -0.2703  0.3276
   86SAPS  C214 8210   1.857   4.728   9.313 -0.0005 -0.0737  0.0584
   86SAPS  H14R 8211   1.936   4.770   9.378  0.0561  0.3776 -0.2960
   86SAPS  C215 8212   1.889   4.653   9.200  0.7399  0.2511  0.3435
   86SAPS  H15R 8213   1.992   4.662   9.163  1.2035 -0.1345  1.5289
   86SAPS  C216 8214   1.782   4.588   9.115 -0.1492 -0.3322  0.1572
   86SAPS  H16R 8215   1.737   4.504   9.172 -0.1004 -0.0793  0.5730
   86SAPS  H16S 8216   1.845   4.537   9.039  2.0082 -0.4702  1.9817
   86SAPS  C217 8217   1.675   4.672   9.051  0.0338 -0.0236 -0.2215
   86SAPS  H17R 8218   1.613   4.720   9.129 -1.6045 -2.9343  0.3232
   86SAPS  H17S 8219   1.602   4.604   9.002  0.7848 -1.0205  0.0232
   86SAPS  C218 8220   1.722   4.762   8.937 -0.4789  0.4393 -0.8298
   86SAPS  H18R 8221   1.824   4.793   8.967 -0.8277 -0.4658  1.3393
   86SAPS  H18S 8222   1.660   4.854   8.924 -0.2426  0.6162 -0.7004
   86SAPS  C219 8223   1.744   4.693   8.799 -0.1437  0.5281  0.1033
   86SAPS  H19R 8224   1.645   4.649   8.776 -0.3194  1.1997 -0.4327
   86SAPS  H19S 8225   1.810   4.603   8.802  1.4867  1.5808 -2.3825
   86SAPS  C220 8226   1.794   4.797   8.704  0.2078  0.2391 -0.0787
   86SAPS  H20R 8227   1.730   4.887   8.716 -0.7041 -0.3416 -0.6225
   86SAPS  H20S 8228   1.774   4.760   8.601  1.9252 -2.1735  0.4038
   86SAPS  H20T 8229   1.899   4.833   8.712  0.6193 -0.5653 -1.7990
   86SAPS   C33 8230   2.684   4.682  10.190 -0.7933  0.0648 -0.2229
   86SAPS   H3X 8231   2.708   4.661  10.084 -0.9315  2.3114 -0.7140
   86SAPS   H3Y 8232   2.754   4.620  10.251  0.7573  1.5018 -0.5202
   86SAPS   C34 8233   2.706   4.834  10.198 -1.1896 -0.0093  0.4506
   86SAPS   H4X 8234   2.674   4.868  10.299  0.0836  3.9533 -0.3990
   86SAPS   H4Y 8235   2.639   4.888  10.129 -1.9320 -0.4311  0.8340
   86SAPS   C35 8236   2.856   4.870  10.186 -0.2677  0.0264 -0.5437
   86SAPS   H5X 8237   2.917   4.833  10.271 -0.5490 -0.0122 -0.3562
   86SAPS   H5Y 8238   2.865   4.981  10.190  0.8954 -0.1342  2.3210
   86SAPS   C36 8239   2.921   4.826  10.057  0.5263  0.0144 -1.0437
   86SAPS   H6X 8240   2.875   4.870   9.966  1.5048  1.6554 -0.7539
   86SAPS   H6Y 8241   2.910   4.715  10.050  0.4711 -0.0082 -0.5867
   86SAPS   C37 8242   3.070   4.868  10.049  0.3732 -0.3280  0.0859
   86SAPS   H7X 8243   3.118   4.849  10.147  0.1029 -1.6259 -0.0206
   86SAPS   H7Y 8244   3.073   4.979  10.049  0.8575 -0.2938  4.0605
   86SAPS   C38 8245   3.144   4.812   9.924  0.1983  0.0411  0.3934
   86SAPS   H8X 8246   3.124   4.704   9.909 -0.0247  0.0596  0.5503
   86SAPS   H8Y 8247   3.253   4.819   9.941 -0.1683 -0.0026  2.9978
   86SAPS   C39 8248   3.108   4.878   9.790 -0.3860  0.9299 -0.2291
   86SAPS   H9X 8249   3.123   4.987   9.805  1.5212  0.4944  1.0961
   86SAPS   H9Y 8250   3.001   4.864   9.763 -0.1989  1.8413 -1.5273
   86SAPS  C310 8251   3.200   4.834   9.684 -0.4493  0.2267  0.3350
   86SAPS  H10X 8252   3.189   4.726   9.661  1.0736  0.0358  0.4171
   86SAPS  H10Y 8253   3.303   4.840   9.726  0.4362 -0.4048 -1.7021
   86SAPS  C311 8254   3.178   4.912   9.549  0.0668 -0.5149  0.5087
   86SAPS  H11X 8255   3.166   5.022   9.558 -0.6028 -0.5712  0.3244
   86SAPS  H11Y 8256   3.080   4.875   9.512 -1.5657  3.3205  0.7219
   86SAPS  C312 8257   3.280   4.885   9.438  0.5675 -0.1170  0.3744
   86SAPS  H12X 8258   3.311   4.778   9.433 -0.4158 -0.3489 -0.8919
   86SAPS  H12Y 8259   3.370   4.936   9.479  0.0202  1.9787 -0.9688
   86SAPS  C313 8260   3.233   4.945   9.307  0.0344 -0.6544 -0.3580
   86SAPS  H13X 8261   3.169   5.033   9.331 -0.2986 -1.4629  1.8819
   86SAPS  H13Y 8262   3.163   4.873   9.260  0.7726 -2.5214  1.2826
   86SAPS  C314 8263   3.344   4.986   9.199  0.4980 -0.5252 -0.7654
   86SAPS  H14X 8264   3.420   4.905   9.203  0.8003 -0.1870  0.6169
   86SAPS  H14Y 8265   3.398   5.071   9.245 -0.6828 -0.3569  0.3278
   86SAPS  C315 8266   3.284   5.010   9.063  0.3880 -0.2096 -0.0572
   86SAPS  H15X 8267   3.182   5.051   9.077  0.5859  0.2129  0.2002
   86SAPS  H15Y 8268   3.272   4.910   9.017 -0.6699  1.1395 -2.8084
   86SAPS  C316 8269   3.371   5.105   8.978 -0.3502 -0.2035 -0.1158
   86SAPS  H16X 8270   3.381   5.200   9.034 -0.6384 -0.5044  0.4548
   86SAPS  H16Y 8271   3.315   5.121   8.884 -0.6300 -2.8543 -0.4447
   86SAPS  C317 8272   3.514   5.059   8.950  0.2308 -0.0973 -0.5558
   86SAPS  H17X 8273   3.574   5.038   9.041 -0.6481  2.1085  0.5869
   86SAPS  H17Y 8274   3.567   5.144   8.903 -0.0731  2.0296  2.7528
   86SAPS  C318 8275   3.527   4.934   8.866 -0.1728  0.2943 -0.1297
   86SAPS  H18X 8276   3.473   4.939   8.769  0.5856 -0.5557 -0.6041
   86SAPS  H18Y 8277   3.481   4.853   8.926  1.3366 -1.1822 -0.8942
   86SAPS  H18Z 8278   3.629   4.891   8.860 -0.1910  0.1293  0.7519
   87SAPS     N 8279   2.357   5.690  10.908  0.2078 -0.4340 -0.0333
   87SAPS   HN1 8280   2.259   5.661  10.922 -0.2955  0.9958 -0.4861
   87SAPS   HN2 8281   2.388   5.691  10.808 -0.8990  1.2504 -0.3749
   87SAPS   HN3 8282   2.416   5.626  10.964  1.5970  1.6991  1.0348
   87SAPS   C12 8283   2.355   5.823  10.964  0.7209  0.2636  0.4210
   87SAPS  H12A 8284   2.289   5.875  10.896 -0.5125 -3.3237 -1.2831
   87SAPS   C13 8285   2.296   5.845  11.105  0.1964 -0.0478  0.3697
   87SAPS  O13A 8286   2.262   5.741  11.169  0.8536  0.0135 -0.0140
   87SAPS  O13B 8287   2.278   5.962  11.159 -0.0751  0.0328  0.1283
   87SAPS   C11 8288   2.501   5.879  10.960 -0.0754 -0.1836  0.2135
   87SAPS  H11A 8289   2.563   5.814  11.025  1.6762  1.5304  0.2910
   87SAPS  H11B 8290   2.491   5.986  10.988 -1.8554 -0.0105 -0.9795
   87SAPS     P 8291   2.585   5.988  10.729 -0.0501 -0.1122  0.3643
   87SAPS   O13 8292   2.574   6.111  10.809 -0.0793  0.2063  0.5003
   87SAPS   O14 8293   2.720   5.969  10.666  0.0001 -0.0136 -0.0736
   87SAPS   O12 8294   2.555   5.873  10.830  0.2298  0.4828 -0.3572
   87SAPS   O11 8295   2.464   5.969  10.629  0.2224  0.7770 -0.2446
   87SAPS    C1 8296   2.374   6.071  10.593  0.0966 -0.5668 -0.3125
   87SAPS    HA 8297   2.356   6.147  10.672  3.1629 -1.5760  1.4599
   87SAPS    HB 8298   2.418   6.128  10.508 -1.6374  0.3292 -0.6271
   87SAPS    C2 8299   2.231   6.017  10.556  0.0716 -0.0908 -0.0442
   87SAPS    HS 8300   2.186   5.965  10.643 -0.6268 -1.4029 -1.1760
   87SAPS   O21 8301   2.261   5.917  10.454  1.0175 -0.2827 -0.2666
   87SAPS   C21 8302   2.163   5.835  10.427 -0.2471 -0.3834  0.0989
   87SAPS   O22 8303   2.047   5.834  10.470 -0.0519  0.1854  0.3918
   87SAPS   C22 8304   2.219   5.734  10.326 -0.5113 -0.5358 -0.1563
   87SAPS   H2R 8305   2.329   5.734  10.343 -0.3737 -0.3354 -1.0144
   87SAPS   H2S 8306   2.175   5.632  10.335  0.3702 -0.8227  1.1280
   87SAPS    C3 8307   2.136   6.134  10.506 -0.6019  0.2626 -0.5212
   87SAPS    HX 8308   2.123   6.202  10.593 -0.6029  1.9314 -1.8108
   87SAPS    HY 8309   2.039   6.082  10.487 -0.5469 -0.0035 -0.0866
   87SAPS   O31 8310   2.183   6.196  10.388 -0.7271  0.1943  0.0508
   87SAPS   C31 8311   2.245   6.317  10.402  0.0231  0.1596 -0.7107
   87SAPS   O32 8312   2.246   6.379  10.507  0.5149  0.0717 -0.1704
   87SAPS   C32 8313   2.321   6.356  10.279  0.0543  0.5043  0.8069
   87SAPS   H2X 8314   2.251   6.383  10.197 -0.7099 -0.1573  1.2300
   87SAPS   H2Y 8315   2.385   6.269  10.256  1.1422  0.4286  3.8077
   87SAPS   C23 8316   2.187   5.786  10.178 -0.0339 -0.2055  0.1881
   87SAPS   H3R 8317   2.261   5.867  10.163  0.4945 -0.6952  0.1166
   87SAPS   H3S 8318   2.079   5.812  10.167 -0.6028 -2.0434  1.1765
   87SAPS   C24 8319   2.228   5.678  10.076  0.0638  0.1176 -0.2878
   87SAPS   H4R 8320   2.152   5.597  10.084 -1.4494  1.5319 -0.0940
   87SAPS   H4S 8321   2.322   5.627  10.106 -0.2684 -0.2405  0.1392
   87SAPS   C25 8322   2.225   5.742   9.938  0.4854 -0.3871  0.7771
   87SAPS   H5R 8323   2.130   5.780   9.900  0.3112 -1.6767 -0.1085
   87SAPS   C26 8324   2.319   5.737   9.838 -0.8546  0.0131  0.0448
   87SAPS   H6R 8325   2.301   5.802   9.751 -0.9398 -0.0820 -0.0084
   87SAPS   C27 8326   2.452   5.662   9.845 -0.0868 -0.0561 -0.1075
   87SAPS   H7R 8327   2.432   5.552   9.843 -0.2298 -0.0138 -1.4974
   87SAPS   H7S 8328   2.499   5.683   9.943 -0.9500  2.1524 -0.1431
   87SAPS   C28 8329   2.546   5.699   9.733  0.1469  0.1050 -0.0982
   87SAPS   H8R 8330   2.627   5.764   9.769  0.6277 -1.4301  1.6883
   87SAPS   C29 8331   2.549   5.648   9.613  0.3563 -0.5060 -0.1050
   87SAPS   H9R 8332   2.623   5.686   9.541  2.5177 -3.2624  0.5958
   87SAPS  C210 8333   2.447   5.545   9.560 -0.2171  0.0874 -0.0831
   87SAPS  H10R 8334   2.437   5.569   9.452  0.5663 -2.1106 -0.6627
   87SAPS  H10S 8335   2.350   5.578   9.603 -0.2938 -0.3813  0.0990
   87SAPS  C211 8336   2.481   5.403   9.584 -0.9425 -0.1875 -1.1796
   87SAPS  H11R 8337   2.495   5.378   9.690  1.1328  2.1068 -0.8565
   87SAPS  C212 8338   2.502   5.308   9.502  0.2754  0.6947 -0.4685
   87SAPS  H12R 8339   2.523   5.209   9.545  0.0952  0.0053 -1.9096
   87SAPS  C213 8340   2.501   5.317   9.354 -0.3868  0.5303  0.1552
   87SAPS  H13R 8341   2.545   5.413   9.318  3.1461 -0.5998  1.2153
   87SAPS  H13S 8342   2.396   5.323   9.321 -0.7961 -0.7302  1.1794
   87SAPS  C214 8343   2.579   5.212   9.276 -0.2543  0.3577  0.5245
   87SAPS  H14R 8344   2.624   5.128   9.332  3.6122  1.0955 -1.3207
   87SAPS  C215 8345   2.599   5.220   9.145  0.5570  0.1918  0.2549
   87SAPS  H15R 8346   2.665   5.146   9.097 -0.0399 -0.4343  0.3926
   87SAPS  C216 8347   2.537   5.321   9.043 -0.5056  0.2253 -0.3291
   87SAPS  H16R 8348   2.624   5.365   8.991 -1.1467 -0.0082 -1.6001
   87SAPS  H16S 8349   2.475   5.403   9.085  2.0214  1.0825  1.8555
   87SAPS  C217 8350   2.455   5.254   8.933  0.1143 -0.5943 -0.0392
   87SAPS  H17R 8351   2.383   5.182   8.979 -1.1606  0.5094 -0.2690
   87SAPS  H17S 8352   2.525   5.196   8.870  1.5995  2.1252 -0.9804
   87SAPS  C218 8353   2.380   5.348   8.838 -0.4317 -0.1436  0.2221
   87SAPS  H18R 8354   2.454   5.405   8.779  0.3166  1.6892  2.8282
   87SAPS  H18S 8355   2.314   5.416   8.896 -1.7767  0.1915 -1.6518
   87SAPS  C219 8356   2.284   5.272   8.741  0.0045 -0.0985  0.0880
   87SAPS  H19R 8357   2.217   5.200   8.791  0.8487 -0.8963  0.0838
   87SAPS  H19S 8358   2.342   5.217   8.663 -1.9137 -0.2378 -1.2779
   87SAPS  C220 8359   2.193   5.373   8.673 -0.4016  0.0631  0.7536
   87SAPS  H20R 8360   2.255   5.454   8.628 -3.0352  1.1479 -1.0924
   87SAPS  H20S 8361   2.122   5.409   8.750 -3.0478 -0.0788 -1.5431
   87SAPS  H20T 8362   2.141   5.333   8.583  1.2862  0.4755 -0.4399
   87SAPS   C33 8363   2.427   6.468  10.305 -0.2817 -0.4811 -0.6702
   87SAPS   H3X 8364   2.472   6.439  10.402  0.8981  1.1286 -0.7248
   87SAPS   H3Y 8365   2.381   6.567  10.324  1.7346  0.6809 -1.7036
   87SAPS   C34 8366   2.544   6.474  10.211 -0.3241 -0.0048 -0.4122
   87SAPS   H4X 8367   2.558   6.372  10.169 -1.5011 -0.0990 -0.5932
   87SAPS   H4Y 8368   2.641   6.500  10.259 -1.5606  0.6046  1.8124
   87SAPS   C35 8369   2.526   6.576  10.101  0.6249 -0.4490  0.1977
   87SAPS   H5X 8370   2.530   6.683  10.132  3.9211 -0.7948  1.1354
   87SAPS   H5Y 8371   2.426   6.564  10.055  0.3583  1.8254  0.1206
   87SAPS   C36 8372   2.627   6.563   9.982  0.4063 -0.0187  1.1618
   87SAPS   H6X 8373   2.630   6.457   9.949 -1.5496  0.8625 -2.1727
   87SAPS   H6Y 8374   2.730   6.586  10.016  1.2887  0.4235 -1.6349
   87SAPS   C37 8375   2.596   6.651   9.858  0.2190  0.2828 -0.0974
   87SAPS   H7X 8376   2.592   6.758   9.889 -1.0151  0.6094 -1.3275
   87SAPS   H7Y 8377   2.498   6.616   9.821  0.3906 -1.8313  1.3815
   87SAPS   C38 8378   2.692   6.637   9.744  0.5958  0.1640 -0.1208
   87SAPS   H8X 8379   2.792   6.617   9.789  0.3897 -0.5191  0.0384
   87SAPS   H8Y 8380   2.699   6.736   9.696  1.5181  0.0295 -0.2706
   87SAPS   C39 8381   2.651   6.540   9.634 -0.4979  0.4493  0.9424
   87SAPS   H9X 8382   2.552   6.582   9.607  0.1986  2.2955  1.1210
   87SAPS   H9Y 8383   2.633   6.439   9.677 -1.3326 -0.2801 -1.0652
   87SAPS  C310 8384   2.747   6.558   9.516  0.1291  0.3554 -0.1968
   87SAPS  H10X 8385   2.856   6.559   9.537 -0.0997 -1.7790  1.1832
   87SAPS  H10Y 8386   2.725   6.656   9.467 -1.4260  0.0693 -0.0959
   87SAPS  C311 8387   2.719   6.451   9.410 -0.3739 -0.5899 -0.3488
   87SAPS  H11X 8388   2.609   6.443   9.408 -0.6078  1.0490  2.8145
   87SAPS  H11Y 8389   2.756   6.349   9.435 -0.9133 -0.7310 -0.1347
   87SAPS  C312 8390   2.758   6.498   9.260  0.1394  0.3225  0.5506
   87SAPS  H12X 8391   2.869   6.501   9.265  0.2587  0.8115 -1.8523
   87SAPS  H12Y 8392   2.720   6.601   9.247  0.2801  0.4555  1.1812
   87SAPS  C313 8393   2.715   6.398   9.155 -0.3028 -0.7168 -0.5853
   87SAPS  H13X 8394   2.607   6.373   9.157 -1.0825  2.4185  0.9561
   87SAPS  H13Y 8395   2.770   6.304   9.174 -1.5723 -1.9951 -3.0374
   87SAPS  C314 8396   2.736   6.448   9.013  0.6568 -0.2056  0.5082
   87SAPS  H14X 8397   2.834   6.499   9.003 -0.3133  1.6656  0.3744
   87SAPS  H14Y 8398   2.659   6.521   8.980  1.9153 -0.0603 -2.2530
   87SAPS  C315 8399   2.737   6.322   8.920 -0.0255 -0.3945  0.2802
   87SAPS  H15X 8400   2.647   6.257   8.932 -0.1998 -0.8030 -2.7324
   87SAPS  H15Y 8401   2.817   6.247   8.937 -2.5476 -2.8801  1.5804
   87SAPS  C316 8402   2.752   6.357   8.770  0.0188  0.1678 -0.2022
   87SAPS  H16X 8403   2.862   6.354   8.758  0.2616  2.2984  1.1785
   87SAPS  H16Y 8404   2.706   6.458   8.758  0.4590  0.3641 -0.2368
   87SAPS  C317 8405   2.681   6.268   8.671  0.0287 -0.1233 -0.3096
   87SAPS  H17X 8406   2.577   6.238   8.697  0.0669  1.6824  2.0514
   87SAPS  H17Y 8407   2.746   6.178   8.666  1.3151  0.7691  0.1485
   87SAPS  C318 8408   2.664   6.334   8.534  0.0293 -0.3067 -0.3070
   87SAPS  H18X 8409   2.759   6.387   8.511 -1.5304  2.8116  0.2935
   87SAPS  H18Y 8410   2.587   6.413   8.542  0.3315 -0.0916  0.4977
   87SAPS  H18Z 8411   2.639   6.254   8.460 -0.9853  0.6588 -1.0264
   88SAPS     N 8412   5.516   3.828  10.835 -0.1972  0.3212 -0.2949
   88SAPS   HN1 8413   5.593   3.760  10.823  1.1951  1.5607  1.3692
   88SAPS   HN2 8414   5.434   3.777  10.874  2.8149 -2.2140  2.9666
   88SAPS   HN3 8415   5.502   3.875  10.742  1.9765  1.5348 -0.0546
   88SAPS   C12 8416   5.561   3.931  10.940 -0.1667  1.0735  0.8545
   88SAPS  H12A 8417   5.629   4.001  10.894  0.4821 -0.6278 -0.8906
   88SAPS   C13 8418   5.449   3.996  11.023  0.3003  0.3686  0.5250
   88SAPS  O13A 8419   5.343   3.930  11.042 -0.2650  0.0467 -0.0585
   88SAPS  O13B 8420   5.476   4.096  11.093 -0.2890 -0.2861  0.1880
   88SAPS   C11 8421   5.648   3.855  11.045  1.1766  0.0273  0.5691
   88SAPS  H11A 8422   5.577   3.791  11.102 -2.1998  2.3096 -0.8599
   88SAPS  H11B 8423   5.676   3.931  11.121  0.3015 -0.2957  1.2260
   88SAPS     P 8424   5.763   3.632  10.963 -0.2417  0.5291  0.1807
   88SAPS   O13 8425   5.907   3.596  10.962 -0.2289 -0.1535  0.1978
   88SAPS   O14 8426   5.684   3.558  11.064 -0.7188  0.0685  0.5348
   88SAPS   O12 8427   5.760   3.788  10.986 -0.2097  0.2125 -0.0742
   88SAPS   O11 8428   5.684   3.615  10.824  0.0936  0.0538  0.8577
   88SAPS    C1 8429   5.748   3.625  10.697  0.3111 -0.2158 -0.7513
   88SAPS    HA 8430   5.758   3.731  10.666  0.2040  0.8817  2.7261
   88SAPS    HB 8431   5.850   3.581  10.693 -0.2434 -1.7951  1.2360
   88SAPS    C2 8432   5.655   3.563  10.590 -0.2066 -0.2293 -0.4433
   88SAPS    HS 8433   5.705   3.581  10.493  0.9917 -0.0878  0.1871
   88SAPS   O21 8434   5.525   3.626  10.581 -0.4404 -0.2715 -0.3347
   88SAPS   C21 8435   5.466   3.619  10.460 -0.0067  0.4406 -0.1130
   88SAPS   O22 8436   5.516   3.574  10.358  0.0030  0.1557  0.1248
   88SAPS   C22 8437   5.329   3.680  10.476 -0.0201 -0.1114 -0.4188
   88SAPS   H2R 8438   5.280   3.602  10.539  0.1684 -0.0348 -0.1760
   88SAPS   H2S 8439   5.327   3.775  10.533 -0.2114 -0.6323  0.4516
   88SAPS    C3 8440   5.634   3.410  10.596  0.1823  0.3930 -0.1697
   88SAPS    HX 8441   5.575   3.376  10.508  0.3051 -4.0445  1.3939
   88SAPS    HY 8442   5.567   3.395  10.683  0.2688  1.8841  0.1753
   88SAPS   O31 8443   5.766   3.351  10.606 -0.2965 -0.0688 -0.2577
   88SAPS   C31 8444   5.770   3.236  10.684 -0.2983 -0.0230  0.1592
   88SAPS   O32 8445   5.679   3.192  10.749  0.2341  0.2544 -0.1980
   88SAPS   C32 8446   5.905   3.170  10.673 -0.0227  0.1174 -0.4797
   88SAPS   H2X 8447   5.929   3.107  10.761  1.0694  0.8442 -0.2508
   88SAPS   H2Y 8448   5.991   3.240  10.669 -1.2579  1.6723 -0.2928
   88SAPS   C23 8449   5.261   3.705  10.342  0.0822  0.5264 -1.3381
   88SAPS   H3R 8450   5.159   3.744  10.366  1.4198  2.8527  0.8262
   88SAPS   H3S 8451   5.249   3.609  10.288 -0.3996  0.0151 -0.3306
   88SAPS   C24 8452   5.328   3.816  10.257 -0.1335  0.1199 -0.1085
   88SAPS   H4R 8453   5.422   3.775  10.214  0.3126  2.4573 -1.4182
   88SAPS   H4S 8454   5.354   3.910  10.309 -0.1176 -0.9140  1.7741
   88SAPS   C25 8455   5.229   3.855  10.150 -0.0659 -0.0830  0.4518
   88SAPS   H5R 8456   5.153   3.928  10.182 -0.5863 -0.7590  0.7658
   88SAPS   C26 8457   5.226   3.833  10.015 -0.2531  0.1331  0.3112
   88SAPS   H6R 8458   5.144   3.877   9.957 -0.0899  0.6654  0.4849
   88SAPS   C27 8459   5.329   3.754   9.939  0.0456  0.1289 -0.1587
   88SAPS   H7R 8460   5.273   3.707   9.856 -1.6613 -0.5464  1.3459
   88SAPS   H7S 8461   5.360   3.665   9.997 -3.0433 -1.0924 -0.3073
   88SAPS   C28 8462   5.450   3.836   9.897  0.2969 -0.2190  0.1421
   88SAPS   H8R 8463   5.486   3.907   9.972 -1.0897 -0.4374  1.0435
   88SAPS   C29 8464   5.510   3.833   9.772  0.1940 -0.2177  0.0819
   88SAPS   H9R 8465   5.610   3.877   9.764  0.8097 -1.5293  0.3952
   88SAPS  C210 8466   5.470   3.735   9.658 -0.3213  0.3797  0.1507
   88SAPS  H10R 8467   5.373   3.683   9.670 -0.9650  1.3954 -0.5769
   88SAPS  H10S 8468   5.534   3.646   9.672 -1.7310 -1.0874 -2.3944
   88SAPS  C211 8469   5.486   3.783   9.518  0.2281  0.0257 -0.4770
   88SAPS  H11R 8470   5.575   3.845   9.502  0.2380 -0.0772 -0.8171
   88SAPS  C212 8471   5.407   3.770   9.411 -0.1855  0.3758 -0.8590
   88SAPS  H12R 8472   5.440   3.810   9.314 -0.9524 -0.8519 -1.6263
   88SAPS  C213 8473   5.273   3.698   9.405 -0.5382 -0.4893 -0.1435
   88SAPS  H13R 8474   5.252   3.633   9.493  0.4102 -1.6671 -0.7762
   88SAPS  H13S 8475   5.294   3.620   9.329  0.9008 -1.1146  0.8798
   88SAPS  C214 8476   5.172   3.801   9.369 -0.3438 -0.1519  0.2445
   88SAPS  H14R 8477   5.158   3.874   9.450 -1.0676 -1.0605  0.9443
   88SAPS  C215 8478   5.110   3.808   9.250  0.2325 -0.0597  0.6943
   88SAPS  H15R 8479   5.044   3.895   9.234 -0.1523 -0.6536 -1.0191
   88SAPS  C216 8480   5.126   3.726   9.127 -0.1699 -0.4519 -0.7438
   88SAPS  H16R 8481   5.034   3.670   9.102 -0.2542  0.0945 -1.6672
   88SAPS  H16S 8482   5.204   3.648   9.133  0.2811  0.1540  2.8521
   88SAPS  C217 8483   5.157   3.824   9.011  0.2996 -0.3625  0.7175
   88SAPS  H17R 8484   5.263   3.852   9.026  0.3227 -0.7232  1.2158
   88SAPS  H17S 8485   5.100   3.918   9.027  0.4673 -0.0883 -0.2119
   88SAPS  C218 8486   5.128   3.757   8.874 -0.0006 -0.1993  0.5579
   88SAPS  H18R 8487   5.161   3.832   8.800 -0.8095  0.5785  0.9794
   88SAPS  H18S 8488   5.018   3.755   8.861 -0.3865  1.8372  3.0642
   88SAPS  C219 8489   5.199   3.629   8.850  0.2340 -0.2539  0.2162
   88SAPS  H19R 8490   5.198   3.619   8.739 -1.1988  1.3735  0.0727
   88SAPS  H19S 8491   5.145   3.541   8.891 -0.6980 -0.9915 -2.4833
   88SAPS  C220 8492   5.351   3.633   8.900 -0.4588  0.1924  0.1855
   88SAPS  H20R 8493   5.375   3.662   9.004  0.1283 -1.0132  0.3882
   88SAPS  H20S 8494   5.397   3.715   8.841  1.0592 -2.4214 -2.3663
   88SAPS  H20T 8495   5.399   3.535   8.882  1.3057  0.8674  1.1049
   88SAPS   C33 8496   5.917   3.088  10.543  0.6734 -0.0130  0.2789
   88SAPS   H3X 8497   5.831   3.020  10.523 -0.5019  0.6663  2.8173
   88SAPS   H3Y 8498   6.007   3.024  10.554 -0.4147 -1.4899  0.7998
   88SAPS   C34 8499   5.931   3.171  10.411 -0.1369  0.4760 -0.0474
   88SAPS   H4X 8500   6.018   3.240  10.424 -0.6979  1.2944 -0.5875
   88SAPS   H4Y 8501   5.837   3.229  10.402 -1.1843 -1.0574  0.7709
   88SAPS   C35 8502   5.952   3.076  10.290 -0.1331 -0.0853 -0.5522
   88SAPS   H5X 8503   5.861   3.014  10.283  0.5101 -1.4452  2.5114
   88SAPS   H5Y 8504   6.039   3.008  10.303 -0.5198 -0.3992  0.3910
   88SAPS   C36 8505   5.968   3.158  10.158  0.4419 -0.1199 -0.2158
   88SAPS   H6X 8506   6.066   3.212  10.163 -0.2958  1.1614  0.6576
   88SAPS   H6Y 8507   5.892   3.239  10.160 -1.1785 -1.5284 -2.4976
   88SAPS   C37 8508   5.955   3.058  10.045 -0.3576 -0.3733 -0.0377
   88SAPS   H7X 8509   5.870   2.989  10.062  0.9545 -1.6950  1.2774
   88SAPS   H7Y 8510   6.034   2.980  10.052 -0.1445 -0.2170 -0.6161
   88SAPS   C38 8511   5.961   3.123   9.909 -0.0064  0.7495 -0.9998
   88SAPS   H8X 8512   5.904   3.218   9.909 -0.5585  0.4341  0.4002
   88SAPS   H8Y 8513   5.908   3.052   9.842 -1.2485  1.8895 -1.2530
   88SAPS   C39 8514   6.103   3.154   9.850  0.7024  0.5531 -0.7217
   88SAPS   H9X 8515   6.154   3.056   9.856  1.2258  0.9032  0.8001
   88SAPS   H9Y 8516   6.159   3.211   9.927 -0.3305 -0.7470  1.0127
   88SAPS  C310 8517   6.095   3.224   9.722  0.9770 -0.0584 -0.4817
   88SAPS  H10X 8518   6.203   3.242   9.700  1.5418 -2.1439  0.5250
   88SAPS  H10Y 8519   6.040   3.320   9.731  0.4177 -0.3346 -0.9338
   88SAPS  C311 8520   6.045   3.133   9.617  0.5200  0.1726 -0.0485
   88SAPS  H11X 8521   5.940   3.110   9.645 -0.1886  1.9636 -1.1483
   88SAPS  H11Y 8522   6.081   3.028   9.613 -2.8268 -1.0279  0.0673
   88SAPS  C312 8523   6.055   3.185   9.473 -0.1124 -0.4146 -0.5404
   88SAPS  H12X 8524   6.160   3.209   9.447 -0.2531  1.8068  0.7569
   88SAPS  H12Y 8525   6.000   3.281   9.459 -0.9747 -0.6959  0.8173
   88SAPS  C313 8526   5.995   3.090   9.369 -0.1975  0.1095 -0.7507
   88SAPS  H13X 8527   5.885   3.088   9.378 -0.2608  2.0780 -0.7878
   88SAPS  H13Y 8528   6.030   2.986   9.388  0.1866  0.4235  0.3378
   88SAPS  C314 8529   6.027   3.120   9.222  0.6899  0.1737  0.3514
   88SAPS  H14X 8530   6.136   3.115   9.199  0.9579  1.5900  1.2254
   88SAPS  H14Y 8531   6.004   3.227   9.203  1.2775 -0.0544 -1.7903
   88SAPS  C315 8532   5.944   3.032   9.121 -0.0532 -0.5175  0.1386
   88SAPS  H15X 8533   5.835   3.049   9.139 -0.4828 -0.2051 -2.5394
   88SAPS  H15Y 8534   5.974   2.929   9.152  0.6313 -0.2473  0.3700
   88SAPS  C316 8535   5.965   3.058   8.975  0.1926  0.0748  0.7665
   88SAPS  H16X 8536   5.936   3.159   8.939  1.1035 -0.3137 -1.1461
   88SAPS  H16Y 8537   5.907   2.987   8.912 -1.6276  2.3125 -0.1550
   88SAPS  C317 8538   6.107   3.025   8.924  0.3595  0.1743  0.8829
   88SAPS  H17X 8539   6.138   2.921   8.950  1.9291  0.4322  0.1181
   88SAPS  H17Y 8540   6.182   3.092   8.971  1.9641  0.0331 -1.3629
   88SAPS  C318 8541   6.114   3.033   8.770 -0.1336  0.1238 -0.2076
   88SAPS  H18X 8542   6.115   3.130   8.716 -0.9865 -0.1105 -0.6575
   88SAPS  H18Y 8543   6.021   2.985   8.733 -0.4717  0.3599  0.3286
   88SAPS  H18Z 8544   6.200   2.980   8.724 -1.5213 -1.4570 -1.0624
   89SAPS     N 8545   4.532   6.447  11.113  0.2884  0.2640 -0.3977
   89SAPS   HN1 8546   4.622   6.499  11.113  1.3980 -1.6129 -0.0027
   89SAPS   HN2 8547   4.535   6.399  11.205  0.7966 -0.7386 -0.9224
   89SAPS   HN3 8548   4.536   6.389  11.026 -1.8643 -0.6400  0.0584
   89SAPS   C12 8549   4.421   6.539  11.133  0.7641 -0.2339 -0.4375
   89SAPS  H12A 8550   4.335   6.475  11.154 -1.1507  1.5594 -2.5783
   89SAPS   C13 8551   4.436   6.623  11.266 -0.2902 -0.0773  0.6225
   89SAPS  O13A 8552   4.535   6.611  11.342  0.6306  0.9402  0.8047
   89SAPS  O13B 8553   4.326   6.672  11.311  0.2387 -0.3615  0.1571
   89SAPS   C11 8554   4.404   6.613  10.994 -0.2099 -0.1489 -0.3477
   89SAPS  H11A 8555   4.337   6.700  11.012 -0.0843 -0.8892  4.1951
   89SAPS  H11B 8556   4.357   6.534  10.932 -0.1385 -1.8333  1.7012
   89SAPS     P 8557   4.536   6.711  10.802  0.1868  0.0254 -0.0033
   89SAPS   O13 8558   4.431   6.814  10.780  0.3347  0.0813  0.4247
   89SAPS   O14 8559   4.669   6.756  10.755  0.3062  0.0278 -0.6292
   89SAPS   O12 8560   4.531   6.666  10.949 -0.0967 -0.5509 -0.2196
   89SAPS   O11 8561   4.495   6.574  10.727 -0.4140  0.2515 -0.0255
   89SAPS    C1 8562   4.503   6.562  10.583  0.2633  0.4074  0.2506
   89SAPS    HA 8563   4.537   6.649  10.524 -1.0547  0.6981 -0.0947
   89SAPS    HB 8564   4.564   6.477  10.545  0.2833  1.1536 -1.4316
   89SAPS    C2 8565   4.352   6.532  10.537  0.3183  0.3933  0.2031
   89SAPS    HS 8566   4.306   6.503  10.634 -0.6007  0.7099 -0.1283
   89SAPS   O21 8567   4.336   6.435  10.442  0.5448  0.4692  0.4091
   89SAPS   C21 8568   4.209   6.382  10.435  0.5704  0.2908 -0.3316
   89SAPS   O22 8569   4.123   6.409  10.514 -0.1224  0.0642  0.6173
   89SAPS   C22 8570   4.203   6.294  10.312 -0.2425  0.2861 -0.2294
   89SAPS   H2R 8571   4.200   6.356  10.221 -0.2832  1.6272  0.6671
   89SAPS   H2S 8572   4.293   6.229  10.315 -0.4205 -0.0199 -1.4652
   89SAPS    C3 8573   4.273   6.661  10.494 -0.4321  0.9718 -0.0562
   89SAPS    HX 8574   4.282   6.733  10.578 -1.0127  0.7807  0.1707
   89SAPS    HY 8575   4.165   6.637  10.487 -0.5725  1.7230 -0.6369
   89SAPS   O31 8576   4.324   6.717  10.364 -0.1351  0.2710  0.7908
   89SAPS   C31 8577   4.396   6.830  10.366  0.2659  0.1102 -0.4996
   89SAPS   O32 8578   4.418   6.900  10.461  0.0451  0.6376 -0.1638
   89SAPS   C32 8579   4.445   6.859  10.223 -0.5427  0.1996 -0.1018
   89SAPS   H2X 8580   4.542   6.805  10.218 -1.3772 -1.3261 -0.0529
   89SAPS   H2Y 8581   4.468   6.967  10.211  2.6589 -0.5701 -1.4245
   89SAPS   C23 8582   4.071   6.210  10.300 -0.3265 -0.9907 -0.2977
   89SAPS   H3R 8583   3.989   6.283  10.283 -1.6252 -2.3285  0.0992
   89SAPS   H3S 8584   4.057   6.148  10.391  0.0690 -0.4048  0.1662
   89SAPS   C24 8585   4.059   6.117  10.180 -0.1498 -0.0961  0.3159
   89SAPS   H4R 8586   4.055   6.176  10.086  1.2162  1.9630  1.4855
   89SAPS   H4S 8587   3.958   6.071  10.187  0.2744 -1.1407 -0.3862
   89SAPS   C25 8588   4.164   6.009  10.175  0.1897  0.3218 -0.2253
   89SAPS   H5R 8589   4.125   5.922  10.230 -2.1625  2.1909  1.1417
   89SAPS   C26 8590   4.276   6.006  10.106  1.1230  0.2702 -0.8559
   89SAPS   H6R 8591   4.345   5.920  10.106  1.3954  0.4577 -2.9271
   89SAPS   C27 8592   4.323   6.119  10.026 -0.0032 -0.2203 -0.2488
   89SAPS   H7R 8593   4.396   6.180  10.084  0.4060  0.5194 -1.5139
   89SAPS   H7S 8594   4.239   6.185   9.995 -0.6918 -1.2159 -0.5178
   89SAPS   C28 8595   4.405   6.064   9.914  1.0405  0.0894 -0.4413
   89SAPS   H8R 8596   4.509   6.034   9.933  0.4075  0.2873  3.6685
   89SAPS   C29 8597   4.373   6.071   9.783 -0.0360  0.0021  0.2112
   89SAPS   H9R 8598   4.443   6.030   9.708 -1.0106  0.6125 -1.0449
   89SAPS  C210 8599   4.251   6.130   9.723  0.4653  0.3530 -0.1138
   89SAPS  H10R 8600   4.279   6.229   9.680 -1.0751  1.0959  0.5462
   89SAPS  H10S 8601   4.165   6.145   9.792  1.1178  3.0178  0.1938
   89SAPS  C211 8602   4.200   6.038   9.616  0.0771 -0.2336 -0.0720
   89SAPS  H11R 8603   4.148   5.949   9.654 -0.5831  1.0526  2.1733
   89SAPS  C212 8604   4.230   6.046   9.482  0.0375 -0.2597  0.3220
   89SAPS  H12R 8605   4.186   5.978   9.407 -0.6603  0.6818 -0.1391
   89SAPS  C213 8606   4.323   6.146   9.415 -0.8867 -0.0079  0.6627
   89SAPS  H13R 8607   4.391   6.187   9.493 -0.9181  1.2367  0.0626
   89SAPS  H13S 8608   4.271   6.241   9.388  0.1195  0.4886  0.4398
   89SAPS  C214 8609   4.405   6.098   9.290 -0.0808  0.2596 -0.1363
   89SAPS  H14R 8610   4.349   6.104   9.195  4.0451  2.1111 -2.5791
   89SAPS  C215 8611   4.529   6.055   9.297 -0.0233  0.2215 -0.4978
   89SAPS  H15R 8612   4.593   6.016   9.216 -0.5522 -0.3042 -0.6687
   89SAPS  C216 8613   4.620   6.041   9.423  0.1748 -0.2994 -0.1341
   89SAPS  H16R 8614   4.658   5.937   9.413 -1.0784 -0.7137 -0.6875
   89SAPS  H16S 8615   4.569   6.047   9.521 -2.3254 -0.5082 -1.3770
   89SAPS  C217 8616   4.724   6.152   9.405  0.4211  0.3954  0.0082
   89SAPS  H17R 8617   4.673   6.248   9.430  1.0636  0.8591 -0.4430
   89SAPS  H17S 8618   4.762   6.157   9.301  0.9129  0.4359  0.1909
   89SAPS  C218 8619   4.837   6.136   9.505  0.0491 -0.3680 -0.3572
   89SAPS  H18R 8620   4.912   6.060   9.472 -0.1342 -0.5952 -0.2511
   89SAPS  H18S 8621   4.802   6.108   9.607  0.4304 -0.4251 -0.2391
   89SAPS  C219 8622   4.912   6.267   9.504 -0.1470  0.3983 -0.4289
   89SAPS  H19R 8623   4.836   6.339   9.542  1.5313  1.6249  0.6951
   89SAPS  H19S 8624   4.949   6.293   9.403  1.0593  2.9413  0.6116
   89SAPS  C220 8625   5.023   6.283   9.603  0.1369  0.1250  0.7912
   89SAPS  H20R 8626   5.049   6.391   9.599 -1.3441  0.4842  0.1036
   89SAPS  H20S 8627   5.108   6.217   9.575  0.8342  1.2722  0.1854
   89SAPS  H20T 8628   4.994   6.251   9.705 -2.0268  0.2141  0.2421
   89SAPS   C33 8629   4.377   6.792  10.097 -0.1960  0.1294 -0.9891
   89SAPS   H3X 8630   4.271   6.807  10.126 -0.2440  0.4293 -1.3209
   89SAPS   H3Y 8631   4.396   6.683  10.082 -1.7520  0.0594 -2.5901
   89SAPS   C34 8632   4.411   6.868   9.970  0.1173 -0.0040 -0.0660
   89SAPS   H4X 8633   4.511   6.835   9.935  1.2535  1.2723  1.8923
   89SAPS   H4Y 8634   4.425   6.976   9.991  0.7528  0.0787 -0.8663
   89SAPS   C35 8635   4.298   6.856   9.862  0.4339  0.2872 -0.0871
   89SAPS   H5X 8636   4.202   6.905   9.891 -0.6095 -1.7191 -0.0351
   89SAPS   H5Y 8637   4.263   6.751   9.859 -0.2422  0.5306 -1.4663
   89SAPS   C36 8638   4.327   6.878   9.718  0.0769 -0.5681 -0.4111
   89SAPS   H6X 8639   4.428   6.833   9.709 -0.4377 -2.1583  1.4165
   89SAPS   H6Y 8640   4.347   6.986   9.703  0.3656 -0.8320 -1.9974
   89SAPS   C37 8641   4.231   6.818   9.617  0.0810 -0.2203  0.1767
   89SAPS   H7X 8642   4.128   6.842   9.649  0.4159  3.2336 -1.0572
   89SAPS   H7Y 8643   4.241   6.708   9.602 -0.6352 -0.1256 -1.1530
   89SAPS   C38 8644   4.249   6.882   9.477 -0.0619  0.1771  0.1229
   89SAPS   H8X 8645   4.352   6.860   9.443 -0.3408  1.7886 -1.8759
   89SAPS   H8Y 8646   4.245   6.994   9.477  1.0846  0.2178 -0.7523
   89SAPS   C39 8647   4.153   6.835   9.375  0.6586 -0.1445  0.6211
   89SAPS   H9X 8648   4.045   6.848   9.397 -0.2421 -1.9142 -2.4682
   89SAPS   H9Y 8649   4.169   6.726   9.365 -0.7700 -0.1764 -1.5749
   89SAPS  C310 8650   4.177   6.908   9.241  0.4065  0.2218 -0.7457
   89SAPS  H10X 8651   4.164   7.018   9.250  0.3343  0.0236  1.8437
   89SAPS  H10Y 8652   4.112   6.870   9.159  0.8588 -1.2070 -0.4667
   89SAPS  C311 8653   4.318   6.890   9.178  0.6357  0.0264 -0.0347
   89SAPS  H11X 8654   4.364   6.795   9.212 -2.1351 -1.0255  0.9067
   89SAPS  H11Y 8655   4.383   6.975   9.206  1.1916 -0.8928  1.5391
   89SAPS  C312 8656   4.316   6.879   9.026 -0.4465  0.4608  0.9993
   89SAPS  H12X 8657   4.236   6.805   9.001 -0.2897  0.4282  0.5939
   89SAPS  H12Y 8658   4.406   6.834   8.979 -1.9185 -1.3057 -0.2124
   89SAPS  C313 8659   4.278   7.012   8.956 -0.2178 -1.1605 -0.5023
   89SAPS  H13X 8660   4.343   7.098   8.983 -2.4469  0.0934  1.0545
   89SAPS  H13Y 8661   4.180   7.043   8.999 -0.0344 -0.9501 -0.2411
   89SAPS  C314 8662   4.287   7.003   8.799  0.2798  0.9977  0.3518
   89SAPS  H14X 8663   4.215   6.928   8.762  1.9753  0.2166 -1.4434
   89SAPS  H14Y 8664   4.383   6.966   8.757 -0.9140 -0.2734 -1.3161
   89SAPS  C315 8665   4.269   7.132   8.732 -0.3794 -0.1106 -0.1228
   89SAPS  H15X 8666   4.293   7.114   8.625 -2.9183  1.9022 -1.0860
   89SAPS  H15Y 8667   4.351   7.197   8.769  0.0883 -0.4521 -0.5498
   89SAPS  C316 8668   4.133   7.198   8.749 -0.5830  0.4123  0.1641
   89SAPS  H16X 8669   4.106   7.199   8.856  0.2547  1.8699  0.3792
   89SAPS  H16Y 8670   4.059   7.129   8.703 -1.4080  0.7553  0.9665
   89SAPS  C317 8671   4.126   7.339   8.690  0.4805 -1.2217 -0.6695
   89SAPS  H17X 8672   4.200   7.401   8.745 -2.2325  3.4809 -2.0522
   89SAPS  H17Y 8673   4.035   7.397   8.718  0.6359 -1.1619 -0.2912
   89SAPS  C318 8674   4.147   7.352   8.544  0.2801  1.0434 -0.6293
   89SAPS  H18X 8675   4.191   7.450   8.517  2.4272  0.0976 -0.6861
   89SAPS  H18Y 8676   4.060   7.331   8.478  0.7052  1.7292 -1.4182
   89SAPS  H18Z 8677   4.221   7.277   8.510 -0.6163 -0.5683  0.8930
   90SAPS     N 8678   6.567   6.165  11.028 -0.8872 -0.4083 -0.1848
   90SAPS   HN1 8679   6.614   6.183  11.119  0.8531 -0.7513 -0.9910
   90SAPS   HN2 8680   6.475   6.123  11.051 -0.8653  1.0437  2.8115
   90SAPS   HN3 8681   6.620   6.098  10.970  1.8523  0.2078  1.5294
   90SAPS   C12 8682   6.546   6.293  10.957 -0.0239  0.1271  0.4261
   90SAPS  H12A 8683   6.457   6.340  10.995 -0.4042 -0.2303 -0.0223
   90SAPS   C13 8684   6.654   6.405  10.979  0.0910  0.5022  0.2794
   90SAPS  O13A 8685   6.754   6.379  11.052 -0.1268 -0.1432  0.1294
   90SAPS  O13B 8686   6.619   6.525  10.956  0.0393  0.4554  0.3917
   90SAPS   C11 8687   6.515   6.260  10.809 -0.0118 -0.0271  0.0840
   90SAPS  H11A 8688   6.600   6.206  10.762  0.7306  1.1907  0.0133
   90SAPS  H11B 8689   6.501   6.352  10.748  1.1870 -0.4124 -0.7758
   90SAPS     P 8690   6.348   6.067  10.732 -0.0089  0.0409  0.3318
   90SAPS   O13 8691   6.437   5.951  10.753 -0.7342 -0.0752  0.4040
   90SAPS   O14 8692   6.203   6.049  10.744 -0.2608 -0.0610  0.2536
   90SAPS   O12 8693   6.387   6.194  10.813  0.1243  0.7104 -0.3878
   90SAPS   O11 8694   6.386   6.117  10.589 -0.3140  0.3930 -0.3923
   90SAPS    C1 8695   6.293   6.205  10.521  0.4031  0.7833  0.1182
   90SAPS    HA 8696   6.227   6.259  10.592 -0.0158 -0.6178  0.8038
   90SAPS    HB 8697   6.349   6.285  10.468  1.4558 -1.2260 -1.8582
   90SAPS    C2 8698   6.203   6.127  10.421 -0.9377  0.0747 -0.2169
   90SAPS    HS 8699   6.149   6.050  10.479 -1.1147 -1.5699 -2.4906
   90SAPS   O21 8700   6.286   6.067  10.321  0.4360 -0.1833 -0.7736
   90SAPS   C21 8701   6.233   5.968  10.252  0.2625  0.5049  0.1260
   90SAPS   O22 8702   6.120   5.927  10.270  0.0534  0.4520 -0.0380
   90SAPS   C22 8703   6.340   5.912  10.158 -0.1909  0.3263 -0.1617
   90SAPS   H2R 8704   6.438   5.913  10.211 -0.4146 -2.0362  0.3439
   90SAPS   H2S 8705   6.310   5.807  10.138  0.3109 -0.0033  0.7815
   90SAPS    C3 8706   6.105   6.222  10.350 -0.2073  0.1628  0.2920
   90SAPS    HX 8707   6.034   6.260  10.427 -1.5894 -0.4252 -0.6721
   90SAPS    HY 8708   6.044   6.168  10.276  1.3094 -0.6631 -0.3750
   90SAPS   O31 8709   6.169   6.330  10.284  0.4788  0.0319 -0.0563
   90SAPS   C31 8710   6.173   6.331  10.149 -0.8929 -0.1017 -0.1588
   90SAPS   O32 8711   6.101   6.269  10.074  0.1052 -0.7152  0.3444
   90SAPS   C32 8712   6.294   6.404  10.107 -0.0270  0.1965 -0.1685
   90SAPS   H2X 8713   6.374   6.328  10.094  1.2772  1.3795  0.7778
   90SAPS   H2Y 8714   6.316   6.485  10.179  0.9227  0.8767 -1.1995
   90SAPS   C23 8715   6.353   5.989  10.025  0.1185  0.0018 -0.4591
   90SAPS   H3R 8716   6.444   5.952   9.972  0.1786 -0.1125 -0.2736
   90SAPS   H3S 8717   6.358   6.096  10.054  0.2117 -0.9087  3.1021
   90SAPS   C24 8718   6.229   5.977   9.939  0.0657  0.2830 -0.1636
   90SAPS   H4R 8719   6.137   5.989  10.000  0.4002 -1.1402  0.6407
   90SAPS   H4S 8720   6.233   5.872   9.904  1.4512 -0.2267  1.4577
   90SAPS   C25 8721   6.237   6.066   9.819  0.6834  0.2032  0.1661
   90SAPS   H5R 8722   6.206   6.171   9.830 -2.1612 -0.5126 -0.5401
   90SAPS   C26 8723   6.269   6.029   9.695 -0.7180  0.1711  0.1779
   90SAPS   H6R 8724   6.273   6.112   9.622 -0.2943  2.1847  2.4192
   90SAPS   C27 8725   6.315   5.893   9.654  0.5288 -0.1350  0.3501
   90SAPS   H7R 8726   6.235   5.824   9.690 -1.3154  1.9809  0.4598
   90SAPS   H7S 8727   6.410   5.876   9.709 -0.2159 -0.1083  1.6657
   90SAPS   C28 8728   6.334   5.879   9.508 -0.1521  0.5122 -0.1238
   90SAPS   H8R 8729   6.313   5.967   9.444 -1.8579  0.2102 -0.0053
   90SAPS   C29 8730   6.386   5.771   9.447  0.1096  0.3832  0.4886
   90SAPS   H9R 8731   6.388   5.767   9.337 -2.4802  1.3781  0.3622
   90SAPS  C210 8732   6.418   5.644   9.526 -0.2590 -0.2681 -0.1359
   90SAPS  H10R 8733   6.418   5.669   9.635 -1.3042 -0.7938 -0.0042
   90SAPS  H10S 8734   6.526   5.625   9.507  0.0424  0.6619  0.6008
   90SAPS  C211 8735   6.342   5.519   9.510 -0.0761  0.8711 -0.6756
   90SAPS  H11R 8736   6.326   5.474   9.609 -0.2674  0.5899 -0.8305
   90SAPS  C212 8737   6.298   5.464   9.396  0.0552  0.3686  0.0612
   90SAPS  H12R 8738   6.239   5.372   9.404  2.2106 -0.9205  1.6850
   90SAPS  C213 8739   6.304   5.513   9.247 -0.5147 -0.5149 -1.1670
   90SAPS  H13R 8740   6.306   5.427   9.176 -2.1728  1.0597 -3.1665
   90SAPS  H13S 8741   6.402   5.559   9.221 -1.0655  0.3089 -1.7752
   90SAPS  C214 8742   6.197   5.615   9.209 -0.2924 -0.4074  0.5236
   90SAPS  H14R 8743   6.167   5.677   9.294  2.6596  1.8855 -0.0237
   90SAPS  C215 8744   6.136   5.638   9.097  0.3497  0.1746  0.2683
   90SAPS  H15R 8745   6.065   5.721   9.094  0.1165 -0.0502 -2.5320
   90SAPS  C216 8746   6.161   5.581   8.965  0.5986  0.1599 -1.1564
   90SAPS  H16R 8747   6.071   5.536   8.918  0.4492  0.7407 -1.4227
   90SAPS  H16S 8748   6.238   5.501   8.977  0.6412  0.3191 -0.3282
   90SAPS  C217 8749   6.226   5.681   8.870  0.3695  0.0960 -0.8557
   90SAPS  H17R 8750   6.146   5.755   8.843 -0.4305 -0.4012  0.1414
   90SAPS  H17S 8751   6.247   5.623   8.778 -0.0092 -2.3792  0.5770
   90SAPS  C218 8752   6.344   5.749   8.915 -0.4222 -0.5041 -0.0400
   90SAPS  H18R 8753   6.423   5.676   8.942  1.7524  1.3675 -1.2077
   90SAPS  H18S 8754   6.312   5.816   8.999 -1.0453  0.5902 -1.1320
   90SAPS  C219 8755   6.416   5.840   8.820 -0.1323  0.1810  0.2917
   90SAPS  H19R 8756   6.511   5.865   8.871  0.1479 -3.2751  1.5683
   90SAPS  H19S 8757   6.351   5.929   8.808  1.2858  0.9595 -2.0995
   90SAPS  C220 8758   6.431   5.766   8.686 -0.5859  0.9046 -0.3961
   90SAPS  H20R 8759   6.480   5.670   8.712 -0.6996  0.9436 -0.0316
   90SAPS  H20S 8760   6.501   5.821   8.619  1.8002  0.9769  2.0620
   90SAPS  H20T 8761   6.340   5.743   8.627  0.3471 -0.6580 -1.2426
   90SAPS   C33 8762   6.253   6.473   9.978  0.2516 -0.2726 -0.7247
   90SAPS   H3X 8763   6.187   6.558  10.005  3.0346  1.3128  1.3418
   90SAPS   H3Y 8764   6.192   6.407   9.912  1.1283 -0.6063 -1.1942
   90SAPS   C34 8765   6.376   6.519   9.902 -0.2729 -0.0324 -0.3693
   90SAPS   H4X 8766   6.441   6.431   9.883  0.2812  0.1293  0.7018
   90SAPS   H4Y 8767   6.437   6.593   9.958 -0.2203 -0.5821  0.3164
   90SAPS   C35 8768   6.324   6.574   9.771 -1.0022  0.0620 -0.0256
   90SAPS   H5X 8769   6.275   6.670   9.798  0.0469  0.5464  0.1736
   90SAPS   H5Y 8770   6.249   6.513   9.717  0.7616 -1.0008 -1.3376
   90SAPS   C36 8771   6.442   6.596   9.669 -0.2900  0.9792  0.6379
   90SAPS   H6X 8772   6.507   6.506   9.661 -2.2305 -0.2250 -2.6186
   90SAPS   H6Y 8773   6.494   6.690   9.698 -1.4846  0.9174  3.0993
   90SAPS   C37 8774   6.396   6.616   9.525  0.8307  0.0001 -0.2407
   90SAPS   H7X 8775   6.330   6.704   9.513  1.4631  0.6393  0.9487
   90SAPS   H7Y 8776   6.338   6.527   9.492 -0.0087  0.4744 -0.0517
   90SAPS   C38 8777   6.505   6.639   9.423 -0.0185  0.2590  0.0379
   90SAPS   H8X 8778   6.574   6.552   9.430 -0.7628 -0.3922 -0.6911
   90SAPS   H8Y 8779   6.556   6.732   9.455  2.2685 -0.9209 -0.0275
   90SAPS   C39 8780   6.458   6.663   9.280  0.2940  0.1433  0.2333
   90SAPS   H9X 8781   6.364   6.722   9.274 -0.2927 -0.9715 -1.9795
   90SAPS   H9Y 8782   6.432   6.564   9.237 -0.1819  0.2185  0.3382
   90SAPS  C310 8783   6.577   6.727   9.202  0.3980  0.7924  0.1502
   90SAPS  H10X 8784   6.673   6.681   9.231  0.4271 -2.0131 -3.9613
   90SAPS  H10Y 8785   6.583   6.833   9.235  0.1693  0.4022  1.4761
   90SAPS  C311 8786   6.557   6.729   9.053 -0.2771  1.0920  0.6949
   90SAPS  H11X 8787   6.473   6.791   9.013  1.6258  1.6722 -2.5979
   90SAPS  H11Y 8788   6.543   6.623   9.022 -1.2021  1.4327 -0.1132
   90SAPS  C312 8789   6.681   6.770   8.977 -0.9010 -0.0627  0.0387
   90SAPS  H12X 8790   6.761   6.698   9.003 -0.2080  0.2282 -1.2428
   90SAPS  H12Y 8791   6.723   6.869   9.004  0.0045 -0.7587  1.2232
   90SAPS  C313 8792   6.660   6.761   8.822  0.2622  0.2729 -0.0386
   90SAPS  H13X 8793   6.565   6.811   8.792  0.6002  0.9051 -0.0733
   90SAPS  H13Y 8794   6.657   6.658   8.783  0.3718  0.4667 -0.5588
   90SAPS  C314 8795   6.772   6.839   8.751  0.0161  1.2136  0.1312
   90SAPS  H14X 8796   6.874   6.819   8.791 -0.7685  1.3304  2.2712
   90SAPS  H14Y 8797   6.762   6.948   8.768  0.0066  1.2976 -0.4006
   90SAPS  C315 8798   6.763   6.813   8.596 -0.6336  0.0686 -0.5795
   90SAPS  H15X 8799   6.663   6.832   8.554 -1.8437  1.5244  2.7748
   90SAPS  H15Y 8800   6.781   6.704   8.580 -0.5518 -0.3394  2.0673
   90SAPS  C316 8801   6.870   6.904   8.521  0.2535  1.4695  0.1170
   90SAPS  H16X 8802   6.973   6.883   8.557 -1.5567 -0.9265  4.3277
   90SAPS  H16Y 8803   6.838   7.010   8.532 -3.0382  0.8194 -2.4546
   90SAPS  C317 8804   6.857   6.885   8.367  0.3524  0.0762  0.3253
   90SAPS  H17X 8805   6.749   6.898   8.344 -0.0092 -0.1098  1.8660
   90SAPS  H17Y 8806   6.886   6.780   8.344  3.2839  1.0937 -0.8892
   90SAPS  C318 8807   6.930   6.982   8.273  0.1288  0.5795 -0.1009
   90SAPS  H18X 8808   7.031   6.999   8.316  0.4464  3.1441 -1.7350
   90SAPS  H18Y 8809   6.871   7.072   8.243  0.3958  0.6515 -0.4163
   90SAPS  H18Z 8810   6.931   6.937   8.171 -0.5300 -1.2120  0.6740
   91SAPS     N 8811   4.985   4.202   5.971  0.1446 -0.2911 -0.2253
   91SAPS   HN1 8812   5.056   4.279   5.977  0.6523 -0.9023  2.4423
   91SAPS   HN2 8813   4.892   4.241   5.944 -0.3921 -1.1515  0.3717
   91SAPS   HN3 8814   4.972   4.156   6.063  1.4350  0.5203  0.3827
   91SAPS   C12 8815   5.038   4.097   5.880  0.5914  0.3440 -0.1161
   91SAPS  H12A 8816   4.966   4.018   5.890  1.1527  0.0500  1.9345
   91SAPS   C13 8817   5.047   4.132   5.728  0.2256 -0.2402  0.6056
   91SAPS  O13A 8818   5.015   4.253   5.691  0.3163  0.5508  0.0442
   91SAPS  O13B 8819   5.054   4.041   5.639 -0.0691 -0.3159 -0.3442
   91SAPS   C11 8820   5.179   4.038   5.917 -0.3666  0.5541 -0.7913
   91SAPS  H11A 8821   5.261   4.106   5.885  0.6853  1.5550  3.7759
   91SAPS  H11B 8822   5.177   3.941   5.863 -1.5941  0.4936 -0.6661
   91SAPS     P 8823   5.301   3.930   6.121  0.5378 -0.4972 -0.0656
   91SAPS   O13 8824   5.263   3.811   6.201  0.5919 -0.0395 -0.5676
   91SAPS   O14 8825   5.401   3.900   6.011  0.7406 -0.4194  0.5368
   91SAPS   O12 8826   5.182   4.009   6.056  0.0402  0.1055 -0.4595
   91SAPS   O11 8827   5.379   4.027   6.222 -0.5454  0.3469 -0.7113
   91SAPS    C1 8828   5.338   4.161   6.253 -0.0221  0.2094  0.2454
   91SAPS    HA 8829   5.356   4.226   6.165  0.4159  0.9369  0.8649
   91SAPS    HB 8830   5.231   4.156   6.281  0.2855 -1.5258  1.1511
   91SAPS    C2 8831   5.419   4.231   6.370  0.0939  0.5340 -0.0808
   91SAPS    HS 8832   5.525   4.245   6.338 -0.0497 -0.3797 -0.9866
   91SAPS   O21 8833   5.399   4.162   6.501 -0.4193 -0.2252 -0.0779
   91SAPS   C21 8834   5.485   4.058   6.514  0.5339 -0.2692  0.3018
   91SAPS   O22 8835   5.566   4.023   6.434  0.3311 -0.1354  0.1884
   91SAPS   C22 8836   5.457   3.989   6.648  0.1586 -1.1266  0.0098
   91SAPS   H2R 8837   5.470   4.071   6.722 -1.3538  0.6579 -1.6279
   91SAPS   H2S 8838   5.350   3.960   6.641 -0.4318  1.1863 -1.4091
   91SAPS    C3 8839   5.351   4.370   6.397 -0.0086  0.1338  0.7468
   91SAPS    HX 8840   5.249   4.355   6.438 -1.8083  0.8468 -3.2747
   91SAPS    HY 8841   5.348   4.420   6.298 -1.8261 -1.3184  0.0275
   91SAPS   O31 8842   5.436   4.445   6.484 -0.0490  0.5412 -0.1461
   91SAPS   C31 8843   5.394   4.481   6.605  0.1699  0.6250 -0.3657
   91SAPS   O32 8844   5.283   4.455   6.646 -0.1641 -0.2999  0.1501
   91SAPS   C32 8845   5.503   4.554   6.687 -0.1648 -0.2705 -0.0794
   91SAPS   H2X 8846   5.552   4.630   6.622 -1.3123  0.3049 -0.2866
   91SAPS   H2Y 8847   5.572   4.472   6.716 -1.6533 -1.8080 -0.7694
   91SAPS   C23 8848   5.543   3.863   6.671  0.0924  0.1568  0.4898
   91SAPS   H3R 8849   5.649   3.894   6.687 -0.0178  2.1644 -2.4170
   91SAPS   H3S 8850   5.531   3.805   6.578  0.8565 -0.6958  0.9150
   91SAPS   C24 8851   5.502   3.770   6.790 -0.1942 -0.5064  0.3712
   91SAPS   H4R 8852   5.395   3.742   6.780 -1.0005  1.6885  2.3824
   91SAPS   H4S 8853   5.518   3.818   6.889 -2.6224 -1.4552  1.2471
   91SAPS   C25 8854   5.589   3.646   6.770 -0.6994 -0.4301 -1.2261
   91SAPS   H5R 8855   5.675   3.646   6.701  1.4966  3.1278  1.3646
   91SAPS   C26 8856   5.573   3.531   6.842  0.4716 -0.4419  0.2504
   91SAPS   H6R 8857   5.656   3.459   6.830  1.2160  0.6188 -1.0344
   91SAPS   C27 8858   5.476   3.502   6.954  0.1444  0.2505  0.3883
   91SAPS   H7R 8859   5.382   3.557   6.932  0.5600  1.3395  1.3155
   91SAPS   H7S 8860   5.512   3.555   7.044 -0.0780 -1.0481  1.2496
   91SAPS   C28 8861   5.449   3.354   6.969 -0.9076  0.0632 -1.0677
   91SAPS   H8R 8862   5.488   3.284   6.894 -0.4018 -1.7712  0.8958
   91SAPS   C29 8863   5.380   3.303   7.077 -0.0527  0.2500 -0.7392
   91SAPS   H9R 8864   5.356   3.195   7.078 -1.4072  0.5352 -0.7146
   91SAPS  C210 8865   5.324   3.385   7.191 -0.2218  0.1013  0.1381
   91SAPS  H10R 8866   5.250   3.324   7.247  0.2533 -1.8075 -1.2530
   91SAPS  H10S 8867   5.264   3.467   7.147  2.3732  1.0449 -1.7364
   91SAPS  C211 8868   5.430   3.439   7.285 -0.7722  0.2024  0.4402
   91SAPS  H11R 8869   5.526   3.467   7.239 -0.7993  2.1451  1.5366
   91SAPS  C212 8870   5.412   3.462   7.415 -0.5426 -0.5414 -0.1958
   91SAPS  H12R 8871   5.497   3.486   7.480 -0.3617  1.1338 -1.0093
   91SAPS  C213 8872   5.283   3.434   7.497 -0.3647 -0.0967 -0.0928
   91SAPS  H13R 8873   5.192   3.464   7.441  1.3453 -0.7018 -3.2742
   91SAPS  H13S 8874   5.299   3.501   7.585 -0.0741 -0.9317  0.5007
   91SAPS  C214 8875   5.289   3.288   7.542 -0.3296  0.3226 -0.3926
   91SAPS  H14R 8876   5.293   3.216   7.458  2.8366 -1.1858  0.9497
   91SAPS  C215 8877   5.304   3.238   7.670 -0.4203 -0.1335 -0.0635
   91SAPS  H15R 8878   5.338   3.135   7.689  1.7057  0.4365 -0.6613
   91SAPS  C216 8879   5.317   3.306   7.800 -0.0918  0.2104 -0.5008
   91SAPS  H16R 8880   5.220   3.295   7.852  0.6339  1.8577  1.2693
   91SAPS  H16S 8881   5.338   3.415   7.788 -0.9457  0.0447 -4.1175
   91SAPS  C217 8882   5.410   3.240   7.900  0.2578 -0.3129  0.5059
   91SAPS  H17R 8883   5.516   3.262   7.874 -0.3265  2.2713  0.1170
   91SAPS  H17S 8884   5.398   3.130   7.905 -0.7846 -0.1548  2.1806
   91SAPS  C218 8885   5.384   3.289   8.043 -0.2590  0.2172  0.7281
   91SAPS  H18R 8886   5.455   3.246   8.116  0.4567 -0.5842 -0.4204
   91SAPS  H18S 8887   5.292   3.234   8.072  0.4275 -1.9057 -0.9642
   91SAPS  C219 8888   5.381   3.441   8.064 -0.0021 -0.5694 -0.5725
   91SAPS  H19R 8889   5.295   3.488   8.012 -1.4403 -0.7744  1.5753
   91SAPS  H19S 8890   5.474   3.483   8.020 -0.2158  0.6756  0.1574
   91SAPS  C220 8891   5.369   3.488   8.204 -0.2648 -0.3252 -0.4224
   91SAPS  H20R 8892   5.266   3.473   8.243 -0.9149  0.5298 -1.8017
   91SAPS  H20S 8893   5.396   3.594   8.222  0.3542 -0.8396  1.8981
   91SAPS  H20T 8894   5.444   3.436   8.267 -0.9857 -0.9217 -0.0354
   91SAPS   C33 8895   5.454   4.616   6.818  0.5277  0.2675  0.0737
   91SAPS   H3X 8896   5.408   4.541   6.886  0.9818  1.1226  1.3321
   91SAPS   H3Y 8897   5.377   4.692   6.794  0.9748 -0.1201 -2.6883
   91SAPS   C34 8898   5.551   4.693   6.900 -0.7651  0.6124 -0.8930
   91SAPS   H4X 8899   5.605   4.761   6.832  1.8328  0.6177  1.0841
   91SAPS   H4Y 8900   5.637   4.637   6.943  0.1981  1.0813 -2.1881
   91SAPS   C35 8901   5.496   4.776   7.021 -0.9305  0.2053  0.8546
   91SAPS   H5X 8902   5.410   4.843   7.000 -0.9918 -0.7322 -2.0687
   91SAPS   H5Y 8903   5.574   4.846   7.060  0.6056 -0.5749 -0.7210
   91SAPS   C36 8904   5.438   4.683   7.122 -0.8039 -0.1396 -0.0174
   91SAPS   H6X 8905   5.507   4.600   7.148 -1.3260 -0.3852  0.5902
   91SAPS   H6Y 8906   5.350   4.633   7.076  0.7941 -1.8715 -1.2970
   91SAPS   C37 8907   5.388   4.757   7.249  0.1500  0.5462 -0.9040
   91SAPS   H7X 8908   5.322   4.686   7.303 -0.1830  1.5544  0.0156
   91SAPS   H7Y 8909   5.335   4.847   7.212  2.0319  2.0077 -0.1006
   91SAPS   C38 8910   5.496   4.807   7.346  0.6989  0.3438  0.1615
   91SAPS   H8X 8911   5.552   4.890   7.298  0.3622  0.9416  0.7887
   91SAPS   H8Y 8912   5.560   4.718   7.364 -2.0658 -1.9773 -1.1324
   91SAPS   C39 8913   5.440   4.864   7.480 -0.0440 -0.1126 -0.0594
   91SAPS   H9X 8914   5.348   4.924   7.466 -0.2232 -0.7667 -1.7870
   91SAPS   H9Y 8915   5.508   4.937   7.528  0.4947 -0.9782  0.5209
   91SAPS  C310 8916   5.404   4.754   7.586 -0.7403  0.3073 -0.1419
   91SAPS  H10X 8917   5.498   4.694   7.587  0.5914  2.3863  1.3976
   91SAPS  H10Y 8918   5.320   4.692   7.547 -0.7462  1.3218 -1.7824
   91SAPS  C311 8919   5.388   4.824   7.720  0.0439  0.1185  0.5244
   91SAPS  H11X 8920   5.299   4.885   7.695  0.7467  0.4058 -1.3651
   91SAPS  H11Y 8921   5.474   4.890   7.744  0.7880 -0.4197 -0.5935
   91SAPS  C312 8922   5.358   4.725   7.830  0.1178 -1.0692 -0.2374
   91SAPS  H12X 8923   5.453   4.668   7.836  0.1056 -1.0083  0.6440
   91SAPS  H12Y 8924   5.267   4.664   7.811 -3.0650  2.8981  1.5100
   91SAPS  C313 8925   5.320   4.789   7.968  0.0080  0.2039 -0.3713
   91SAPS  H13X 8926   5.298   4.710   8.043  0.8900 -0.4505 -0.7975
   91SAPS  H13Y 8927   5.224   4.842   7.950 -0.2978 -0.4849 -0.8115
   91SAPS  C314 8928   5.420   4.882   8.030 -0.4949 -0.5409  0.0036
   91SAPS  H14X 8929   5.385   4.950   8.111 -0.0893  0.4420 -0.6386
   91SAPS  H14Y 8930   5.464   4.949   7.953  0.3042 -0.6585  0.3542
   91SAPS  C315 8931   5.544   4.809   8.082 -0.5579  0.1128  0.3597
   91SAPS  H15X 8932   5.610   4.893   8.113 -0.5147 -1.0763  3.6169
   91SAPS  H15Y 8933   5.596   4.751   8.003  1.5860  0.9119  1.1518
   91SAPS  C316 8934   5.512   4.710   8.199  0.2437  0.2666 -0.1240
   91SAPS  H16X 8935   5.458   4.619   8.163  0.6561 -0.6583  1.5204
   91SAPS  H16Y 8936   5.441   4.759   8.269  1.9000  2.5135  0.0313
   91SAPS  C317 8937   5.639   4.648   8.268 -0.1107 -0.4791 -0.2212
   91SAPS  H17X 8938   5.700   4.722   8.323 -0.6922 -0.4255  0.3563
   91SAPS  H17Y 8939   5.700   4.615   8.181 -0.5210 -0.8544 -0.3710
   91SAPS  C318 8940   5.616   4.529   8.360  0.5176  0.4075 -0.5848
   91SAPS  H18X 8941   5.560   4.443   8.318  1.3235 -1.9036  2.9319
   91SAPS  H18Y 8942   5.572   4.553   8.459  0.8390  0.3073 -0.4162
   91SAPS  H18Z 8943   5.718   4.491   8.380  0.2797  1.0137  1.9131
   92SAPS     N 8944   4.204   1.668   6.159 -0.4209  0.1840  0.3542
   92SAPS   HN1 8945   4.221   1.574   6.116  0.2375 -0.6045  2.2857
   92SAPS   HN2 8946   4.236   1.659   6.257  1.3349  2.2521  0.0042
   92SAPS   HN3 8947   4.103   1.690   6.162  0.1111  3.9443 -3.8362
   92SAPS   C12 8948   4.290   1.777   6.101  0.5414  0.1542 -0.4309
   92SAPS  H12A 8949   4.364   1.733   6.037  0.2541 -1.6986  0.4581
   92SAPS   C13 8950   4.197   1.864   6.014  0.6851 -0.2320 -0.8557
   92SAPS  O13A 8951   4.087   1.821   5.970 -0.6832  0.8511 -0.2121
   92SAPS  O13B 8952   4.246   1.970   5.968 -0.7728  0.9116 -0.1782
   92SAPS   C11 8953   4.354   1.859   6.214  0.0059 -0.2325 -0.1875
   92SAPS  H11A 8954   4.267   1.896   6.272  0.6496  2.0540 -0.6574
   92SAPS  H11B 8955   4.401   1.953   6.178  0.6048 -0.6993 -0.6437
   92SAPS     P 8956   4.422   1.709   6.426 -0.0281  0.2272  0.7273
   92SAPS   O13 8957   4.381   1.801   6.540  0.0098 -0.4227  0.0600
   92SAPS   O14 8958   4.325   1.603   6.389  0.4075  0.0128 -0.2884
   92SAPS   O12 8959   4.451   1.785   6.290  0.1722  0.3638  0.3268
   92SAPS   O11 8960   4.563   1.650   6.458 -1.2603  0.2314 -0.5998
   92SAPS    C1 8961   4.679   1.726   6.489 -0.0835 -0.5634 -0.6999
   92SAPS    HA 8962   4.763   1.676   6.437 -0.1756 -2.4926  0.9398
   92SAPS    HB 8963   4.667   1.830   6.452 -0.1738 -0.3849 -0.1655
   92SAPS    C2 8964   4.734   1.715   6.640  0.0455  0.4723  0.9806
   92SAPS    HS 8965   4.745   1.608   6.666  0.9801  1.0007  2.8233
   92SAPS   O21 8966   4.655   1.784   6.732  0.0032 -0.7647  0.3348
   92SAPS   C21 8967   4.550   1.706   6.776  0.3436 -0.1598  0.0540
   92SAPS   O22 8968   4.534   1.589   6.755  0.2878 -0.2964 -0.5661
   92SAPS   C22 8969   4.457   1.791   6.866  0.2598  1.3529 -0.3805
   92SAPS   H2R 8970   4.420   1.881   6.812 -1.0450  0.1243 -1.5650
   92SAPS   H2S 8971   4.382   1.713   6.891  0.4491  1.4771  0.6158
   92SAPS    C3 8972   4.873   1.778   6.643  0.6415  0.5176  0.5245
   92SAPS    HX 8973   4.867   1.881   6.601  0.5058 -0.1253 -1.0503
   92SAPS    HY 8974   4.925   1.719   6.565 -0.9789 -0.0691 -0.1226
   92SAPS   O31 8975   4.951   1.765   6.770 -0.1602  0.0783  0.4867
   92SAPS   C31 8976   4.982   1.874   6.828 -0.0551  0.0491 -0.2048
   92SAPS   O32 8977   4.934   1.986   6.808 -0.0730 -0.5064 -0.6591
   92SAPS   C32 8978   5.106   1.848   6.912 -0.3053 -0.9960 -0.1148
   92SAPS   H2X 8979   5.181   1.922   6.878  0.5601 -0.3403  3.0639
   92SAPS   H2Y 8980   5.140   1.743   6.895 -1.3712 -1.5053  0.8348
   92SAPS   C23 8981   4.539   1.824   6.998  0.2985  0.1704 -0.5371
   92SAPS   H3R 8982   4.464   1.873   7.063  0.9148  3.8851 -2.5027
   92SAPS   H3S 8983   4.619   1.897   6.972  1.1403 -0.3519  0.5110
   92SAPS   C24 8984   4.619   1.707   7.059 -0.0502 -0.1939  0.4025
   92SAPS   H4R 8985   4.684   1.758   7.134 -0.4174  1.6169 -0.5030
   92SAPS   H4S 8986   4.691   1.659   6.989  0.0442  0.5441 -0.0050
   92SAPS   C25 8987   4.529   1.604   7.119  0.8975  0.0595  0.3630
   92SAPS   H5R 8988   4.529   1.508   7.065 -3.7451  1.3707 -2.2288
   92SAPS   C26 8989   4.463   1.602   7.237  0.1185  0.0224 -0.0271
   92SAPS   H6R 8990   4.412   1.508   7.261  0.1075  0.0513  0.0644
   92SAPS   C27 8991   4.445   1.717   7.339 -0.6553  0.7585  0.0617
   92SAPS   H7R 8992   4.457   1.816   7.291 -2.6861  1.9434  1.9380
   92SAPS   H7S 8993   4.540   1.722   7.396  0.5562 -2.0627 -1.5552
   92SAPS   C28 8994   4.323   1.726   7.431  0.3168  0.4097  0.6417
   92SAPS   H8R 8995   4.232   1.769   7.387 -0.9246 -0.8301  1.9579
   92SAPS   C29 8996   4.314   1.681   7.561 -0.7457 -0.2384  0.3085
   92SAPS   H9R 8997   4.222   1.708   7.615  0.0775  0.3976  1.4256
   92SAPS  C210 8998   4.428   1.620   7.646 -0.1183  0.5712 -0.4496
   92SAPS  H10R 8999   4.530   1.627   7.603 -0.8522  2.5580 -1.9324
   92SAPS  H10S 9000   4.404   1.512   7.650 -4.1562  1.4046  0.5511
   92SAPS  C211 9001   4.422   1.693   7.782  0.4503  0.4708 -0.1047
   92SAPS  H11R 9002   4.461   1.795   7.792 -1.0850  0.9526  1.1436
   92SAPS  C212 9003   4.389   1.625   7.896  0.4151 -0.8008 -0.4151
   92SAPS  H12R 9004   4.376   1.684   7.988 -0.5593 -0.7729 -0.5682
   92SAPS  C213 9005   4.340   1.481   7.906  0.1126  0.0804  0.4699
   92SAPS  H13R 9006   4.332   1.415   7.817 -5.0662 -0.5126  1.2324
   92SAPS  H13S 9007   4.237   1.481   7.947 -0.0279 -0.6663  0.1347
   92SAPS  C214 9008   4.441   1.410   7.993 -0.3606 -0.2056  0.1651
   92SAPS  H14R 9009   4.538   1.405   7.940 -0.0160  0.9582  0.6494
   92SAPS  C215 9010   4.433   1.388   8.130 -0.5050  0.5876  0.1588
   92SAPS  H15R 9011   4.509   1.329   8.183  0.3778  1.7377  0.1756
   92SAPS  C216 9012   4.324   1.443   8.205  0.1491 -0.6688 -0.5997
   92SAPS  H16R 9013   4.229   1.471   8.155  0.2351 -1.0024 -0.9551
   92SAPS  H16S 9014   4.366   1.533   8.255 -1.5542  0.1741 -0.6605
   92SAPS  C217 9015   4.274   1.346   8.310  0.4681 -0.3032 -0.1090
   92SAPS  H17R 9016   4.355   1.297   8.367  2.6331  0.6781 -2.2622
   92SAPS  H17S 9017   4.228   1.261   8.255 -0.1203  1.2253 -2.0309
   92SAPS  C218 9018   4.163   1.393   8.401  0.2076  0.3560 -0.1011
   92SAPS  H18R 9019   4.066   1.397   8.347  0.1040 -2.1621 -0.1686
   92SAPS  H18S 9020   4.178   1.497   8.438 -0.7519  0.7702 -0.8507
   92SAPS  C219 9021   4.147   1.316   8.526  0.2073  0.5067 -0.1721
   92SAPS  H19R 9022   4.225   1.349   8.599 -0.8808 -0.6217  1.5438
   92SAPS  H19S 9023   4.161   1.206   8.516 -0.7865  0.3940 -0.3400
   92SAPS  C220 9024   4.017   1.352   8.595  0.4201 -0.7118 -0.1638
   92SAPS  H20R 9025   4.017   1.455   8.638 -0.0871 -0.5828 -0.4643
   92SAPS  H20S 9026   4.009   1.275   8.674 -3.2119 -2.4844 -2.1281
   92SAPS  H20T 9027   3.933   1.341   8.523  1.6392  2.6866 -2.2269
   92SAPS   C33 9028   5.086   1.850   7.062  0.6724  0.4661  1.0178
   92SAPS   H3X 9029   5.016   1.934   7.082  2.1590  1.7865  0.8110
   92SAPS   H3Y 9030   5.190   1.871   7.095  0.9667 -1.9369  1.6864
   92SAPS   C34 9031   5.025   1.722   7.119  0.0033 -0.0861  0.2898
   92SAPS   H4X 9032   5.101   1.642   7.134 -0.4722 -1.0589 -2.3096
   92SAPS   H4Y 9033   4.942   1.686   7.054  0.0132 -0.6220  0.5700
   92SAPS   C35 9034   4.978   1.748   7.262  0.0222  0.0593  0.1494
   92SAPS   H5X 9035   4.905   1.831   7.269 -0.4854 -0.4840  1.3643
   92SAPS   H5Y 9036   5.066   1.777   7.323 -0.5019 -0.1043  0.9785
   92SAPS   C36 9037   4.917   1.615   7.311  0.2678 -0.5244 -0.4356
   92SAPS   H6X 9038   4.969   1.536   7.253 -3.2399 -3.6861  0.4956
   92SAPS   H6Y 9039   4.810   1.604   7.281 -0.2754 -2.0718  1.8519
   92SAPS   C37 9040   4.932   1.590   7.458  0.0116 -0.6426  0.1130
   92SAPS   H7X 9041   5.041   1.602   7.479  0.2624 -1.2056 -0.8241
   92SAPS   H7Y 9042   4.905   1.483   7.474  0.3745 -0.7670 -0.0922
   92SAPS   C38 9043   4.842   1.690   7.530 -0.6735 -0.4063  0.0738
   92SAPS   H8X 9044   4.742   1.665   7.488 -1.5634  0.5281  1.6117
   92SAPS   H8Y 9045   4.872   1.796   7.515 -1.4379 -0.4285 -1.8709
   92SAPS   C39 9046   4.846   1.649   7.681  0.1282 -0.1022 -0.7368
   92SAPS   H9X 9047   4.835   1.540   7.693 -2.6196  0.2079 -0.1443
   92SAPS   H9Y 9048   4.753   1.695   7.719 -1.1188 -0.2903 -3.4331
   92SAPS  C310 9049   4.964   1.709   7.760  0.3971  0.6471  0.1238
   92SAPS  H10X 9050   4.985   1.811   7.720  1.9827 -0.4149 -1.8338
   92SAPS  H10Y 9051   5.059   1.663   7.725  1.0075  1.0654  1.2433
   92SAPS  C311 9052   4.947   1.690   7.909  0.0982  0.0881 -0.1012
   92SAPS  H11X 9053   4.917   1.585   7.931  2.0021 -1.3605 -3.9530
   92SAPS  H11Y 9054   4.863   1.759   7.932 -2.6129 -3.2809  0.6122
   92SAPS  C312 9055   5.062   1.719   7.996 -0.2935 -0.3597  0.5469
   92SAPS  H12X 9056   5.114   1.812   7.966 -0.9920 -0.9247 -2.5537
   92SAPS  H12Y 9057   5.130   1.632   7.994 -0.5024 -0.5729  2.1550
   92SAPS  C313 9058   5.026   1.726   8.147 -0.3824 -0.2519 -0.2397
   92SAPS  H13X 9059   4.983   1.628   8.175 -0.9406 -0.1014 -0.5628
   92SAPS  H13Y 9060   4.949   1.803   8.170 -2.8651 -2.6542 -0.3591
   92SAPS  C314 9061   5.148   1.741   8.242  1.0618  0.1724 -0.9018
   92SAPS  H14X 9062   5.193   1.841   8.223  1.1977  1.1451  3.9282
   92SAPS  H14Y 9063   5.219   1.660   8.213  0.4080 -1.5488  2.0591
   92SAPS  C315 9064   5.109   1.740   8.390 -0.0539 -0.5818 -0.2312
   92SAPS  H15X 9065   5.076   1.638   8.419  0.1532 -1.0165 -1.5221
   92SAPS  H15Y 9066   5.018   1.803   8.393 -0.1920 -0.7906  0.0271
   92SAPS  C316 9067   5.224   1.785   8.485 -0.0515  0.6930  0.2557
   92SAPS  H16X 9068   5.210   1.830   8.586 -0.8403  1.4664 -0.1964
   92SAPS  H16Y 9069   5.292   1.856   8.433 -0.9702  0.2299 -1.6216
   92SAPS  C317 9070   5.303   1.656   8.518 -0.4413  0.4195 -0.3715
   92SAPS  H17X 9071   5.324   1.598   8.426 -1.2570  0.2614 -0.4608
   92SAPS  H17Y 9072   5.223   1.603   8.574 -0.4750  2.2765  1.4287
   92SAPS  C318 9073   5.414   1.659   8.618 -0.6621 -0.0267  0.7047
   92SAPS  H18X 9074   5.422   1.556   8.659  0.0907 -0.3255 -0.1869
   92SAPS  H18Y 9075   5.403   1.729   8.704  1.9372  2.8530 -1.1896
   92SAPS  H18Z 9076   5.515   1.695   8.589 -1.4430  2.0718  0.5169
   93SAPS     N 9077   5.561   2.183   6.128 -0.3061  0.7057  0.5101
   93SAPS   HN1 9078   5.555   2.171   6.025 -0.8004 -2.9479  0.9133
   93SAPS   HN2 9079   5.626   2.263   6.145  1.0108 -0.3835  0.6852
   93SAPS   HN3 9080   5.605   2.098   6.169 -0.4997 -1.0133 -2.7157
   93SAPS   C12 9081   5.424   2.207   6.183 -0.1113 -0.0856 -0.3937
   93SAPS  H12A 9082   5.389   2.302   6.145  3.2216  1.4932  0.3407
   93SAPS   C13 9083   5.316   2.104   6.140 -0.4885  0.4191  0.2185
   93SAPS  O13A 9084   5.355   2.011   6.062 -0.3096  0.7993 -0.0026
   93SAPS  O13B 9085   5.191   2.134   6.161  0.0194  0.3497  0.2036
   93SAPS   C11 9086   5.431   2.213   6.337 -0.2065  0.4041 -0.9791
   93SAPS  H11A 9087   5.459   2.117   6.385 -1.3641  0.3405 -0.4165
   93SAPS  H11B 9088   5.331   2.238   6.378 -0.4401  0.0462 -1.3219
   93SAPS     P 9089   5.502   2.445   6.446  0.3298 -0.3905  0.6406
   93SAPS   O13 9090   5.564   2.549   6.357  0.3921  0.3383  1.1265
   93SAPS   O14 9091   5.359   2.466   6.451  0.5377 -0.3516  0.4056
   93SAPS   O12 9092   5.525   2.299   6.389  0.4103 -0.1582  0.0179
   93SAPS   O11 9093   5.578   2.445   6.587 -0.1280 -0.0218  0.4310
   93SAPS    C1 9094   5.611   2.328   6.664 -0.1090  0.3724  0.3246
   93SAPS    HA 9095   5.654   2.250   6.597 -0.7230 -2.0138  2.6576
   93SAPS    HB 9096   5.681   2.342   6.749  0.1692  1.7661 -0.1128
   93SAPS    C2 9097   5.488   2.247   6.717 -0.5835 -0.1263  0.2926
   93SAPS    HS 9098   5.443   2.210   6.622 -2.1700  0.3300  0.8510
   93SAPS   O21 9099   5.395   2.324   6.797 -0.1258 -0.6742  0.0975
   93SAPS   C21 9100   5.274   2.260   6.810 -0.2147 -0.1924 -0.1965
   93SAPS   O22 9101   5.242   2.165   6.745  0.2260 -0.1091 -0.4294
   93SAPS   C22 9102   5.187   2.329   6.925  0.0273  0.9256  0.1989
   93SAPS   H2R 9103   5.253   2.404   6.974  0.0680  0.2348  1.2011
   93SAPS   H2S 9104   5.098   2.375   6.876 -0.5513  2.0253  2.2177
   93SAPS    C3 9105   5.538   2.121   6.800  0.1932  0.5329 -0.4522
   93SAPS    HX 9106   5.600   2.050   6.742  1.3050  0.2208  1.0764
   93SAPS    HY 9107   5.451   2.060   6.832  0.1497 -0.7664 -2.8932
   93SAPS   O31 9108   5.624   2.164   6.912 -0.1785  0.4314  0.4029
   93SAPS   C31 9109   5.565   2.194   7.027  0.4777  0.3060 -0.1288
   93SAPS   O32 9110   5.450   2.180   7.053  0.4470  0.2574 -0.0142
   93SAPS   C32 9111   5.679   2.223   7.124  0.3631 -0.3225  0.0425
   93SAPS   H2X 9112   5.705   2.329   7.103 -0.3278 -0.3415 -0.9374
   93SAPS   H2Y 9113   5.759   2.154   7.090 -0.1606 -0.2318 -1.3839
   93SAPS   C23 9114   5.135   2.224   7.025 -0.8123  0.2486  0.0576
   93SAPS   H3R 9115   5.221   2.179   7.080 -0.0887  1.4854 -0.0297
   93SAPS   H3S 9116   5.076   2.139   6.985  0.8683 -0.2434 -1.4137
   93SAPS   C24 9117   5.042   2.295   7.126  0.6536  0.0154 -0.1603
   93SAPS   H4R 9118   5.021   2.208   7.193 -0.4243  0.3773 -0.0273
   93SAPS   H4S 9119   4.947   2.326   7.079  0.7238 -0.3077 -0.5145
   93SAPS   C25 9120   5.099   2.417   7.197  0.0283 -1.0192  0.5606
   93SAPS   H5R 9121   5.102   2.507   7.133  0.7054 -1.5166 -0.1048
   93SAPS   C26 9122   5.149   2.438   7.320  0.5296  0.1921 -0.0311
   93SAPS   H6R 9123   5.171   2.542   7.344  0.6040  0.1144  0.2362
   93SAPS   C27 9124   5.155   2.339   7.435 -1.1321  0.0524  0.1108
   93SAPS   H7R 9125   5.259   2.304   7.454 -1.6923 -1.6189  0.2433
   93SAPS   H7S 9126   5.102   2.245   7.408 -1.2255  0.3957 -0.8937
   93SAPS   C28 9127   5.097   2.409   7.549 -0.4582  0.0926 -0.3372
   93SAPS   H8R 9128   5.049   2.506   7.533  0.0890  0.5669  0.8301
   93SAPS   C29 9129   5.097   2.368   7.680 -0.6221 -0.0121 -0.0398
   93SAPS   H9R 9130   5.077   2.440   7.760 -1.9786 -1.4329  0.9298
   93SAPS  C210 9131   5.165   2.243   7.730  0.3416 -0.6936  0.0729
   93SAPS  H10R 9132   5.238   2.261   7.812  2.0070 -0.2396 -1.4806
   93SAPS  H10S 9133   5.237   2.204   7.656  1.8257 -0.6891  1.4860
   93SAPS  C211 9134   5.069   2.134   7.763  0.0042 -0.4242 -0.3499
   93SAPS  H11R 9135   5.046   2.059   7.686  0.9290  0.4956 -1.5589
   93SAPS  C212 9136   5.020   2.101   7.885  0.8038 -0.1447 -0.7127
   93SAPS  H12R 9137   4.948   2.020   7.906  3.1306 -1.4732  2.5735
   93SAPS  C213 9138   5.061   2.174   8.009  0.4162 -0.3214  0.0969
   93SAPS  H13R 9139   5.038   2.281   7.991 -0.6103 -0.9103 -2.4033
   93SAPS  H13S 9140   5.171   2.171   8.024  0.4778 -0.7773 -0.4032
   93SAPS  C214 9141   5.008   2.117   8.141  0.0237  0.8275 -0.0796
   93SAPS  H14R 9142   4.953   2.022   8.133 -1.6493  1.6684  1.2367
   93SAPS  C215 9143   5.032   2.166   8.269 -0.3532  0.2778  0.4164
   93SAPS  H15R 9144   4.996   2.111   8.357 -1.1259  1.4404  0.8375
   93SAPS  C216 9145   5.116   2.289   8.296  0.0461 -0.0925  0.5380
   93SAPS  H16R 9146   5.062   2.372   8.346 -2.7283 -1.7032  0.3201
   93SAPS  H16S 9147   5.146   2.339   8.202 -0.4461 -2.6538 -1.0288
   93SAPS  C217 9148   5.242   2.262   8.384  0.3449 -0.0285 -0.6908
   93SAPS  H17R 9149   5.303   2.354   8.400 -0.5777  0.8164 -1.9549
   93SAPS  H17S 9150   5.297   2.190   8.320 -1.4159 -0.0546 -2.2081
   93SAPS  C218 9151   5.208   2.213   8.526  0.0861 -0.0082  0.0890
   93SAPS  H18R 9152   5.113   2.155   8.523  0.2076 -0.2522  0.8069
   93SAPS  H18S 9153   5.191   2.310   8.577  1.1301 -0.2754  0.9501
   93SAPS  C219 9154   5.324   2.133   8.586  0.6050 -0.7746  0.1358
   93SAPS  H19R 9155   5.421   2.183   8.565 -0.6534  1.1621 -1.2814
   93SAPS  H19S 9156   5.333   2.040   8.525  0.5580 -0.4107 -0.4301
   93SAPS  C220 9157   5.303   2.106   8.733 -0.0009 -0.1549 -0.0574
   93SAPS  H20R 9158   5.399   2.067   8.773  0.9273  1.1464 -0.9291
   93SAPS  H20S 9159   5.218   2.039   8.757  0.0353  0.2755  1.2766
   93SAPS  H20T 9160   5.284   2.194   8.798  0.5392 -2.0182  2.6757
   93SAPS   C33 9161   5.642   2.198   7.265 -0.4807  0.3036 -0.4610
   93SAPS   H3X 9162   5.619   2.090   7.274 -0.5092  0.3929  0.6923
   93SAPS   H3Y 9163   5.547   2.250   7.291  0.1481  1.0473  0.3969
   93SAPS   C34 9164   5.760   2.227   7.355  0.1334  0.1251  0.7153
   93SAPS   H4X 9165   5.789   2.334   7.363 -1.9089  0.8417 -0.9607
   93SAPS   H4Y 9166   5.836   2.164   7.304  0.2983  0.2995  0.7455
   93SAPS   C35 9167   5.746   2.179   7.504  0.7122  0.1816 -0.2283
   93SAPS   H5X 9168   5.683   2.088   7.505  1.0126 -0.0322 -0.7211
   93SAPS   H5Y 9169   5.688   2.256   7.559 -0.4856 -0.0803 -1.1054
   93SAPS   C36 9170   5.882   2.142   7.571  0.3880 -0.5646  0.0310
   93SAPS   H6X 9171   5.950   2.230   7.569  0.3891 -0.5781 -3.0423
   93SAPS   H6Y 9172   5.924   2.061   7.508  0.2598  0.6616 -1.6553
   93SAPS   C37 9173   5.878   2.105   7.722 -0.0282 -1.2344  0.0466
   93SAPS   H7X 9174   5.970   2.052   7.755  1.3394  1.5857  0.8999
   93SAPS   H7Y 9175   5.788   2.044   7.742 -0.8891 -0.4500 -1.3317
   93SAPS   C38 9176   5.846   2.221   7.821  0.7773  0.7319  0.8930
   93SAPS   H8X 9177   5.746   2.263   7.797  0.7727  0.1444 -0.1444
   93SAPS   H8Y 9178   5.917   2.302   7.796  3.7069 -1.6890  1.1311
   93SAPS   C39 9179   5.856   2.191   7.967 -0.3582  0.5665  0.0475
   93SAPS   H9X 9180   5.962   2.172   7.994 -0.0540  2.7503  0.5017
   93SAPS   H9Y 9181   5.799   2.098   7.986  0.5091 -0.0991 -0.5727
   93SAPS  C310 9182   5.805   2.298   8.060  0.2369 -0.3705  0.4077
   93SAPS  H10X 9183   5.703   2.328   8.026  0.3164 -1.6137 -0.9699
   93SAPS  H10Y 9184   5.865   2.390   8.051 -0.7854  0.4125  1.3632
   93SAPS  C311 9185   5.797   2.249   8.204 -0.1407  0.6770 -0.4714
   93SAPS  H11X 9186   5.787   2.139   8.217  1.4618  0.4689 -0.8217
   93SAPS  H11Y 9187   5.716   2.291   8.267 -2.1146  2.5906 -4.1168
   93SAPS  C312 9188   5.939   2.283   8.266 -0.0714 -0.2290  0.0073
   93SAPS  H12X 9189   5.931   2.392   8.289 -1.2914 -0.9537  3.3070
   93SAPS  H12Y 9190   6.016   2.279   8.186  0.8438 -0.6546  0.9052
   93SAPS  C313 9191   5.969   2.184   8.374 -0.0552 -0.3579 -0.5514
   93SAPS  H13X 9192   6.073   2.188   8.410  0.0705  2.4760 -1.1315
   93SAPS  H13Y 9193   5.951   2.078   8.344  1.2600 -0.9800  0.8316
   93SAPS  C314 9194   5.873   2.213   8.490  0.0400 -0.1080 -0.4697
   93SAPS  H14X 9195   5.764   2.201   8.471 -0.2398  1.3040  0.1475
   93SAPS  H14Y 9196   5.889   2.317   8.526  0.0298 -1.3656  3.3544
   93SAPS  C315 9197   5.884   2.117   8.611 -0.3025  0.4070 -0.3331
   93SAPS  H15X 9198   5.977   2.154   8.658 -0.1242 -1.2080  0.6212
   93SAPS  H15Y 9199   5.905   2.014   8.574 -1.7022  0.8644 -2.5313
   93SAPS  C316 9200   5.772   2.118   8.717 -0.6925  1.2162  0.2699
   93SAPS  H16X 9201   5.673   2.097   8.671  0.2941  1.3503 -1.9825
   93SAPS  H16Y 9202   5.769   2.225   8.746 -0.8364  1.3768 -0.3326
   93SAPS  C317 9203   5.801   2.035   8.844  0.2474  0.5476 -0.1539
   93SAPS  H17X 9204   5.813   1.931   8.808 -0.9216 -0.2451  1.6792
   93SAPS  H17Y 9205   5.709   2.031   8.907 -0.2948  2.1561 -0.7939
   93SAPS  C318 9206   5.930   2.078   8.922  0.0057 -0.4209  0.0628
   93SAPS  H18X 9207   5.956   2.009   9.005  1.1020  0.6518  0.6341
   93SAPS  H18Y 9208   5.899   2.173   8.971 -0.2698 -0.5134  0.0696
   93SAPS  H18Z 9209   6.014   2.079   8.850 -0.9103  0.1120 -1.0125
   94SAPS     N 9210   5.128   5.179   5.747  0.8859  0.3379 -0.3605
   94SAPS   HN1 9211   5.058   5.253   5.763 -0.2604  0.0564 -3.5652
   94SAPS   HN2 9212   5.222   5.220   5.763  0.3172  1.1630  0.8810
   94SAPS   HN3 9213   5.115   5.168   5.644 -3.2317  3.0889 -0.2087
   94SAPS   C12 9214   5.111   5.049   5.817  0.0795 -1.3291 -0.7312
   94SAPS  H12A 9215   5.104   5.069   5.923  3.5912 -2.1619 -0.2788
   94SAPS   C13 9216   4.978   4.977   5.783  0.4129  0.1724 -0.6246
   94SAPS  O13A 9217   4.884   5.028   5.711  0.0681 -0.1428 -0.8577
   94SAPS  O13B 9218   4.945   4.891   5.869 -0.2352  0.2399 -0.5152
   94SAPS   C11 9219   5.220   4.947   5.788  0.4378 -0.1897 -0.3945
   94SAPS  H11A 9220   5.216   4.911   5.683  2.2874 -1.3863 -0.0822
   94SAPS  H11B 9221   5.205   4.864   5.859  0.2841 -0.0922 -0.3154
   94SAPS     P 9222   5.481   4.925   5.798 -0.2238 -0.5054  0.3805
   94SAPS   O13 9223   5.482   4.833   5.678  0.0373  0.0948 -0.2661
   94SAPS   O14 9224   5.599   5.009   5.808  0.3448 -0.1516  0.0432
   94SAPS   O12 9225   5.349   5.004   5.808 -0.0563 -0.9140 -0.0121
   94SAPS   O11 9226   5.460   4.836   5.921 -0.3601  0.1805 -0.2927
   94SAPS    C1 9227   5.423   4.894   6.044  0.3503 -0.1591 -0.1118
   94SAPS    HA 9228   5.367   4.990   6.040 -0.3112 -0.4957  0.6885
   94SAPS    HB 9229   5.357   4.830   6.107 -1.0389 -0.0585 -1.4300
   94SAPS    C2 9230   5.548   4.929   6.128 -0.4646 -0.1224 -0.0048
   94SAPS    HS 9231   5.627   4.984   6.073  0.5790  0.2445  1.8101
   94SAPS   O21 9232   5.594   4.809   6.196  0.5778  0.0434  1.0538
   94SAPS   C21 9233   5.718   4.809   6.229 -1.1848  0.2537 -0.0505
   94SAPS   O22 9234   5.808   4.894   6.211  0.4418 -0.3403  0.3661
   94SAPS   C22 9235   5.760   4.670   6.286  0.2285  0.2109  0.3216
   94SAPS   H2R 9236   5.736   4.590   6.212 -0.9080  0.4990  0.3642
   94SAPS   H2S 9237   5.870   4.663   6.295  0.4873  0.2639 -2.2929
   94SAPS    C3 9238   5.506   5.027   6.247 -0.2952 -0.8603 -0.1329
   94SAPS    HX 9239   5.480   5.119   6.190  1.6061  0.7210  1.4890
   94SAPS    HY 9240   5.588   5.057   6.315 -0.0420  0.2901 -0.9289
   94SAPS   O31 9241   5.390   4.969   6.312 -0.4529  0.1257 -0.2674
   94SAPS   C31 9242   5.397   4.907   6.424 -0.5254 -0.5802  0.1944
   94SAPS   O32 9243   5.499   4.883   6.493 -0.2180  0.3502  0.3567
   94SAPS   C32 9244   5.260   4.865   6.475 -0.3350 -0.4181 -0.3638
   94SAPS   H2X 9245   5.260   4.756   6.494  3.6085 -0.5554 -0.7697
   94SAPS   H2Y 9246   5.177   4.901   6.410  2.3516  2.5231 -2.3475
   94SAPS   C23 9247   5.706   4.644   6.430  0.2594  0.2449  0.2594
   94SAPS   H3R 9248   5.709   4.538   6.462 -0.6971 -0.2494 -1.2166
   94SAPS   H3S 9249   5.600   4.675   6.433  0.8198  2.4660 -1.1340
   94SAPS   C24 9250   5.785   4.738   6.523  0.2710 -0.3305 -0.5732
   94SAPS   H4R 9251   5.711   4.749   6.606  0.0900  0.6541 -0.8563
   94SAPS   H4S 9252   5.793   4.844   6.489  2.4655  0.0551  1.0633
   94SAPS   C25 9253   5.912   4.675   6.550 -0.3618 -0.0396  0.0158
   94SAPS   H5R 9254   5.974   4.645   6.464 -2.9061 -1.5464 -1.3267
   94SAPS   C26 9255   5.975   4.652   6.671  0.1752  0.5279  0.5080
   94SAPS   H6R 9256   6.077   4.611   6.667 -0.6911 -2.0053  2.9122
   94SAPS   C27 9257   5.930   4.688   6.811 -0.4397 -1.1383  0.3747
   94SAPS   H7R 9258   5.826   4.648   6.818 -0.5671 -0.9847 -0.5145
   94SAPS   H7S 9259   5.923   4.798   6.802  0.1477 -1.3083 -2.7480
   94SAPS   C28 9260   6.021   4.641   6.917  0.0676  0.2293  0.9051
   94SAPS   H8R 9261   6.094   4.562   6.897  0.3268  0.9959 -1.3190
   94SAPS   C29 9262   6.007   4.675   7.044 -0.0781 -0.5913  0.7401
   94SAPS   H9R 9263   6.079   4.645   7.121  0.1856  1.3058  1.2626
   94SAPS  C210 9264   5.903   4.772   7.097  0.4047 -0.5401 -0.1374
   94SAPS  H10R 9265   5.844   4.717   7.173  0.4453 -1.8199 -1.0088
   94SAPS  H10S 9266   5.820   4.797   7.028 -1.6574 -2.8386  1.4209
   94SAPS  C211 9267   5.972   4.887   7.163 -0.1698 -0.6789 -0.0170
   94SAPS  H11R 9268   6.021   4.945   7.083  0.4924  1.6856  2.0272
   94SAPS  C212 9269   5.965   4.946   7.288 -0.0544  0.0529  0.5994
   94SAPS  H12R 9270   6.036   5.027   7.307  1.3989 -0.8443 -0.8665
   94SAPS  C213 9271   5.888   4.879   7.401 -0.2279 -0.4058 -0.3552
   94SAPS  H13R 9272   5.955   4.806   7.449  0.3463  0.2599 -0.1426
   94SAPS  H13S 9273   5.808   4.819   7.351 -0.3730 -0.9409  0.5115
   94SAPS  C214 9274   5.830   4.982   7.489  0.3483  0.0115  0.0266
   94SAPS  H14R 9275   5.800   5.081   7.453  2.0098  0.9521  1.1710
   94SAPS  C215 9276   5.793   4.965   7.616  0.2471  0.8886  0.7917
   94SAPS  H15R 9277   5.738   5.041   7.674 -2.0216 -0.5986  0.6560
   94SAPS  C216 9278   5.808   4.830   7.681 -1.0588  0.1758  0.1279
   94SAPS  H16R 9279   5.902   4.776   7.654 -0.3547  1.9580 -1.1016
   94SAPS  H16S 9280   5.722   4.768   7.649 -1.3385  1.0384 -0.8333
   94SAPS  C217 9281   5.818   4.854   7.834  0.7821  0.4891 -0.2587
   94SAPS  H17R 9282   5.812   4.752   7.878  0.9280  0.2970 -0.6821
   94SAPS  H17S 9283   5.730   4.914   7.865  1.0625  1.6362 -1.6381
   94SAPS  C218 9284   5.944   4.915   7.891 -0.1368  0.0117 -0.2366
   94SAPS  H18R 9285   5.962   5.005   7.829 -0.6303  2.1710  2.6024
   94SAPS  H18S 9286   6.024   4.842   7.869 -1.2594 -0.2273 -3.8988
   94SAPS  C219 9287   5.928   4.945   8.042 -0.7219  0.6656 -0.5085
   94SAPS  H19R 9288   5.819   4.951   8.061 -1.1318 -0.5208 -2.2688
   94SAPS  H19S 9289   5.968   5.046   8.067  1.1491 -0.0260 -0.5850
   94SAPS  C220 9290   5.974   4.841   8.146  0.1946 -0.4863  0.5791
   94SAPS  H20R 9291   6.074   4.799   8.124  0.5251  0.8626 -0.5741
   94SAPS  H20S 9292   5.897   4.761   8.149  0.3429 -0.7397 -1.3013
   94SAPS  H20T 9293   5.971   4.898   8.241 -1.0606 -0.4189  0.5195
   94SAPS   C33 9294   5.241   4.923   6.618  0.0215  0.3818  0.2736
   94SAPS   H3X 9295   5.322   4.881   6.682 -0.2729 -0.9111 -0.1891
   94SAPS   H3Y 9296   5.149   4.896   6.675 -1.5796  1.0763 -1.9339
   94SAPS   C34 9297   5.239   5.079   6.619 -0.8471  0.6948 -0.4680
   94SAPS   H4X 9298   5.147   5.111   6.565  0.2325  1.9554 -1.5940
   94SAPS   H4Y 9299   5.328   5.119   6.565 -1.4725 -0.1178 -2.1528
   94SAPS   C35 9300   5.232   5.150   6.757 -0.0020  0.1387 -0.5342
   94SAPS   H5X 9301   5.135   5.125   6.804  0.8847 -0.1912  1.1566
   94SAPS   H5Y 9302   5.235   5.260   6.741  0.2129 -0.1257 -2.4198
   94SAPS   C36 9303   5.352   5.129   6.850 -0.1715  0.8936  0.4971
   94SAPS   H6X 9304   5.443   5.168   6.799  0.0591  0.2212  0.4010
   94SAPS   H6Y 9305   5.374   5.021   6.864  2.7971  1.1934 -1.3744
   94SAPS   C37 9306   5.347   5.197   6.986  1.1223  0.4651 -0.2899
   94SAPS   H7X 9307   5.324   5.304   6.970 -1.9496 -0.2348 -0.9026
   94SAPS   H7Y 9308   5.444   5.206   7.039  1.2169  0.8934 -0.5309
   94SAPS   C38 9309   5.229   5.140   7.072  0.3692 -0.0165 -0.7755
   94SAPS   H8X 9310   5.236   5.029   7.070  3.4499  0.1062 -0.0397
   94SAPS   H8Y 9311   5.131   5.175   7.035 -0.6051  0.7265  2.3405
   94SAPS   C39 9312   5.231   5.193   7.215 -0.2467 -0.3389  0.0792
   94SAPS   H9X 9313   5.177   5.123   7.282 -1.7910 -0.3110 -1.1049
   94SAPS   H9Y 9314   5.180   5.292   7.224  1.2897  0.5705 -0.9463
   94SAPS  C310 9315   5.373   5.203   7.283  0.0229  0.2719 -0.1321
   94SAPS  H10X 9316   5.432   5.286   7.238 -0.1543 -0.2440 -1.3351
   94SAPS  H10Y 9317   5.429   5.110   7.260 -0.7776 -0.4622  0.8234
   94SAPS  C311 9318   5.363   5.216   7.432  0.4015  0.5417 -0.1580
   94SAPS  H11X 9319   5.342   5.121   7.486  0.9233  2.1283  2.9796
   94SAPS  H11Y 9320   5.291   5.297   7.458 -0.3640  0.1425 -1.0089
   94SAPS  C312 9321   5.500   5.262   7.499  0.3860 -0.6090  0.1632
   94SAPS  H12X 9322   5.531   5.361   7.459 -1.7367  1.1796  2.7410
   94SAPS  H12Y 9323   5.581   5.194   7.463 -0.1331 -0.0617 -2.1201
   94SAPS  C313 9324   5.492   5.261   7.650  0.0939  0.0344  0.4119
   94SAPS  H13X 9325   5.457   5.163   7.690  1.2345 -1.9024 -3.1221
   94SAPS  H13Y 9326   5.420   5.338   7.684 -1.9677 -2.7151  2.5115
   94SAPS  C314 9327   5.638   5.292   7.702  0.1808  0.5755 -0.4080
   94SAPS  H14X 9328   5.649   5.401   7.681  0.6254  0.6159  0.0080
   94SAPS  H14Y 9329   5.718   5.235   7.649  2.2873  2.3216  0.7910
   94SAPS  C315 9330   5.651   5.268   7.852  0.0515  0.2853  0.5171
   94SAPS  H15X 9331   5.604   5.168   7.866 -0.7246  0.6623  0.6394
   94SAPS  H15Y 9332   5.573   5.329   7.902  0.4818 -0.0102  1.5440
   94SAPS  C316 9333   5.787   5.280   7.916  0.0937 -0.1248 -0.4192
   94SAPS  H16X 9334   5.846   5.365   7.876  3.2339 -1.2647  1.5189
   94SAPS  H16Y 9335   5.840   5.187   7.885  0.0589 -0.2081 -0.2295
   94SAPS  C317 9336   5.780   5.299   8.067 -0.3574  0.0582  0.1570
   94SAPS  H17X 9337   5.773   5.195   8.105  0.8754 -0.0010  0.2225
   94SAPS  H17Y 9338   5.686   5.357   8.081 -0.8888  0.1616 -3.2420
   94SAPS  C318 9339   5.909   5.367   8.127 -0.1171 -0.3727 -0.8347
   94SAPS  H18X 9340   5.901   5.382   8.236  0.8413 -1.6656 -0.5708
   94SAPS  H18Y 9341   5.930   5.468   8.087  0.9389 -2.0358 -4.7444
   94SAPS  H18Z 9342   5.996   5.301   8.106  0.4749  0.7545 -1.9972
   95SAPS     N 9343   1.263   2.991   6.111  0.1404  0.0818  1.0288
   95SAPS   HN1 9344   1.288   2.928   6.190  0.4740  1.5387  2.1096
   95SAPS   HN2 9345   1.346   3.052   6.101  1.3120 -1.1461  2.7952
   95SAPS   HN3 9346   1.185   3.051   6.145 -1.8343 -0.5557 -2.1538
   95SAPS   C12 9347   1.227   2.909   5.988 -0.2162 -0.1378 -0.0662
   95SAPS  H12A 9348   1.155   2.833   6.017 -0.2170 -0.3375 -0.5956
   95SAPS   C13 9349   1.149   2.979   5.883 -0.2802 -0.0580 -0.7157
   95SAPS  O13A 9350   1.111   3.098   5.895  0.0519 -0.4637 -0.4007
   95SAPS  O13B 9351   1.105   2.907   5.790  0.4932 -0.8169 -0.2169
   95SAPS   C11 9352   1.363   2.853   5.931  0.2499  0.2817  0.0193
   95SAPS  H11A 9353   1.423   2.944   5.910  0.4233 -0.3559 -2.3452
   95SAPS  H11B 9354   1.363   2.812   5.828 -1.7828  2.1613 -0.7581
   95SAPS     P 9355   1.405   2.619   6.039  0.3842  0.5821 -0.1324
   95SAPS   O13 9356   1.256   2.594   6.037  0.2871 -0.2436  0.6461
   95SAPS   O14 9357   1.481   2.547   5.933 -0.1321 -0.4943  0.7031
   95SAPS   O12 9358   1.428   2.771   6.030 -0.2832  0.5343  0.0032
   95SAPS   O11 9359   1.467   2.600   6.181 -0.0728  0.0693  0.1964
   95SAPS    C1 9360   1.467   2.474   6.246 -0.1845 -0.2309  0.2708
   95SAPS    HA 9361   1.373   2.421   6.219 -1.3443  1.3759  1.0594
   95SAPS    HB 9362   1.552   2.413   6.207  0.5863  0.5131  0.7563
   95SAPS    C2 9363   1.489   2.491   6.399  0.2290 -0.1423 -0.0825
   95SAPS    HS 9364   1.411   2.559   6.439 -1.2921 -1.4294 -0.7741
   95SAPS   O21 9365   1.624   2.548   6.418  0.0805  0.2324  1.0140
   95SAPS   C21 9366   1.638   2.612   6.528 -1.3943 -0.1154  0.0077
   95SAPS   O22 9367   1.554   2.640   6.612 -0.1913  0.1068 -1.0352
   95SAPS   C22 9368   1.785   2.654   6.539 -0.1304  0.0441 -0.1332
   95SAPS   H2R 9369   1.846   2.561   6.539 -1.5331 -0.9382  2.7034
   95SAPS   H2S 9370   1.822   2.706   6.449  0.4203  0.2963  0.2334
   95SAPS    C3 9371   1.457   2.358   6.466 -0.7456  0.2026  0.3535
   95SAPS    HX 9372   1.503   2.277   6.406 -0.6743  0.4175  0.1194
   95SAPS    HY 9373   1.350   2.328   6.456 -0.7614  0.7230 -1.1941
   95SAPS   O31 9374   1.492   2.360   6.607 -0.1714 -0.1377  0.4189
   95SAPS   C31 9375   1.395   2.395   6.692  1.0089  0.0683  0.6706
   95SAPS   O32 9376   1.284   2.429   6.664  0.7291 -0.3861 -0.4368
   95SAPS   C32 9377   1.450   2.377   6.833 -0.0230 -0.4261 -0.4172
   95SAPS   H2X 9378   1.522   2.458   6.856 -0.7530 -0.0318  0.5312
   95SAPS   H2Y 9379   1.496   2.277   6.846  1.5879  0.6728  2.8835
   95SAPS   C23 9380   1.814   2.742   6.666  0.3224 -0.7810  1.1111
   95SAPS   H3R 9381   1.740   2.825   6.667  1.1764  0.0182 -0.3796
   95SAPS   H3S 9382   1.910   2.797   6.662  0.6555 -1.4952 -1.7279
   95SAPS   C24 9383   1.817   2.667   6.798  1.0127  0.0071 -0.2735
   95SAPS   H4R 9384   1.720   2.612   6.803 -0.2832  2.4347  2.4802
   95SAPS   H4S 9385   1.811   2.736   6.884  1.8820 -0.2609  0.0019
   95SAPS   C25 9386   1.936   2.580   6.814 -0.1286  0.0815 -0.0656
   95SAPS   H5R 9387   1.961   2.524   6.722  0.6380  1.8716 -0.9640
   95SAPS   C26 9388   2.023   2.576   6.921  0.1005  0.1289 -0.0437
   95SAPS   H6R 9389   2.117   2.518   6.919 -0.3803 -0.6777  0.6199
   95SAPS   C27 9390   2.011   2.650   7.054  0.4373  0.6057 -0.3015
   95SAPS   H7R 9391   1.902   2.648   7.073  0.4946 -0.4495 -0.0852
   95SAPS   H7S 9392   2.049   2.754   7.041 -0.2213  0.7711 -0.9786
   95SAPS   C28 9393   2.084   2.594   7.169 -0.7445 -0.1911 -0.0634
   95SAPS   H8R 9394   2.139   2.504   7.138  0.0360  0.5061 -0.7536
   95SAPS   C29 9395   2.088   2.638   7.298 -0.2358  1.0958  0.6289
   95SAPS   H9R 9396   2.134   2.574   7.374 -0.1834  0.3861  0.0091
   95SAPS  C210 9397   2.016   2.766   7.342  0.5747  0.2074  0.0043
   95SAPS  H10R 9398   1.955   2.807   7.258 -0.4610  2.3878  1.7748
   95SAPS  H10S 9399   2.097   2.838   7.365 -1.1451  2.4904 -0.7866
   95SAPS  C211 9400   1.919   2.755   7.465  0.1217  0.0449  0.5002
   95SAPS  H11R 9401   1.814   2.777   7.444 -0.0390  0.6563  1.8985
   95SAPS  C212 9402   1.956   2.735   7.593  0.0234  0.0215 -0.0389
   95SAPS  H12R 9403   1.882   2.744   7.673  0.9880 -0.0457  0.8670
   95SAPS  C213 9404   2.096   2.710   7.654  0.3808  0.7817 -0.2553
   95SAPS  H13R 9405   2.167   2.730   7.571  0.0382 -0.9666 -0.9831
   95SAPS  H13S 9406   2.105   2.604   7.685  0.2253  0.8859  0.1461
   95SAPS  C214 9407   2.114   2.802   7.767  0.4960 -0.2095 -0.5870
   95SAPS  H14R 9408   2.185   2.885   7.751  1.7709 -0.8356  1.6760
   95SAPS  C215 9409   2.059   2.791   7.889 -0.7893 -0.1438  0.3282
   95SAPS  H15R 9410   2.073   2.873   7.961 -0.2075 -1.6512  1.9969
   95SAPS  C216 9411   1.971   2.682   7.942 -0.3351 -0.5531  0.4022
   95SAPS  H16R 9412   1.944   2.613   7.859  2.9340 -0.1175 -1.1195
   95SAPS  H16S 9413   1.882   2.741   7.974  1.2425  3.0225 -1.4083
   95SAPS  C217 9414   2.027   2.607   8.064  0.0782 -0.7361  0.0404
   95SAPS  H17R 9415   2.116   2.544   8.043  0.8519 -0.1600  1.5363
   95SAPS  H17S 9416   1.952   2.531   8.094  0.0296 -0.6573  0.1194
   95SAPS  C218 9417   2.047   2.702   8.185 -0.7717 -0.2207  0.0989
   95SAPS  H18R 9418   1.952   2.748   8.221 -0.4156  0.1961  0.5136
   95SAPS  H18S 9419   2.119   2.784   8.166 -2.1331  0.5594 -1.9398
   95SAPS  C219 9420   2.098   2.624   8.309 -0.2816  0.0653 -0.5224
   95SAPS  H19R 9421   2.200   2.582   8.290  0.5200  1.7296  0.0246
   95SAPS  H19S 9422   2.027   2.540   8.320 -0.6580  0.1616 -2.1039
   95SAPS  C220 9423   2.119   2.705   8.432  0.0565 -0.3211 -0.1426
   95SAPS  H20R 9424   2.158   2.802   8.395  2.0992 -2.2827 -3.3821
   95SAPS  H20S 9425   2.204   2.674   8.496  0.5717  3.9301  1.4315
   95SAPS  H20T 9426   2.019   2.726   8.475  1.0086  1.9915  1.0267
   95SAPS   C33 9427   1.338   2.399   6.938  0.1724  0.1973 -0.2102
   95SAPS   H3X 9428   1.249   2.345   6.899  0.3493  1.1559 -2.0036
   95SAPS   H3Y 9429   1.324   2.509   6.938 -0.2619  0.1552 -2.3022
   95SAPS   C34 9430   1.376   2.358   7.081  0.2071  0.0937  0.9374
   95SAPS   H4X 9431   1.456   2.430   7.110 -0.2089  1.0142 -0.1325
   95SAPS   H4Y 9432   1.427   2.260   7.084  2.6162  1.1876 -1.3655
   95SAPS   C35 9433   1.253   2.360   7.175  0.4191  0.5927  0.7898
   95SAPS   H5X 9434   1.191   2.277   7.134  1.7818 -0.1837  0.2811
   95SAPS   H5Y 9435   1.195   2.455   7.168  0.1388  0.3187 -1.0768
   95SAPS   C36 9436   1.314   2.341   7.317 -0.5410 -0.1401  0.0288
   95SAPS   H6X 9437   1.403   2.407   7.329 -0.5452 -0.3221  1.0800
   95SAPS   H6Y 9438   1.351   2.237   7.330  4.8061  1.6073  0.3336
   95SAPS   C37 9439   1.206   2.372   7.419  0.3114 -0.1846  0.2517
   95SAPS   H7X 9440   1.108   2.321   7.407 -0.6240  1.1062  2.1429
   95SAPS   H7Y 9441   1.183   2.481   7.420 -1.1664 -0.4960  0.4332
   95SAPS   C38 9442   1.275   2.334   7.557 -0.3328  0.1072  0.6798
   95SAPS   H8X 9443   1.367   2.394   7.566 -0.3618  0.4931 -1.3743
   95SAPS   H8Y 9444   1.307   2.227   7.553  0.8081  0.4855 -0.6520
   95SAPS   C39 9445   1.178   2.333   7.674 -0.0804 -0.5568  0.5425
   95SAPS   H9X 9446   1.105   2.251   7.656 -1.3035  0.7301 -0.4214
   95SAPS   H9Y 9447   1.122   2.429   7.677  3.1260  1.4227 -0.6345
   95SAPS  C310 9448   1.251   2.315   7.807  0.0815  0.3929 -0.6949
   95SAPS  H10X 9449   1.325   2.392   7.837  0.9406 -1.1067  1.2007
   95SAPS  H10Y 9450   1.325   2.234   7.791  0.9756  1.3355 -1.3312
   95SAPS  C311 9451   1.167   2.277   7.932 -0.6038 -0.7398 -0.6778
   95SAPS  H11X 9452   1.119   2.177   7.932  1.0932 -1.5708  0.5526
   95SAPS  H11Y 9453   1.082   2.348   7.943  1.2632  1.5177 -0.3732
   95SAPS  C312 9454   1.246   2.287   8.062  0.0576 -0.1843 -1.5007
   95SAPS  H12X 9455   1.274   2.389   8.096 -0.0052 -0.8214  0.4712
   95SAPS  H12Y 9456   1.336   2.222   8.051  0.3635  0.0331 -0.2918
   95SAPS  C313 9457   1.165   2.235   8.191  0.5110 -0.4022  0.4461
   95SAPS  H13X 9458   1.155   2.125   8.188 -0.2142 -0.3297  0.0504
   95SAPS  H13Y 9459   1.062   2.267   8.165  0.3695 -0.4123  1.0012
   95SAPS  C314 9460   1.218   2.274   8.326  0.0935  0.6948 -0.4455
   95SAPS  H14X 9461   1.319   2.227   8.333  0.3549  1.4844  1.2296
   95SAPS  H14Y 9462   1.156   2.217   8.398 -0.1778  0.4032 -0.9015
   95SAPS  C315 9463   1.198   2.425   8.354  0.0745 -0.0948  0.2264
   95SAPS  H15X 9464   1.103   2.459   8.308  0.0995  0.6550  0.7203
   95SAPS  H15Y 9465   1.282   2.491   8.322 -0.9028 -0.6240 -3.6305
   95SAPS  C316 9466   1.181   2.448   8.504 -0.0801  0.7327 -0.7996
   95SAPS  H16X 9467   1.254   2.392   8.567 -1.1705  0.9901  0.7327
   95SAPS  H16Y 9468   1.080   2.410   8.533  0.2015  0.0420 -0.7155
   95SAPS  C317 9469   1.171   2.599   8.548  0.3890 -0.0842 -0.5788
   95SAPS  H17X 9470   1.094   2.640   8.478  0.5707 -0.4534 -0.9912
   95SAPS  H17Y 9471   1.271   2.644   8.534  1.9157 -3.0932  0.3565
   95SAPS  C318 9472   1.118   2.614   8.694  0.2511 -0.0927 -0.0722
   95SAPS  H18X 9473   1.013   2.578   8.702  0.1018  0.5975  1.0551
   95SAPS  H18Y 9474   1.117   2.712   8.745 -3.1231 -0.4463  0.7012
   95SAPS  H18Z 9475   1.179   2.552   8.763 -1.9303 -1.3325  0.7967
   96SAPS     N 9476   2.125   4.137   6.364 -0.1552  0.4379 -0.3969
   96SAPS   HN1 9477   2.098   4.144   6.464 -1.2899  0.8366 -0.7216
   96SAPS   HN2 9478   2.204   4.201   6.345  0.7565 -0.1855  1.1885
   96SAPS   HN3 9479   2.050   4.182   6.309 -0.8593 -1.1286 -0.7531
   96SAPS   C12 9480   2.147   3.993   6.324  0.6460 -0.2377  0.5288
   96SAPS  H12A 9481   2.068   3.941   6.376  0.8573 -0.6423  0.4411
   96SAPS   C13 9482   2.117   3.962   6.169 -0.8274 -0.2287 -0.2084
   96SAPS  O13A 9483   2.098   4.053   6.084  0.4705 -0.0603  0.0157
   96SAPS  O13B 9484   2.117   3.840   6.137 -0.3522  0.2053  0.5146
   96SAPS   C11 9485   2.290   3.945   6.362 -0.6152  0.4220 -0.2041
   96SAPS  H11A 9486   2.302   3.837   6.339 -2.5529  0.3445 -0.9472
   96SAPS  H11B 9487   2.291   3.944   6.474  1.9116 -2.9805 -0.1595
   96SAPS     P 9488   2.528   3.959   6.249  0.3004 -0.0383  0.0543
   96SAPS   O13 9489   2.486   3.903   6.117  0.4237 -0.1231 -0.2092
   96SAPS   O14 9490   2.648   4.040   6.247 -0.2114 -0.2503  0.1171
   96SAPS   O12 9491   2.399   4.027   6.318 -0.1464 -0.1432 -0.5149
   96SAPS   O11 9492   2.554   3.833   6.347 -0.0670 -0.1336 -0.2467
   96SAPS    C1 9493   2.595   3.858   6.482  0.2541 -0.4983  0.4023
   96SAPS    HA 9494   2.702   3.886   6.475  0.0067 -0.0257 -1.7841
   96SAPS    HB 9495   2.534   3.935   6.535  1.3121  2.4879 -2.5304
   96SAPS    C2 9496   2.580   3.726   6.563 -0.9189 -0.1600 -0.1707
   96SAPS    HS 9497   2.622   3.638   6.510 -1.3216 -0.8946  0.7213
   96SAPS   O21 9498   2.441   3.707   6.588 -0.2740 -0.2041  0.1806
   96SAPS   C21 9499   2.373   3.613   6.517 -0.0228 -0.0733 -0.3722
   96SAPS   O22 9500   2.425   3.533   6.440 -0.9770  0.6231 -0.2694
   96SAPS   C22 9501   2.219   3.626   6.541  0.4105 -0.1013  0.2518
   96SAPS   H2R 9502   2.162   3.639   6.446  0.3403  0.2758  0.3449
   96SAPS   H2S 9503   2.188   3.526   6.579  0.2854 -0.7318 -1.4274
   96SAPS    C3 9504   2.637   3.734   6.702  0.2373  1.0561 -0.4184
   96SAPS    HX 9505   2.622   3.637   6.753 -0.4827  1.2966 -0.1778
   96SAPS    HY 9506   2.578   3.802   6.767 -2.3519 -0.3672 -1.2256
   96SAPS   O31 9507   2.778   3.763   6.697  0.4678 -0.3493  0.4228
   96SAPS   C31 9508   2.832   3.777   6.827  0.6735 -0.2047 -0.1912
   96SAPS   O32 9509   2.774   3.756   6.933 -0.0558 -0.1700  0.4273
   96SAPS   C32 9510   2.976   3.829   6.816  0.1400 -0.1350  0.5535
   96SAPS   H2X 9511   2.970   3.930   6.770 -1.9022  1.1134  3.4750
   96SAPS   H2Y 9512   3.032   3.756   6.753 -0.1107 -1.8546  2.2791
   96SAPS   C23 9513   2.185   3.731   6.651 -0.5287  0.0234  0.0444
   96SAPS   H3R 9514   2.226   3.825   6.609  1.2227 -0.3148  0.9623
   96SAPS   H3S 9515   2.239   3.705   6.745  0.9014 -0.0793 -0.8010
   96SAPS   C24 9516   2.038   3.743   6.681  0.8185 -0.0808  0.4701
   96SAPS   H4R 9517   1.984   3.780   6.591  0.5144 -2.1894 -0.2398
   96SAPS   H4S 9518   2.022   3.816   6.764 -0.4946  0.1547  0.0289
   96SAPS   C25 9519   1.979   3.612   6.729 -0.1854  0.0323  0.0816
   96SAPS   H5R 9520   1.980   3.529   6.656  0.8942 -0.3671  0.5502
   96SAPS   C26 9521   1.938   3.586   6.853  0.1077  0.4474 -0.0561
   96SAPS   H6R 9522   1.904   3.485   6.877  0.3198  0.8141  1.9179
   96SAPS   C27 9523   1.939   3.684   6.974  0.1673 -0.1328  0.7815
   96SAPS   H7R 9524   1.860   3.644   7.042  0.2875 -2.1837 -0.2518
   96SAPS   H7S 9525   1.911   3.789   6.950  2.2069 -0.0166 -1.2551
   96SAPS   C28 9526   2.062   3.681   7.057 -0.1247  0.0266 -0.0180
   96SAPS   H8R 9527   2.156   3.662   7.002 -0.0014  0.7905 -0.0782
   96SAPS   C29 9528   2.075   3.694   7.184  0.4178  0.0207 -0.2164
   96SAPS   H9R 9529   2.167   3.665   7.237 -0.9575 -1.7331  1.2716
   96SAPS  C210 9530   1.964   3.734   7.276 -0.2350  0.6219 -0.5242
   96SAPS  H10R 9531   1.909   3.648   7.322  1.5598  0.6176  1.6832
   96SAPS  H10S 9532   1.885   3.800   7.236 -0.7837 -0.4788 -1.2903
   96SAPS  C211 9533   2.020   3.807   7.395 -0.2735 -0.4971 -0.3953
   96SAPS  H11R 9534   2.103   3.872   7.362  2.1341 -2.2681  1.9674
   96SAPS  C212 9535   2.003   3.798   7.529  0.2517  0.0058 -0.2024
   96SAPS  H12R 9536   2.044   3.879   7.591 -0.1102  0.9229 -1.1367
   96SAPS  C213 9537   1.905   3.704   7.594  0.0243  0.2584 -0.5511
   96SAPS  H13R 9538   1.863   3.642   7.512 -0.4545  1.6693 -1.3852
   96SAPS  H13S 9539   1.817   3.760   7.632 -0.3760 -1.2917  0.8739
   96SAPS  C214 9540   1.955   3.616   7.705  0.0706 -0.3800  0.0838
   96SAPS  H14R 9541   1.979   3.509   7.694 -2.2723 -1.1075  1.5887
   96SAPS  C215 9542   1.958   3.656   7.834  0.5164  0.0887  0.1517
   96SAPS  H15R 9543   1.997   3.583   7.907 -0.4630 -1.6394 -1.0231
   96SAPS  C216 9544   1.915   3.794   7.889 -0.1915  0.4239 -0.1458
   96SAPS  H16R 9545   1.809   3.808   7.921 -0.9013  1.6551 -2.8596
   96SAPS  H16S 9546   1.935   3.874   7.815 -0.6174 -0.5293 -1.3038
   96SAPS  C217 9547   2.000   3.854   8.003 -0.8159  0.4943  0.0860
   96SAPS  H17R 9548   2.087   3.891   7.944 -2.3587  0.2872 -2.4097
   96SAPS  H17S 9549   2.016   3.778   8.083 -1.1168  0.1941 -0.1389
   96SAPS  C218 9550   1.952   3.977   8.080  0.5110  0.4768  0.1385
   96SAPS  H18R 9551   1.848   3.971   8.119  0.4392  0.6102 -0.0328
   96SAPS  H18S 9552   1.942   4.052   7.998  0.9672  0.6117  0.2078
   96SAPS  C219 9553   2.043   4.032   8.191  0.3378 -0.1063 -0.5522
   96SAPS  H19R 9554   2.148   4.036   8.156  0.5370 -0.5166  0.0150
   96SAPS  H19S 9555   2.035   3.957   8.271  0.1665  0.2909 -0.1919
   96SAPS  C220 9556   1.988   4.170   8.242  0.6320  0.2401 -0.2786
   96SAPS  H20R 9557   2.057   4.192   8.327  0.2258 -0.9336  0.3709
   96SAPS  H20S 9558   1.884   4.165   8.282  0.4183  0.4833 -0.8071
   96SAPS  H20T 9559   1.990   4.251   8.166  1.2174 -1.1756 -1.8029
   96SAPS   C33 9560   3.053   3.862   6.948  0.2133  0.2156 -0.1938
   96SAPS   H3X 9561   2.987   3.922   7.016  0.0060  0.0837 -0.2771
   96SAPS   H3Y 9562   3.137   3.931   6.925  0.7664  0.5426  2.5621
   96SAPS   C34 9563   3.115   3.743   7.017 -0.0365 -0.1517 -0.5003
   96SAPS   H4X 9564   3.190   3.703   6.945 -0.8357 -1.3166 -0.6962
   96SAPS   H4Y 9565   3.040   3.663   7.031  1.0699 -1.6869 -3.0123
   96SAPS   C35 9566   3.169   3.786   7.156  0.0103  0.3036 -0.1232
   96SAPS   H5X 9567   3.252   3.860   7.152  4.2092 -4.1096  0.3672
   96SAPS   H5Y 9568   3.221   3.697   7.199  1.5994  2.7442  3.2314
   96SAPS   C36 9569   3.066   3.834   7.265 -0.4262 -0.7549  0.5506
   96SAPS   H6X 9570   3.002   3.750   7.298 -0.4206 -0.1110  2.2156
   96SAPS   H6Y 9571   3.011   3.917   7.215  3.2877  1.4812 -0.0355
   96SAPS   C37 9572   3.125   3.878   7.397  0.9424 -0.8188 -0.0938
   96SAPS   H7X 9573   3.162   3.983   7.387 -0.0098 -0.3783  0.9166
   96SAPS   H7Y 9574   3.213   3.813   7.415  1.3530 -1.1793 -3.0585
   96SAPS   C38 9575   3.016   3.890   7.502 -0.5664 -0.2918  0.2098
   96SAPS   H8X 9576   2.938   3.961   7.466 -0.0863  0.9065  1.4927
   96SAPS   H8Y 9577   3.054   3.941   7.593  3.0413 -0.5301 -1.1090
   96SAPS   C39 9578   2.943   3.760   7.540  0.3639 -0.1878 -0.0989
   96SAPS   H9X 9579   3.012   3.678   7.565  0.5553  0.7240  2.4351
   96SAPS   H9Y 9580   2.878   3.720   7.459  0.6670 -1.0966  0.1110
   96SAPS  C310 9581   2.854   3.781   7.666  0.3423 -0.2339 -0.6784
   96SAPS  H10X 9582   2.774   3.706   7.682  0.5439  0.4174  4.2429
   96SAPS  H10Y 9583   2.813   3.884   7.662 -3.2579 -1.5988 -1.2490
   96SAPS  C311 9584   2.939   3.762   7.792 -0.0935 -0.0186 -0.2181
   96SAPS  H11X 9585   3.027   3.830   7.787  0.4898 -0.5184  2.1271
   96SAPS  H11Y 9586   2.977   3.658   7.802  0.7764  0.4933  2.3435
   96SAPS  C312 9587   2.852   3.792   7.918  0.1645 -0.7436 -0.2647
   96SAPS  H12X 9588   2.780   3.707   7.914  0.2273 -0.9338  2.1531
   96SAPS  H12Y 9589   2.814   3.896   7.908  0.4296 -0.4025  2.0044
   96SAPS  C313 9590   2.942   3.776   8.038 -0.6167 -0.2473  0.6020
   96SAPS  H13X 9591   3.024   3.851   8.045 -3.4004  3.0568 -0.6975
   96SAPS  H13Y 9592   2.991   3.678   8.020  0.3611  0.7115 -2.2563
   96SAPS  C314 9593   2.867   3.796   8.166 -0.1154 -0.7384  0.0201
   96SAPS  H14X 9594   2.927   3.754   8.249 -1.0107 -1.4204  0.3226
   96SAPS  H14Y 9595   2.764   3.757   8.154 -0.0841 -0.0379 -2.9187
   96SAPS  C315 9596   2.836   3.950   8.186  0.1701 -0.1503 -1.3538
   96SAPS  H15X 9597   2.794   3.992   8.092 -0.9290  0.4020 -0.6237
   96SAPS  H15Y 9598   2.936   3.990   8.212 -0.2428  0.1167 -0.1706
   96SAPS  C316 9599   2.743   3.986   8.305  0.8046 -0.3594  0.0027
   96SAPS  H16X 9600   2.646   3.938   8.283  0.5595 -0.1061  0.5101
   96SAPS  H16Y 9601   2.755   4.096   8.309  2.2314 -0.5459  1.5267
   96SAPS  C317 9602   2.804   3.934   8.436  0.6045  0.0608  0.4254
   96SAPS  H17X 9603   2.897   3.990   8.459  0.6490  0.3489 -0.4683
   96SAPS  H17Y 9604   2.824   3.826   8.421 -3.6579 -0.5931 -1.1809
   96SAPS  C318 9605   2.708   3.949   8.556  0.2383 -0.9395 -0.6502
   96SAPS  H18X 9606   2.674   4.055   8.558  1.1055 -0.6311  3.0762
   96SAPS  H18Y 9607   2.756   3.926   8.654  0.0442 -1.0630 -0.5845
   96SAPS  H18Z 9608   2.610   3.897   8.559  0.1299 -0.6955  1.8868
   97SAPS     N 9609   3.673   2.016   6.165 -0.0158  0.0813 -0.7845
   97SAPS   HN1 9610   3.638   1.922   6.194 -1.2760  0.9847  0.7001
   97SAPS   HN2 9611   3.586   2.060   6.128  0.1160  0.2559 -0.8842
   97SAPS   HN3 9612   3.755   2.007   6.102  0.3165 -2.9198  0.0016
   97SAPS   C12 9613   3.705   2.100   6.279 -0.3462  0.0784 -0.4155
   97SAPS  H12A 9614   3.793   2.158   6.254 -0.0532 -1.5154 -3.2580
   97SAPS   C13 9615   3.604   2.208   6.310  0.4762  0.8193 -0.6430
   97SAPS  O13A 9616   3.490   2.195   6.255 -0.3130 -0.4690  0.5725
   97SAPS  O13B 9617   3.627   2.299   6.394 -0.6370 -0.3554  0.1047
   97SAPS   C11 9618   3.731   2.015   6.402  0.2454  0.0236 -0.2231
   97SAPS  H11A 9619   3.637   1.963   6.431 -0.8804  2.0123 -0.2776
   97SAPS  H11B 9620   3.769   2.072   6.490  2.4078 -0.7713 -0.5937
   97SAPS     P 9621   3.977   1.901   6.373  0.2849  0.0126  0.1600
   97SAPS   O13 9622   4.002   1.764   6.337  0.1769  0.2864  0.3852
   97SAPS   O14 9623   4.026   2.013   6.292  0.2297 -0.0459  0.1046
   97SAPS   O12 9624   3.827   1.911   6.370 -0.3052  0.4245 -0.1821
   97SAPS   O11 9625   4.021   1.923   6.519 -0.3681 -0.0182  0.2166
   97SAPS    C1 9626   3.931   1.930   6.634  0.1263  0.0250  0.0022
   97SAPS    HA 9627   3.823   1.918   6.611 -0.3122 -1.4000  2.5895
   97SAPS    HB 9628   3.956   1.845   6.703 -0.4074 -0.4957 -0.4409
   97SAPS    C2 9629   3.939   2.066   6.714 -0.2735 -0.0665 -0.6742
   97SAPS    HS 9630   3.946   2.142   6.634  2.0832  2.2480  1.6492
   97SAPS   O21 9631   4.061   2.063   6.788  0.6416 -0.0618 -0.3717
   97SAPS   C21 9632   4.110   2.181   6.828 -0.8077  0.4189 -0.0162
   97SAPS   O22 9633   4.061   2.288   6.807 -0.1913  0.6758  0.4022
   97SAPS   C22 9634   4.233   2.168   6.912  0.2652  0.7842  0.2447
   97SAPS   H2R 9635   4.308   2.103   6.862  1.4213  2.1238  0.1838
   97SAPS   H2S 9636   4.290   2.264   6.913  0.7914  0.4717  0.9632
   97SAPS    C3 9637   3.821   2.078   6.812 -1.4251 -0.6262  0.0982
   97SAPS    HX 9638   3.734   2.065   6.745 -1.7251  0.8707  0.1604
   97SAPS    HY 9639   3.811   2.183   6.849  2.8788 -0.0877  0.0031
   97SAPS   O31 9640   3.822   1.973   6.906 -0.3744 -0.4561  0.1651
   97SAPS   C31 9641   3.846   2.010   7.032  0.5009 -0.4336  0.4323
   97SAPS   O32 9642   3.853   2.122   7.076 -0.1518  0.3709 -0.2635
   97SAPS   C32 9643   3.867   1.882   7.111 -0.0415  0.5377 -0.0931
   97SAPS   H2X 9644   3.942   1.812   7.070 -0.6476  1.4702 -2.9635
   97SAPS   H2Y 9645   3.769   1.830   7.109  0.6218 -0.8117  1.9227
   97SAPS   C23 9646   4.197   2.123   7.053  1.2397  0.4365 -0.5384
   97SAPS   H3R 9647   4.285   2.093   7.114 -1.0420 -1.4480  1.9302
   97SAPS   H3S 9648   4.129   2.036   7.052  0.7999  0.7504  0.4866
   97SAPS   C24 9649   4.139   2.243   7.135 -0.4017  0.9538  0.1455
   97SAPS   H4R 9650   4.086   2.204   7.225  0.5332  1.5426  0.9529
   97SAPS   H4S 9651   4.071   2.305   7.072  0.0251  1.2652 -0.0084
   97SAPS   C25 9652   4.249   2.336   7.192 -1.0784  0.2516 -0.8461
   97SAPS   H5R 9653   4.267   2.415   7.118 -2.1762  0.8648 -0.4650
   97SAPS   C26 9654   4.289   2.354   7.325  0.2581 -0.1935  0.3935
   97SAPS   H6R 9655   4.364   2.430   7.349  0.7808 -0.3440 -0.7140
   97SAPS   C27 9656   4.230   2.282   7.439 -0.3583 -0.4522 -0.1626
   97SAPS   H7R 9657   4.119   2.289   7.436 -0.2846 -0.0208 -2.2203
   97SAPS   H7S 9658   4.250   2.334   7.536 -1.3679  0.6924 -0.5591
   97SAPS   C28 9659   4.260   2.129   7.458  0.1667 -0.4562 -0.2672
   97SAPS   H8R 9660   4.322   2.077   7.384 -0.8189  0.3763 -1.7219
   97SAPS   C29 9661   4.231   2.055   7.566 -0.1274  0.1833 -0.0901
   97SAPS   H9R 9662   4.269   1.952   7.559 -3.1068 -0.9260 -0.5773
   97SAPS  C210 9663   4.163   2.113   7.688  0.0623  0.0541  0.3105
   97SAPS  H10R 9664   4.150   2.221   7.667 -0.7559 -0.1245 -0.1302
   97SAPS  H10S 9665   4.230   2.098   7.776 -0.6592  0.2278  0.8989
   97SAPS  C211 9666   4.028   2.063   7.711  0.5655 -0.3656  0.0508
   97SAPS  H11R 9667   3.953   2.085   7.632  0.3996  1.9475  0.8148
   97SAPS  C212 9668   3.975   1.982   7.806 -0.1044  0.3732 -0.6651
   97SAPS  H12R 9669   3.867   1.966   7.809 -0.1922  1.1798  2.8983
   97SAPS  C213 9670   4.056   1.921   7.915 -0.6431  0.4347  0.5189
   97SAPS  H13R 9671   4.140   1.984   7.950 -0.3480 -0.5325  1.5765
   97SAPS  H13S 9672   4.078   1.818   7.880 -1.2952  0.1332  0.9823
   97SAPS  C214 9673   3.962   1.901   8.032 -0.2533 -0.0840 -0.2428
   97SAPS  H14R 9674   3.855   1.922   8.019 -0.5631 -0.1025  2.0561
   97SAPS  C215 9675   4.004   1.859   8.157  0.7917 -0.4145 -0.5321
   97SAPS  H15R 9676   3.936   1.849   8.243  1.7087  0.7155  0.3405
   97SAPS  C216 9677   4.143   1.834   8.192  0.2522  0.3643 -0.3275
   97SAPS  H16R 9678   4.208   1.892   8.124 -1.2861  1.5129 -0.8483
   97SAPS  H16S 9679   4.163   1.725   8.177 -1.0868  0.1824 -0.9248
   97SAPS  C217 9680   4.182   1.892   8.331  0.7529 -0.2844  0.2238
   97SAPS  H17R 9681   4.283   1.847   8.346  1.1867  0.2208 -1.1147
   97SAPS  H17S 9682   4.107   1.854   8.403 -0.4467  2.6945  0.6426
   97SAPS  C218 9683   4.174   2.042   8.355  0.6563 -0.1416  0.3477
   97SAPS  H18R 9684   4.079   2.079   8.312  1.3934 -0.7322 -1.8298
   97SAPS  H18S 9685   4.256   2.096   8.303  0.9774 -0.2987  0.6839
   97SAPS  C219 9686   4.206   2.085   8.496 -0.7722 -0.2584  0.7663
   97SAPS  H19R 9687   4.314   2.067   8.509  0.1356  1.5080 -3.4704
   97SAPS  H19S 9688   4.156   2.012   8.564  0.3925 -0.8085  1.0316
   97SAPS  C220 9689   4.170   2.230   8.531 -0.4873  0.4846 -0.3157
   97SAPS  H20R 9690   4.059   2.239   8.524 -0.7914 -1.9882  0.8547
   97SAPS  H20S 9691   4.206   2.311   8.464  1.5227 -0.5693 -0.5363
   97SAPS  H20T 9692   4.190   2.258   8.637  2.1544 -2.5631  0.0370
   97SAPS   C33 9693   3.901   1.921   7.260 -0.1118  0.3826  0.2042
   97SAPS   H3X 9694   3.824   1.989   7.303 -0.4626  1.1706 -1.6356
   97SAPS   H3Y 9695   4.004   1.962   7.251  0.2026 -0.6111 -0.7200
   97SAPS   C34 9696   3.916   1.795   7.352  0.6332  0.2515  0.2497
   97SAPS   H4X 9697   3.961   1.836   7.444  0.3446  0.0160  0.4986
   97SAPS   H4Y 9698   3.982   1.718   7.306  0.9070  1.1402 -0.8614
   97SAPS   C35 9699   3.771   1.753   7.396  0.4146 -0.6023  0.8625
   97SAPS   H5X 9700   3.709   1.728   7.307 -1.3751  1.1764  1.5836
   97SAPS   H5Y 9701   3.716   1.835   7.446 -0.0823 -0.6704  0.4293
   97SAPS   C36 9702   3.753   1.636   7.496 -0.1132 -0.6466 -0.3043
   97SAPS   H6X 9703   3.821   1.556   7.463 -0.6237 -1.3352  0.3023
   97SAPS   H6Y 9704   3.648   1.603   7.476  0.4373 -2.8532  0.3688
   97SAPS   C37 9705   3.783   1.668   7.645  0.0199  0.6486 -0.1481
   97SAPS   H7X 9706   3.730   1.757   7.686  1.0346  0.1759  2.2540
   97SAPS   H7Y 9707   3.890   1.691   7.666  0.6321 -2.0499 -0.1286
   97SAPS   C38 9708   3.736   1.563   7.745 -0.1971  0.4071 -0.0753
   97SAPS   H8X 9709   3.803   1.474   7.740  1.0500  1.3506 -0.1404
   97SAPS   H8Y 9710   3.630   1.537   7.721 -0.2542 -0.3938  1.0301
   97SAPS   C39 9711   3.747   1.614   7.889  0.0446 -0.1986 -0.7115
   97SAPS   H9X 9712   3.698   1.714   7.893 -0.2923 -0.4333  2.1954
   97SAPS   H9Y 9713   3.855   1.609   7.915 -0.1430  0.9344  0.3412
   97SAPS  C310 9714   3.685   1.524   7.997  0.3350  0.0260 -0.4042
   97SAPS  H10X 9715   3.712   1.420   7.969  0.3322  0.1918 -1.0172
   97SAPS  H10Y 9716   3.576   1.541   7.982  0.4523  1.4913  0.2640
   97SAPS  C311 9717   3.715   1.561   8.147  0.7995 -0.0611  0.7941
   97SAPS  H11X 9718   3.693   1.667   8.172  0.4041 -0.2819  1.4001
   97SAPS  H11Y 9719   3.826   1.566   8.153  1.0375  0.5135 -2.8922
   97SAPS  C312 9720   3.672   1.454   8.254  0.7489 -0.0281  1.3663
   97SAPS  H12X 9721   3.727   1.360   8.232 -0.1223  0.0374 -1.3450
   97SAPS  H12Y 9722   3.563   1.432   8.245  0.2743  2.2937  0.8143
   97SAPS  C313 9723   3.704   1.497   8.394  0.0459 -0.0819 -0.2828
   97SAPS  H13X 9724   3.667   1.601   8.407  0.4566 -0.2364  2.5915
   97SAPS  H13Y 9725   3.812   1.483   8.416 -0.4011 -0.8837  1.5169
   97SAPS  C314 9726   3.626   1.411   8.501  0.6203  0.5132 -0.3782
   97SAPS  H14X 9727   3.651   1.303   8.493  0.0036  0.3237  0.2742
   97SAPS  H14Y 9728   3.518   1.415   8.478  0.5479  0.5001 -0.0408
   97SAPS  C315 9729   3.648   1.462   8.644 -0.4804 -0.2332  0.1646
   97SAPS  H15X 9730   3.594   1.559   8.651  1.4655  1.0227 -1.7056
   97SAPS  H15Y 9731   3.754   1.476   8.671 -0.1657  0.0935 -1.2034
   97SAPS  C316 9732   3.581   1.353   8.745 -0.0185 -0.0539 -0.4956
   97SAPS  H16X 9733   3.472   1.343   8.725  0.0602 -0.6949 -0.5872
   97SAPS  H16Y 9734   3.579   1.395   8.848 -0.2806 -2.6351  0.5877
   97SAPS  C317 9735   3.650   1.216   8.752 -0.0090  0.2405 -0.3679
   97SAPS  H17X 9736   3.757   1.240   8.772  0.1795  0.6988 -1.9069
   97SAPS  H17Y 9737   3.656   1.147   8.666 -0.4283  0.0909 -0.2789
   97SAPS  C318 9738   3.596   1.136   8.874  0.2630  0.6312  0.3843
   97SAPS  H18X 9739   3.653   1.041   8.885 -1.6062 -0.5818 -0.2358
   97SAPS  H18Y 9740   3.489   1.113   8.857  0.4332 -0.3274  0.6059
   97SAPS  H18Z 9741   3.600   1.200   8.964 -1.1048  0.2211  0.7377
   98SAPS     N 9742   1.600   2.312   5.878 -0.3539  0.7581 -0.0662
   98SAPS   HN1 9743   1.565   2.294   5.782  0.8497 -0.9038 -0.2071
   98SAPS   HN2 9744   1.552   2.246   5.942  0.0299 -1.8287 -2.3488
   98SAPS   HN3 9745   1.562   2.404   5.909 -4.4765 -0.7960 -0.1837
   98SAPS   C12 9746   1.746   2.311   5.876  0.5020 -0.3559 -0.1128
   98SAPS  H12A 9747   1.773   2.211   5.848  0.2595 -0.0107 -1.6407
   98SAPS   C13 9748   1.816   2.408   5.782 -0.6651 -0.2649 -0.4864
   98SAPS  O13A 9749   1.752   2.460   5.683 -0.1090  0.0418 -0.7852
   98SAPS  O13B 9750   1.936   2.427   5.805  0.3477 -0.7312  0.1584
   98SAPS   C11 9751   1.792   2.343   6.022 -0.3456  0.7284  0.2751
   98SAPS  H11A 9752   1.751   2.440   6.058 -0.7124  0.0663  1.6970
   98SAPS  H11B 9753   1.902   2.353   6.036 -0.1958  1.1759 -1.1370
   98SAPS     P 9754   1.783   2.104   6.144 -0.0153  0.2693 -0.3202
   98SAPS   O13 9755   1.679   2.015   6.084  0.4539  0.4742 -0.5045
   98SAPS   O14 9756   1.922   2.088   6.104  0.8115  0.2932  0.0465
   98SAPS   O12 9757   1.729   2.252   6.117 -0.7859  0.3823 -0.0558
   98SAPS   O11 9758   1.763   2.093   6.297  0.5638 -0.1765  0.3815
   98SAPS    C1 9759   1.803   2.201   6.387 -0.3607  0.2284  0.0485
   98SAPS    HA 9760   1.902   2.241   6.358  0.2006 -0.9648  0.2931
   98SAPS    HB 9761   1.729   2.283   6.379  0.1738  0.6626 -0.4485
   98SAPS    C2 9762   1.790   2.156   6.535 -0.1713  0.6694 -0.2581
   98SAPS    HS 9763   1.872   2.084   6.556 -1.0516 -1.0184 -2.3424
   98SAPS   O21 9764   1.662   2.104   6.553  0.0722 -0.4226 -0.1440
   98SAPS   C21 9765   1.644   1.997   6.627  0.5312  0.2274  0.0024
   98SAPS   O22 9766   1.735   1.928   6.675 -0.3352  0.3413 -0.1665
   98SAPS   C22 9767   1.498   1.988   6.682  0.2119  0.0510 -0.2951
   98SAPS   H2R 9768   1.486   2.069   6.756  1.6552 -0.3055  0.3361
   98SAPS   H2S 9769   1.417   1.999   6.606 -1.1494 -0.0979  1.1039
   98SAPS    C3 9770   1.810   2.279   6.623 -0.1516 -0.2954 -0.5642
   98SAPS    HX 9771   1.742   2.359   6.586 -1.3251 -0.7630  0.5386
   98SAPS    HY 9772   1.915   2.314   6.611  0.4242 -1.5292  0.7477
   98SAPS   O31 9773   1.777   2.252   6.761 -0.2680  0.7396 -0.0279
   98SAPS   C31 9774   1.878   2.221   6.838  0.6543  0.2856  0.1670
   98SAPS   O32 9775   1.997   2.228   6.813 -0.0871 -0.4119  0.3190
   98SAPS   C32 9776   1.827   2.172   6.977  0.0260 -0.2265 -0.0457
   98SAPS   H2X 9777   1.909   2.110   7.020  3.3085  4.7067  1.2429
   98SAPS   H2Y 9778   1.730   2.118   6.972  0.3482 -0.8386  0.2527
   98SAPS   C23 9779   1.465   1.850   6.749 -0.1589  0.5592 -0.6665
   98SAPS   H3R 9780   1.535   1.840   6.834  2.5488  2.0139 -2.6456
   98SAPS   H3S 9781   1.482   1.764   6.681 -0.0962 -2.1034  2.5975
   98SAPS   C24 9782   1.325   1.836   6.810  0.2931  0.2477  0.4859
   98SAPS   H4R 9783   1.302   1.735   6.851 -0.4760 -0.4828 -1.6801
   98SAPS   H4S 9784   1.257   1.843   6.723  0.5043  1.4592  0.4158
   98SAPS   C25 9785   1.294   1.955   6.902 -0.1056 -0.7353  0.5117
   98SAPS   H5R 9786   1.234   2.037   6.861 -0.2566  1.1245  4.2161
   98SAPS   C26 9787   1.321   1.957   7.028  0.2948  0.2787 -0.2825
   98SAPS   H6R 9788   1.295   2.049   7.083  1.0250  0.7387 -0.6996
   98SAPS   C27 9789   1.391   1.853   7.105 -0.5294 -0.4408 -0.6810
   98SAPS   H7R 9790   1.437   1.777   7.038 -0.7209 -2.1609  1.0778
   98SAPS   H7S 9791   1.324   1.796   7.173 -0.7085  1.0172  0.3774
   98SAPS   C28 9792   1.507   1.916   7.177 -0.1141 -0.3605 -0.6165
   98SAPS   H8R 9793   1.595   1.917   7.111 -0.2464 -0.2172 -0.7935
   98SAPS   C29 9794   1.510   1.963   7.302  0.0509  0.1137  0.3747
   98SAPS   H9R 9795   1.609   1.988   7.341 -0.8750  0.2318  2.7598
   98SAPS  C210 9796   1.390   1.956   7.399 -0.1257  0.4732  0.1071
   98SAPS  H10R 9797   1.305   1.944   7.329 -1.1128  0.0630  1.3701
   98SAPS  H10S 9798   1.374   2.044   7.464  1.3739  0.7330  0.1534
   98SAPS  C211 9799   1.393   1.825   7.484 -0.1269 -0.0755  0.1432
   98SAPS  H11R 9800   1.397   1.732   7.426 -1.4804 -0.5367  0.7556
   98SAPS  C212 9801   1.384   1.814   7.613  0.0136  0.5861 -0.3237
   98SAPS  H12R 9802   1.376   1.712   7.654  0.9940  0.1204 -1.2724
   98SAPS  C213 9803   1.380   1.934   7.707  0.2322 -0.1882 -0.5551
   98SAPS  H13R 9804   1.305   2.005   7.667  0.1078 -0.2920 -0.5076
   98SAPS  H13S 9805   1.474   1.992   7.713 -0.2775  0.4428  1.5564
   98SAPS  C214 9806   1.330   1.888   7.840 -0.3540 -0.4342  0.1291
   98SAPS  H14R 9807   1.220   1.890   7.851 -0.5435  0.0510 -1.7082
   98SAPS  C215 9808   1.404   1.849   7.945  0.5607 -0.2919  0.4015
   98SAPS  H15R 9809   1.346   1.808   8.029  1.0419 -0.8963  0.4341
   98SAPS  C216 9810   1.556   1.834   7.936 -0.3924  0.0265 -0.0906
   98SAPS  H16R 9811   1.592   1.870   7.837  0.2992 -2.6798 -0.8788
   98SAPS  H16S 9812   1.587   1.728   7.949 -1.5686 -0.7262 -2.9682
   98SAPS  C217 9813   1.624   1.915   8.051  0.4637 -0.0511  0.1875
   98SAPS  H17R 9814   1.596   1.883   8.154  0.0817  0.9205  0.3959
   98SAPS  H17S 9815   1.600   2.023   8.036 -0.3640 -0.3896 -1.0277
   98SAPS  C218 9816   1.778   1.904   8.048 -0.0092  0.0810 -0.1533
   98SAPS  H18R 9817   1.807   1.902   7.941  0.1832  3.2852 -0.2197
   98SAPS  H18S 9818   1.817   1.816   8.104  1.8755  0.8756 -0.1986
   98SAPS  C219 9819   1.847   2.030   8.113 -0.1246 -0.4221  0.0076
   98SAPS  H19R 9820   1.845   2.119   8.046  0.6003 -2.4324 -2.7602
   98SAPS  H19S 9821   1.953   2.007   8.136  0.1421  0.8226  0.0554
   98SAPS  C220 9822   1.786   2.081   8.247 -0.0557  0.5854  0.0478
   98SAPS  H20R 9823   1.843   2.168   8.286  0.9830  0.1326 -0.4471
   98SAPS  H20S 9824   1.769   2.001   8.321 -0.4722  0.9876  0.3859
   98SAPS  H20T 9825   1.685   2.124   8.229 -0.2561 -0.3354 -1.0980
   98SAPS   C33 9826   1.799   2.302   7.058  0.2820  0.1091 -0.2740
   98SAPS   H3X 9827   1.720   2.368   7.015  1.1552  1.0837 -0.3911
   98SAPS   H3Y 9828   1.896   2.355   7.067  1.0851 -1.3828  0.0260
   98SAPS   C34 9829   1.729   2.263   7.192 -0.3783 -0.4398  0.0128
   98SAPS   H4X 9830   1.793   2.183   7.235 -0.0525  0.3847  1.0726
   98SAPS   H4Y 9831   1.628   2.220   7.179 -0.3422 -0.5672  0.1520
   98SAPS   C35 9832   1.736   2.381   7.295  0.5577 -0.5446  0.1700
   98SAPS   H5X 9833   1.682   2.470   7.257  1.5246 -0.4169 -0.9048
   98SAPS   H5Y 9834   1.845   2.403   7.290  1.0196 -2.6732  0.1603
   98SAPS   C36 9835   1.703   2.340   7.436  0.2816  0.5692  0.0811
   98SAPS   H6X 9836   1.772   2.262   7.477 -0.5360 -0.6231 -0.7654
   98SAPS   H6Y 9837   1.600   2.299   7.433  0.0852  0.9511  1.2259
   98SAPS   C37 9838   1.694   2.461   7.529 -0.2243  0.2547 -0.1895
   98SAPS   H7X 9839   1.591   2.502   7.526 -2.1085 -4.2500 -0.4878
   98SAPS   H7Y 9840   1.775   2.526   7.489  0.2246  1.1172  2.0420
   98SAPS   C38 9841   1.729   2.431   7.671 -0.8632 -0.0579  0.5440
   98SAPS   H8X 9842   1.715   2.526   7.727  0.7506 -0.7060  2.0801
   98SAPS   H8Y 9843   1.830   2.388   7.685 -0.5379  0.6754  0.4739
   98SAPS   C39 9844   1.636   2.320   7.720  0.3209 -0.0396 -0.1667
   98SAPS   H9X 9845   1.655   2.227   7.662  2.1957  0.3323 -0.1652
   98SAPS   H9Y 9846   1.537   2.361   7.689  2.0440  2.4652 -2.5647
   98SAPS  C310 9847   1.649   2.288   7.868  0.3073 -0.3209 -0.4130
   98SAPS  H10X 9848   1.749   2.244   7.890  0.1350 -1.0981 -1.1464
   98SAPS  H10Y 9849   1.567   2.214   7.881 -1.9909  2.1468 -0.5483
   98SAPS  C311 9850   1.632   2.415   7.960 -0.5209 -0.4211 -0.1256
   98SAPS  H11X 9851   1.531   2.462   7.951 -0.3488 -0.1797 -0.7862
   98SAPS  H11Y 9852   1.702   2.496   7.930 -1.5347  0.2191 -0.8400
   98SAPS  C312 9853   1.660   2.389   8.102 -0.2229  0.8468 -0.1721
   98SAPS  H12X 9854   1.770   2.374   8.103 -0.1990  1.0489  0.9194
   98SAPS  H12Y 9855   1.605   2.300   8.138  1.4608  0.1632  0.7396
   98SAPS  C313 9856   1.621   2.508   8.195 -0.7280 -0.8900  0.3032
   98SAPS  H13X 9857   1.514   2.525   8.173 -0.8671 -0.9742  0.9281
   98SAPS  H13Y 9858   1.672   2.602   8.163 -0.2138 -1.2998 -0.0954
   98SAPS  C314 9859   1.665   2.491   8.335 -0.0130  0.3641  0.6592
   98SAPS  H14X 9860   1.630   2.575   8.398 -2.6000 -0.4512  0.3664
   98SAPS  H14Y 9861   1.776   2.480   8.336  0.0241  0.6168 -0.2425
   98SAPS  C315 9862   1.586   2.371   8.399 -0.3785 -0.5412  0.6617
   98SAPS  H15X 9863   1.602   2.274   8.347 -0.0078  0.7025 -1.5673
   98SAPS  H15Y 9864   1.475   2.382   8.398 -0.0815  2.9718  0.7738
   98SAPS  C316 9865   1.624   2.349   8.547 -0.5093  0.2821  0.1659
   98SAPS  H16X 9866   1.599   2.437   8.611 -0.2766  1.3665 -1.2021
   98SAPS  H16Y 9867   1.734   2.342   8.550 -0.6109 -0.8829  1.6172
   98SAPS  C317 9868   1.562   2.223   8.601 -0.2508  0.0199  0.6686
   98SAPS  H17X 9869   1.574   2.141   8.527 -0.2312  1.9081 -1.4420
   98SAPS  H17Y 9870   1.452   2.227   8.614 -0.5312  0.5126 -1.6594
   98SAPS  C318 9871   1.627   2.179   8.731  0.0819  0.6726 -0.2649
   98SAPS  H18X 9872   1.723   2.236   8.737  0.2192  0.4285 -0.1553
   98SAPS  H18Y 9873   1.645   2.070   8.721  1.7849  0.8658  0.3886
   98SAPS  H18Z 9874   1.563   2.192   8.821 -3.8263 -2.9096 -2.3800
   99SAPS     N 9875   1.148   6.527   6.378 -0.2063 -0.3033  0.2781
   99SAPS   HN1 9876   1.242   6.563   6.403 -0.6623  0.2422  1.2259
   99SAPS   HN2 9877   1.094   6.509   6.465 -0.1457 -0.6726  0.2412
   99SAPS   HN3 9878   1.163   6.435   6.331 -0.5269  0.1576 -0.7420
   99SAPS   C12 9879   1.088   6.622   6.275 -0.8576  0.2254 -0.4363
   99SAPS  H12A 9880   1.077   6.722   6.314  0.2805  0.4764 -0.7287
   99SAPS   C13 9881   1.180   6.632   6.155 -0.4019  0.3173  0.3036
   99SAPS  O13A 9882   1.310   6.620   6.174  0.3554  0.2218  0.1216
   99SAPS  O13B 9883   1.146   6.717   6.067  0.7421  0.1879 -0.8487
   99SAPS   C11 9884   0.945   6.581   6.232 -0.0734 -0.6073 -0.3178
   99SAPS  H11A 9885   0.943   6.485   6.175  1.2879 -0.0858 -1.2961
   99SAPS  H11B 9886   0.905   6.654   6.159  0.7593  0.0413 -0.1273
   99SAPS     P 9887   0.716   6.521   6.349  0.2593 -0.3279 -0.2668
   99SAPS   O13 9888   0.653   6.558   6.217 -0.1365 -0.4567 -0.1038
   99SAPS   O14 9889   0.704   6.378   6.380 -0.0918  0.6058  0.4317
   99SAPS   O12 9890   0.869   6.576   6.356  0.3993  0.1926  0.2342
   99SAPS   O11 9891   0.637   6.593   6.465 -0.5593 -0.1605  0.2985
   99SAPS    C1 9892   0.687   6.714   6.521 -0.2094 -0.3667 -0.0004
   99SAPS    HA 9893   0.758   6.768   6.455 -0.2993 -1.4356 -1.0014
   99SAPS    HB 9894   0.603   6.783   6.545 -0.2416 -1.0872  2.0118
   99SAPS    C2 9895   0.764   6.695   6.650 -0.3402 -0.2601 -0.1090
   99SAPS    HS 9896   0.850   6.635   6.612 -0.2058 -1.4317  1.9203
   99SAPS   O21 9897   0.671   6.623   6.734  0.1035 -0.6400  0.3487
   99SAPS   C21 9898   0.745   6.534   6.808  0.0681  0.3766 -0.0458
   99SAPS   O22 9899   0.865   6.523   6.799  0.5158  0.2286 -0.5357
   99SAPS   C22 9900   0.654   6.460   6.899 -0.3346  0.2816 -0.3512
   99SAPS   H2R 9901   0.648   6.499   7.003  2.1170  0.7678 -0.3613
   99SAPS   H2S 9902   0.555   6.457   6.849 -0.3099 -1.7468 -0.3149
   99SAPS    C3 9903   0.812   6.828   6.721  0.0481  0.2752  0.1449
   99SAPS    HX 9904   0.731   6.886   6.771 -1.3234  0.2853 -2.0145
   99SAPS    HY 9905   0.846   6.891   6.636  0.0340 -0.2972 -0.2903
   99SAPS   O31 9906   0.908   6.799   6.818  0.2571  0.3618  0.6521
   99SAPS   C31 9907   1.025   6.769   6.764 -1.0029 -0.4559 -0.1615
   99SAPS   O32 9908   1.055   6.774   6.647  0.8143 -0.1128 -0.4191
   99SAPS   C32 9909   1.121   6.723   6.882  0.1913  0.4444  0.9611
   99SAPS   H2X 9910   1.070   6.650   6.948  0.6624 -1.8422 -1.1175
   99SAPS   H2Y 9911   1.136   6.814   6.944  1.0956 -0.7101  2.4899
   99SAPS   C23 9912   0.705   6.317   6.902 -0.2426  0.1945  0.0329
   99SAPS   H3R 9913   0.712   6.279   6.798 -1.3167  0.9932 -0.3451
   99SAPS   H3S 9914   0.627   6.247   6.941  0.7374 -1.1959 -0.4778
   99SAPS   C24 9915   0.833   6.289   6.980 -0.1680 -0.2134 -0.1000
   99SAPS   H4R 9916   0.805   6.304   7.087  1.0985  0.0626  0.1985
   99SAPS   H4S 9917   0.910   6.365   6.956  0.8180 -0.9160  0.7870
   99SAPS   C25 9918   0.881   6.143   6.969  0.6082 -0.2577 -0.2085
   99SAPS   H5R 9919   0.910   6.108   6.869  0.3417 -0.2518 -0.2893
   99SAPS   C26 9920   0.874   6.059   7.070  0.5379  0.2495 -0.1686
   99SAPS   H6R 9921   0.915   5.958   7.052 -0.7107 -0.5142  1.0915
   99SAPS   C27 9922   0.827   6.076   7.203  1.1495 -0.0895  0.2578
   99SAPS   H7R 9923   0.850   6.179   7.237  0.2215 -0.8288  3.2822
   99SAPS   H7S 9924   0.884   6.001   7.263  1.0556 -2.0708 -2.0312
   99SAPS   C28 9925   0.677   6.069   7.220 -0.1797 -0.3365 -0.4147
   99SAPS   H8R 9926   0.620   6.077   7.127  0.3870 -2.0601 -0.9176
   99SAPS   C29 9927   0.611   6.035   7.339 -0.3872 -0.2756 -1.0485
   99SAPS   H9R 9928   0.501   6.042   7.340 -0.2640  2.4859  2.3656
   99SAPS  C210 9929   0.673   6.004   7.473 -0.6867 -0.3808  0.1696
   99SAPS  H10R 9930   0.617   6.072   7.541 -0.4443  0.9308 -0.9271
   99SAPS  H10S 9931   0.780   6.031   7.484 -0.2058 -2.2469  0.2850
   99SAPS  C211 9932   0.646   5.859   7.514  1.0158  0.3326  0.8705
   99SAPS  H11R 9933   0.619   5.791   7.432  1.3625 -0.1389  1.1452
   99SAPS  C212 9934   0.633   5.818   7.642  0.1394  0.7593 -0.2639
   99SAPS  H12R 9935   0.614   5.713   7.669  0.6071  0.2199 -1.9541
   99SAPS  C213 9936   0.646   5.907   7.763 -0.1578 -0.9946 -0.6256
   99SAPS  H13R 9937   0.559   5.975   7.775 -0.7419 -1.7340 -0.6306
   99SAPS  H13S 9938   0.733   5.973   7.739 -0.1741 -1.1362 -1.0770
   99SAPS  C214 9939   0.676   5.833   7.892 -0.2798 -0.2139  0.1901
   99SAPS  H14R 9940   0.762   5.765   7.881  1.2729  1.7277  0.0918
   99SAPS  C215 9941   0.622   5.841   8.015  0.5904  0.1717 -0.4329
   99SAPS  H15R 9942   0.677   5.787   8.094  0.4761 -0.8434 -1.0397
   99SAPS  C216 9943   0.509   5.939   8.050 -0.4824 -0.1781  0.1496
   99SAPS  H16R 9944   0.408   5.894   8.042 -0.5614 -0.0811  0.6152
   99SAPS  H16S 9945   0.510   6.033   7.992 -2.1331 -1.0484 -1.3424
   99SAPS  C217 9946   0.520   5.987   8.203  0.2289  0.6290  0.3168
   99SAPS  H17R 9947   0.520   5.899   8.270 -0.6389 -1.0712 -1.8438
   99SAPS  H17S 9948   0.427   6.043   8.226 -0.9267 -1.1573  0.0518
   99SAPS  C218 9949   0.639   6.077   8.215 -0.3688 -0.5793 -0.2642
   99SAPS  H18R 9950   0.618   6.169   8.157 -0.2475  0.8472  1.9069
   99SAPS  H18S 9951   0.734   6.030   8.181  1.5183  1.0672  2.4886
   99SAPS  C219 9952   0.657   6.124   8.358  0.5855  0.3792 -0.1840
   99SAPS  H19R 9953   0.685   6.038   8.424  1.9289  1.4856  0.7215
   99SAPS  H19S 9954   0.554   6.148   8.392  0.9616  2.4866 -0.4786
   99SAPS  C220 9955   0.745   6.251   8.382  0.1318 -0.1082  0.0913
   99SAPS  H20R 9956   0.744   6.266   8.492 -2.0118  1.1404 -0.0769
   99SAPS  H20S 9957   0.702   6.343   8.337  0.9638 -1.5827 -3.9504
   99SAPS  H20T 9958   0.851   6.226   8.358  0.3380  0.5654  0.2838
   99SAPS   C33 9959   1.250   6.669   6.824 -0.1752 -0.8939 -0.2235
   99SAPS   H3X 9960   1.286   6.753   6.762 -0.5280 -0.5034  0.0924
   99SAPS   H3Y 9961   1.229   6.581   6.760 -0.5317 -1.2159  0.3351
   99SAPS   C34 9962   1.356   6.635   6.931 -0.7837 -0.3848 -0.1926
   99SAPS   H4X 9963   1.398   6.729   6.971  0.9541 -0.3740 -1.9718
   99SAPS   H4Y 9964   1.436   6.583   6.875  0.9147 -0.8594  2.5889
   99SAPS   C35 9965   1.295   6.538   7.033 -0.7507 -0.5099  0.5822
   99SAPS   H5X 9966   1.247   6.443   7.000 -1.4455 -0.1385  0.5372
   99SAPS   H5Y 9967   1.210   6.593   7.078  0.6267  2.1123  0.0709
   99SAPS   C36 9968   1.396   6.502   7.148  0.4766 -0.7225 -0.0135
   99SAPS   H6X 9969   1.456   6.593   7.170 -1.3298  0.7026 -0.8771
   99SAPS   H6Y 9970   1.461   6.420   7.111 -0.4991 -2.6468  2.3979
   99SAPS   C37 9971   1.330   6.451   7.279 -0.2518  0.0182  0.0102
   99SAPS   H7X 9972   1.291   6.348   7.263  1.1251 -0.1765 -2.4088
   99SAPS   H7Y 9973   1.241   6.515   7.297 -0.4686 -0.4001  0.4141
   99SAPS   C38 9974   1.408   6.458   7.416 -0.0937 -0.2353 -0.0324
   99SAPS   H8X 9975   1.471   6.550   7.421  0.2591 -0.4654 -0.2447
   99SAPS   H8Y 9976   1.484   6.377   7.418 -0.9061 -0.9554  2.7341
   99SAPS   C39 9977   1.311   6.451   7.535  0.7902  0.4002  0.0090
   99SAPS   H9X 9978   1.228   6.379   7.522 -1.2921  2.8586 -0.8114
   99SAPS   H9Y 9979   1.272   6.555   7.543  1.0404  0.5593 -0.8539
   99SAPS  C310 9980   1.391   6.414   7.665 -0.8328 -1.0575  0.0896
   99SAPS  H10X 9981   1.331   6.453   7.749 -1.4937 -3.1834  0.6361
   99SAPS  H10Y 9982   1.492   6.462   7.666 -0.4052 -1.9329 -0.2076
   99SAPS  C311 9983   1.412   6.259   7.689 -0.3647 -0.4437 -0.9702
   99SAPS  H11X 9984   1.461   6.215   7.599  0.8985  4.1447 -2.7084
   99SAPS  H11Y 9985   1.311   6.218   7.705 -0.0984 -0.8745 -0.3824
   99SAPS  C312 9986   1.501   6.242   7.819  0.2563 -0.1147  0.8155
   99SAPS  H12X 9987   1.594   6.299   7.796  0.2644 -0.2950  0.3925
   99SAPS  H12Y 9988   1.517   6.132   7.817 -4.2376 -0.8330 -2.0230
   99SAPS  C313 9989   1.416   6.276   7.946  0.1872  0.0791 -0.2673
   99SAPS  H13X 9990   1.324   6.213   7.943 -0.4731  0.8148  2.5570
   99SAPS  H13Y 9991   1.376   6.379   7.932 -3.9971 -1.3028  0.7912
   99SAPS  C314 9992   1.486   6.265   8.084  0.6584  0.7652 -0.2200
   99SAPS  H14X 9993   1.577   6.328   8.073  0.1541  1.3134 -1.3857
   99SAPS  H14Y 9994   1.520   6.160   8.092  1.3945  1.0351  0.2417
   99SAPS  C315 9995   1.390   6.310   8.198 -1.5233  0.0938 -0.3038
   99SAPS  H15X 9996   1.296   6.252   8.192 -0.4370 -2.0620  2.4423
   99SAPS  H15Y 9997   1.373   6.419   8.185 -1.6114  0.0806 -0.2920
   99SAPS  C316 9998   1.460   6.292   8.335 -0.0059  0.3864 -1.1175
   99SAPS  H16X 9999   1.411   6.368   8.399  1.6030  0.5922 -0.1121
   99SAPS  H16Y10000   1.567   6.314   8.320  0.4535 -0.2824  1.0442
   99SAPS  C31710001   1.448   6.156   8.398 -0.3613  0.0071  0.0695
   99SAPS  H17X10002   1.493   6.083   8.328  1.7651 -1.1044  2.4928
   99SAPS  H17Y10003   1.346   6.114   8.412  0.1464 -1.4446 -0.4613
   99SAPS  C31810004   1.517   6.158   8.536  0.4164 -0.3518  0.2953
   99SAPS  H18X10005   1.626   6.141   8.536  0.5065 -0.0002 -1.9424
   99SAPS  H18Y10006   1.488   6.070   8.597  1.8980 -1.6220 -0.7787
   99SAPS  H18Z10007   1.470   6.235   8.601 -0.4867 -0.2102 -0.5089
  100SAPS     N10008   3.280   2.123   6.395  0.2090 -0.1325 -0.9057
  100SAPS   HN110009   3.337   2.073   6.466 -1.7149  0.8422  1.3549
  100SAPS   HN210010   3.349   2.141   6.319 -1.6806 -0.8846 -2.8564
  100SAPS   HN310011   3.246   2.210   6.441 -2.4834 -1.4283 -0.3504
  100SAPS   C1210012   3.172   2.031   6.347 -0.6616 -0.4650  0.3348
  100SAPS  H12A10013   3.091   2.043   6.417 -0.0506 -0.5319  1.0665
  100SAPS   C1310014   3.113   2.058   6.206 -0.8386  0.3321  0.2884
  100SAPS  O13A10015   3.168   2.139   6.129 -0.0125 -0.0611 -0.3823
  100SAPS  O13B10016   3.007   2.003   6.169  0.3371 -0.1592  0.2638
  100SAPS   C1110017   3.211   1.880   6.355 -0.3361 -0.3802  0.2195
  100SAPS  H11A10018   3.119   1.824   6.329 -0.8042  0.3036  0.3980
  100SAPS  H11B10019   3.237   1.868   6.462  0.0613  1.3812  0.3407
  100SAPS     P10020   3.425   1.733   6.285  0.0134 -0.0574 -0.2905
  100SAPS   O1310021   3.358   1.615   6.227 -0.1102 -0.6116  0.7230
  100SAPS   O1410022   3.552   1.782   6.226 -0.1570 -0.0544  0.1229
  100SAPS   O1210023   3.322   1.854   6.272 -0.2240  0.0497 -1.2840
  100SAPS   O1110024   3.434   1.714   6.438  0.4970 -0.0306 -0.1827
  100SAPS    C110025   3.554   1.675   6.500  1.0080  0.3094  0.2778
  100SAPS    HA10026   3.609   1.598   6.441  1.4141  2.0189 -1.6404
  100SAPS    HB10027   3.620   1.764   6.510 -1.1748  2.0107 -0.0558
  100SAPS    C210028   3.540   1.628   6.651 -0.0436  0.5075 -0.5137
  100SAPS    HS10029   3.521   1.519   6.651  0.4781  0.4030 -2.3959
  100SAPS   O2110030   3.439   1.705   6.716 -0.0866  0.9661  0.1824
  100SAPS   C2110031   3.317   1.649   6.718 -1.1196  0.0695 -0.1762
  100SAPS   O2210032   3.288   1.550   6.652 -0.2965  0.3500  0.2077
  100SAPS   C2210033   3.223   1.729   6.810 -0.5001 -1.2221  0.0682
  100SAPS   H2R10034   3.238   1.687   6.912 -0.3471  0.9227  0.9494
  100SAPS   H2S10035   3.259   1.834   6.807  1.2833 -1.8399 -0.8508
  100SAPS    C310036   3.671   1.633   6.736 -0.6143 -0.4129  0.3645
  100SAPS    HX10037   3.715   1.735   6.733 -0.6009 -0.4249  0.1152
  100SAPS    HY10038   3.754   1.572   6.694 -0.0925 -1.2082  2.4737
  100SAPS   O3110039   3.652   1.615   6.873 -0.0466  0.5920  0.1673
  100SAPS   C3110040   3.650   1.486   6.910 -0.2202 -0.3644 -0.7299
  100SAPS   O3210041   3.647   1.393   6.832 -0.0468 -0.4200  0.3122
  100SAPS   C3210042   3.621   1.465   7.059  0.0403 -0.4287  0.3060
  100SAPS   H2X10043   3.652   1.559   7.110 -0.5786  0.9434 -1.7585
  100SAPS   H2Y10044   3.695   1.392   7.098 -1.0098 -2.2022 -0.9763
  100SAPS   C2310045   3.073   1.740   6.771 -0.1034 -0.0431  0.3347
  100SAPS   H3R10046   3.044   1.633   6.760  2.1689 -0.7404  0.8451
  100SAPS   H3S10047   3.075   1.797   6.676 -1.5524  3.7541  2.5038
  100SAPS   C2410048   2.987   1.804   6.882 -0.6295  0.0049 -0.6030
  100SAPS   H4R10049   2.982   1.748   6.978  0.5876 -0.2614 -0.6971
  100SAPS   H4S10050   2.885   1.817   6.839 -0.4081  0.4666 -0.9960
  100SAPS   C2510051   3.026   1.945   6.923  0.0795  0.4637 -0.5515
  100SAPS   H5R10052   3.011   2.024   6.848  0.0565 -0.1870 -1.2469
  100SAPS   C2610053   3.114   1.980   7.020 -0.6000  0.0225  0.3867
  100SAPS   H6R10054   3.146   2.085   7.027  0.5816 -0.3047 -0.0100
  100SAPS   C2710055   3.177   1.883   7.124  0.2331 -0.1688  0.0304
  100SAPS   H7R10056   3.139   1.781   7.104 -0.5859  0.4194 -1.4785
  100SAPS   H7S10057   3.152   1.916   7.228 -2.5204 -3.7195  0.5828
  100SAPS   C2810058   3.331   1.882   7.121 -0.5001  0.5253  0.3347
  100SAPS   H8R10059   3.377   1.902   7.024 -1.1036 -1.5532 -0.4019
  100SAPS   C2910060   3.408   1.840   7.223 -0.3092 -0.6092  0.0685
  100SAPS   H9R10061   3.516   1.845   7.203 -0.2727  3.0181  0.9074
  100SAPS  C21010062   3.372   1.785   7.355 -1.1473 -0.3389 -0.8647
  100SAPS  H10R10063   3.455   1.719   7.389  0.1054  0.4400 -2.3440
  100SAPS  H10S10064   3.291   1.709   7.356  0.2941 -1.9152  1.2687
  100SAPS  C21110065   3.347   1.881   7.466  0.2736 -0.1569  0.1364
  100SAPS  H11R10066   3.343   1.986   7.434 -0.7498  0.1629  1.2526
  100SAPS  C21210067   3.311   1.836   7.595 -0.2614  0.6646  1.0574
  100SAPS  H12R10068   3.261   1.904   7.664  1.2093  0.5961  2.2150
  100SAPS  C21310069   3.312   1.687   7.624  1.1044 -0.0050 -0.1089
  100SAPS  H13R10070   3.417   1.650   7.635  2.2748  3.4436  1.0869
  100SAPS  H13S10071   3.262   1.626   7.546  1.8138  1.1874 -1.5268
  100SAPS  C21410072   3.247   1.665   7.761  0.4529 -0.2148  0.2358
  100SAPS  H14R10073   3.301   1.632   7.851 -0.1938  0.2750  0.8112
  100SAPS  C21510074   3.115   1.665   7.784  0.4499 -0.1922 -0.3463
  100SAPS  H15R10075   3.085   1.635   7.886 -0.4796  0.5165 -0.4054
  100SAPS  C21610076   3.007   1.682   7.681  0.2055  0.0241  0.0693
  100SAPS  H16R10077   3.046   1.749   7.602  1.3777 -0.2144  0.4442
  100SAPS  H16S10078   2.921   1.734   7.729 -1.0172 -1.4952 -0.4402
  100SAPS  C21710079   2.961   1.551   7.613  0.3021 -0.5344  0.5981
  100SAPS  H17R10080   2.916   1.478   7.683 -0.9107 -0.5721 -0.2145
  100SAPS  H17S10081   3.045   1.498   7.564  0.5288  0.8123 -0.5115
  100SAPS  C21810082   2.869   1.589   7.492 -0.5789  0.7145 -0.5254
  100SAPS  H18R10083   2.783   1.651   7.525 -0.8857  1.1975 -2.1880
  100SAPS  H18S10084   2.833   1.488   7.463  3.6932 -1.0095 -0.2234
  100SAPS  C21910085   2.929   1.651   7.368  0.4620  1.0012  0.0276
  100SAPS  H19R10086   2.967   1.754   7.389  2.9120 -0.4990  3.4085
  100SAPS  H19S10087   2.849   1.657   7.291  1.0258 -1.6398 -0.7863
  100SAPS  C22010088   3.024   1.562   7.299 -0.6032 -0.3950 -0.0480
  100SAPS  H20R10089   3.049   1.612   7.203 -1.0822 -0.0065  0.0287
  100SAPS  H20S10090   2.984   1.461   7.279 -0.7940 -0.3021 -0.1327
  100SAPS  H20T10091   3.121   1.550   7.354  0.6991 -2.6232 -2.7093
  100SAPS   C3310092   3.495   1.396   7.092 -0.2225  0.2747  0.2282
  100SAPS   H3X10093   3.512   1.289   7.069  2.3052  0.8006 -0.5133
  100SAPS   H3Y10094   3.418   1.437   7.023  0.0021 -1.3849 -1.0504
  100SAPS   C3410095   3.444   1.420   7.238  0.3586  0.1726  0.0856
  100SAPS   H4X10096   3.349   1.363   7.246 -0.4499  1.2291 -1.5951
  100SAPS   H4Y10097   3.438   1.531   7.246 -0.3541  0.0978  0.6230
  100SAPS   C3510098   3.539   1.373   7.356  0.3345  0.5408  0.3080
  100SAPS   H5X10099   3.629   1.436   7.344  0.4576  0.1400 -1.0193
  100SAPS   H5Y10100   3.567   1.268   7.331  2.8727  1.7178 -2.1122
  100SAPS   C3610101   3.483   1.392   7.496  0.1719 -0.0475 -0.6282
  100SAPS   H6X10102   3.431   1.489   7.512  1.7988  0.7865 -0.2151
  100SAPS   H6Y10103   3.567   1.380   7.568 -1.0735  1.5135  1.1276
  100SAPS   C3710104   3.379   1.278   7.531  0.3111  0.6187 -0.1424
  100SAPS   H7X10105   3.409   1.181   7.488  1.9331  1.9486 -2.1313
  100SAPS   H7Y10106   3.289   1.309   7.473 -1.0068 -0.9346  1.0490
  100SAPS   C3810107   3.351   1.268   7.683  0.1922  0.5676 -0.4694
  100SAPS   H8X10108   3.290   1.176   7.694  1.3178  0.1097  2.1204
  100SAPS   H8Y10109   3.277   1.344   7.717 -1.1831 -1.5012  1.2313
  100SAPS   C3910110   3.476   1.244   7.772 -0.8493  0.0949  0.0512
  100SAPS   H9X10111   3.480   1.334   7.837 -2.7477  0.9253 -0.9724
  100SAPS   H9Y10112   3.569   1.251   7.711 -0.6906 -0.7629  0.1777
  100SAPS  C31010113   3.479   1.108   7.836  0.3703 -0.1416 -0.1556
  100SAPS  H10X10114   3.476   1.025   7.762  0.8235 -1.3098  1.1001
  100SAPS  H10Y10115   3.393   1.087   7.904  0.2248 -1.1525 -0.6348
  100SAPS  C31110116   3.609   1.072   7.915  0.4441 -0.0129  0.0628
  100SAPS  H11X10117   3.651   1.154   7.978  0.4982 -0.8727  1.1658
  100SAPS  H11Y10118   3.691   1.059   7.841  0.8376 -1.1287  0.6783
  100SAPS  C31210119   3.587   0.948   8.006  0.3436 -0.3005  0.2219
  100SAPS  H12X10120   3.679   0.936   8.067 -1.6608 -0.9475  3.2047
  100SAPS  H12Y10121   3.569   0.862   7.938  0.5355 -0.0418 -0.1601
  100SAPS  C31310122   3.477   0.969   8.111  0.6536 -0.2559 -0.0354
  100SAPS  H13X10123   3.485   0.879   8.176 -0.1618 -0.0744  0.3199
  100SAPS  H13Y10124   3.373   0.976   8.074 -0.2065  0.4724  2.3884
  100SAPS  C31410125   3.495   1.094   8.192  0.5557  0.0455 -0.3101
  100SAPS  H14X10126   3.520   1.184   8.131  0.1177  0.2723 -0.1599
  100SAPS  H14Y10127   3.592   1.076   8.243  0.3118 -0.7248 -0.1046
  100SAPS  C31510128   3.391   1.116   8.308 -0.4839  0.1743 -0.1830
  100SAPS  H15X10129   3.289   1.137   8.267 -0.3768  0.1496 -0.4591
  100SAPS  H15Y10130   3.422   1.206   8.365 -0.5892  1.2241 -1.7436
  100SAPS  C31610131   3.395   1.004   8.412  0.5008  0.2294 -0.3630
  100SAPS  H16X10132   3.356   0.913   8.361  3.6809  0.0749 -2.6604
  100SAPS  H16Y10133   3.325   1.025   8.496 -2.8535 -3.0258 -2.1729
  100SAPS  C31710134   3.533   0.978   8.475  0.2267 -0.0126  0.5831
  100SAPS  H17X10135   3.561   1.085   8.485  0.1512 -0.0604  1.3014
  100SAPS  H17Y10136   3.601   0.914   8.414  0.0066  0.5606 -0.2794
  100SAPS  C31810137   3.523   0.905   8.616 -1.1479 -0.7291 -0.1264
  100SAPS  H18X10138   3.460   0.962   8.687 -0.3674  0.3797 -0.3067
  100SAPS  H18Y10139   3.626   0.907   8.660 -1.4830 -1.2796  0.6962
  100SAPS  H18Z10140   3.481   0.802   8.606  1.1979 -1.7558  0.2025
  101OSM      N10141   2.531   1.329  10.884 -0.1730 -0.4609  0.4946
  101OSM    C1510142   2.644   1.252  10.817  0.6128 -0.0439  0.0741
  101OSM   H15A10143   2.705   1.315  10.755 -1.6058  1.6943 -0.3933
  101OSM   H15B10144   2.597   1.188  10.745  1.7391 -3.1362  1.9723
  101OSM   H15C10145   2.698   1.188  10.886  0.7981 -0.5295 -0.5177
  101OSM    C1410146   2.430   1.230  10.935 -0.2934 -0.1670 -0.2783
  101OSM   H14A10147   2.344   1.277  10.981  1.0006  0.0209  2.0399
  101OSM   H14B10148   2.482   1.171  11.010 -0.1576  0.8721  0.4733
  101OSM   H14C10149   2.385   1.166  10.861  0.8017  0.5898 -1.6252
  101OSM    C1310150   2.589   1.401  10.996 -0.1544 -0.2428 -0.3272
  101OSM   H13A10151   2.514   1.469  11.036 -1.2252 -1.7106  0.1934
  101OSM   H13B10152   2.677   1.458  10.969  0.7624  0.2842  3.4593
  101OSM   H13C10153   2.606   1.329  11.074 -1.0990  0.1522  0.2553
  101OSM    C1210154   2.473   1.424  10.783  0.5107  0.2116  0.0043
  101OSM   H12A10155   2.433   1.370  10.698  1.4068  1.6094 -1.3258
  101OSM   H12B10156   2.542   1.491  10.736 -0.4729  0.8286 -0.5757
  101OSM    C1110157   2.347   1.509  10.831  0.4411 -0.0091 -0.3763
  101OSM   H11A10158   2.341   1.587  10.752  2.7645 -1.1254 -1.6873
  101OSM   H11B10159   2.371   1.551  10.931 -2.8878 -1.9778  1.3791
  101OSM      P10160   2.125   1.392  10.743  0.1341  0.6579 -0.0581
  101OSM    O1310161   2.115   1.244  10.733 -0.1397  0.1629  0.0550
  101OSM    O1410162   2.000   1.463  10.788 -0.5301 -0.4721  0.9241
  101OSM    O1110163   2.200   1.452  10.616 -0.8616 -0.6060 -0.8841
  101OSM    O1210164   2.239   1.416  10.852  0.7942  0.0645 -0.0078
  101OSM    C1S10165   2.115   1.521  10.520 -0.2825 -0.3715  0.1730
  101OSM    H1S10166   2.061   1.604  10.570  0.0489  0.2740 -0.5266
  101OSM    H1T10167   2.040   1.456  10.470 -0.6182 -0.0034  0.1967
  101OSM     NF10168   2.107   1.647  10.300  0.2954  0.5006  0.3792
  101OSM    HNF10169   2.061   1.604  10.222 -0.3460 -2.9520  2.5342
  101OSM    C2S10170   2.199   1.565  10.388  0.4362 -0.0020 -0.4252
  101OSM    H2S10171   2.287   1.624  10.421 -0.0114  1.5890 -2.0054
  101OSM    C3S10172   2.252   1.432  10.328  0.2859 -0.6205  0.6058
  101OSM    H3S10173   2.170   1.361  10.310 -0.7000  0.5465  0.4082
  101OSM     O310174   2.337   1.362  10.420  0.0908  0.0081  0.0354
  101OSM    HO310175   2.306   1.392  10.506  0.9324  0.6381  0.1205
  101OSM    C4S10176   2.317   1.460  10.197  0.1785 -0.6436  0.0437
  101OSM    H4S10177   2.247   1.458  10.112 -0.0900  2.3299  0.1381
  101OSM    C5S10178   2.446   1.486  10.171  0.8936 -0.1292  0.1617
  101OSM    H5S10179   2.512   1.484  10.260  0.3296  2.8262  0.7054
  101OSM    C6S10180   2.504   1.523  10.043  0.3695 -0.4503 -0.3807
  101OSM    H6S10181   2.583   1.455  10.003 -1.1553 -2.5669  0.0975
  101OSM    H6T10182   2.558   1.618  10.061  1.8493 -1.4444  0.5094
  101OSM    C7S10183   2.394   1.530   9.933 -0.0833 -0.4171 -0.2978
  101OSM    H7S10184   2.310   1.601   9.944 -0.1091 -0.4162 -0.4944
  101OSM    H7T10185   2.359   1.425   9.928 -0.1423 -0.4649  0.9888
  101OSM    C8S10186   2.464   1.575   9.800 -0.1163  0.5590  0.5972
  101OSM    H8S10187   2.543   1.500   9.782 -1.0904 -0.5711  0.9434
  101OSM    H8T10188   2.517   1.673   9.804 -0.1515  0.5185  2.6194
  101OSM    C9S10189   2.370   1.580   9.680 -0.3678  0.0199 -0.2515
  101OSM    H9S10190   2.274   1.633   9.698 -1.1793 -2.0768  1.8389
  101OSM    H9T10191   2.330   1.476   9.674  2.4184 -1.0882 -0.1905
  101OSM   C10S10192   2.432   1.620   9.549  0.2528  0.5197 -0.3469
  101OSM   H10S10193   2.520   1.559   9.521 -0.1983 -0.9656  1.3286
  101OSM   H10T10194   2.463   1.726   9.541 -2.3454  1.5280  1.9676
  101OSM   C11S10195   2.334   1.594   9.430 -0.5476  0.7125 -0.6627
  101OSM   H11S10196   2.231   1.629   9.452 -0.9669 -1.5982  1.1854
  101OSM   H11T10197   2.332   1.483   9.429  1.2134  0.6147  1.3341
  101OSM   C12S10198   2.383   1.656   9.303 -0.0333  0.8933  0.0408
  101OSM   H12S10199   2.486   1.619   9.283 -1.2220 -2.0895 -0.7962
  101OSM   H12T10200   2.383   1.767   9.310  0.7901  0.9741 -1.0932
  101OSM   C13S10201   2.276   1.617   9.184  0.2561  0.0365  0.5363
  101OSM   H13S10202   2.171   1.640   9.212  0.0766 -3.0799  2.6913
  101OSM   H13T10203   2.281   1.507   9.172 -1.9502 -0.1269  0.9549
  101OSM   C14S10204   2.306   1.683   9.046 -0.5119 -0.1869  0.3595
  101OSM   H14S10205   2.408   1.651   9.016  0.1311  2.1594 -0.0770
  101OSM   H14T10206   2.308   1.794   9.037  0.1284 -0.2873 -0.8848
  101OSM   C15S10207   2.213   1.621   8.938 -0.7356  0.0955 -0.1781
  101OSM   H15S10208   2.105   1.637   8.960 -0.3276  0.2794  1.7669
  101OSM   H15T10209   2.236   1.514   8.922 -0.2233 -0.0923  1.6978
  101OSM   C16S10210   2.229   1.682   8.797 -0.4395 -0.3911 -0.0210
  101OSM   H16S10211   2.182   1.613   8.723 -0.5111  0.7339 -1.0452
  101OSM   H16T10212   2.338   1.694   8.776 -0.3757  0.1849  0.6307
  101OSM   C17S10213   2.157   1.811   8.763 -0.3721  0.2853 -0.0028
  101OSM   H17S10214   2.169   1.841   8.657 -1.1675  0.4466 -0.0534
  101OSM   H17T10215   2.205   1.902   8.805 -2.3500  1.3222  0.0624
  101OSM   C18S10216   2.012   1.827   8.806 -0.2480  0.0033 -0.0939
  101OSM   H18S10217   1.978   1.932   8.790  0.9430  0.4873  0.5254
  101OSM   H18T10218   1.989   1.810   8.914 -1.7369  1.1422 -0.2228
  101OSM   H18U10219   1.938   1.773   8.742  2.6946 -2.8064 -1.2741
  101OSM    C1F10220   2.054   1.763  10.345  0.5709 -0.3330  0.0255
  101OSM     OF10221   2.077   1.809  10.456 -0.1125  0.1845  0.3263
  101OSM    C2F10222   1.971   1.829  10.246  0.6043  0.6035  0.6607
  101OSM    H2F10223   1.995   1.801  10.142  2.1098  2.2597  0.5409
  101OSM    H2G10224   1.992   1.938  10.235  0.9331  0.5931  1.1691
  101OSM    C3F10225   1.826   1.797  10.267 -0.2550 -0.0397 -0.2346
  101OSM    H3F10226   1.798   1.810  10.374 -0.9582  0.9677 -0.5365
  101OSM    H3G10227   1.817   1.688  10.244 -0.8774  0.2030 -1.1781
  101OSM    C4F10228   1.727   1.874  10.176 -0.1952  0.1554  0.6451
  101OSM    H4F10229   1.771   1.896  10.076 -0.8836 -0.2202  0.2563
  101OSM    H4G10230   1.718   1.970  10.231 -1.3907 -1.1480  2.8045
  101OSM    C5F10231   1.584   1.811  10.170 -0.5908  0.0799  0.1485
  101OSM    H5F10232   1.554   1.795  10.276  1.3986 -0.1618  0.7046
  101OSM    H5G10233   1.599   1.709  10.128  1.3385 -0.2916  1.6612
  101OSM    C6F10234   1.493   1.893  10.082 -0.1849  0.1169  0.1948
  101OSM    H6F10235   1.538   1.898   9.980  0.9423 -0.3375  0.6573
  101OSM    H6G10236   1.500   1.996  10.123 -1.5800 -1.0628  3.5758
  101OSM    C7F10237   1.350   1.854  10.066  0.1205 -0.2420  0.1817
  101OSM    H7F10238   1.305   1.889  10.161 -1.1344  1.4416 -1.0030
  101OSM    H7G10239   1.346   1.745  10.047  0.7301 -0.2969  0.3475
  101OSM    C8F10240   1.286   1.931   9.945 -0.9320  0.0822  0.6742
  101OSM    H8F10241   1.354   1.897   9.864  2.1150  1.9811  2.3289
  101OSM    H8G10242   1.298   2.040   9.967  2.4241 -0.2660  0.8335
  101OSM    C9F10243   1.139   1.888   9.937  0.4344  0.1413  0.2241
  101OSM    H9F10244   1.070   1.906  10.020  2.7139 -2.5392  2.8250
  101OSM   C10F10245   1.090   1.829   9.829 -0.0931  0.0865  0.3027
  101OSM   H10F10246   0.984   1.799   9.835  0.1353 -0.5079  1.6508
  101OSM   C11F10247   1.164   1.801   9.702 -0.0011 -0.9891  0.3652
  101OSM   H11F10248   1.117   1.712   9.653  0.1007 -1.4329  1.0639
  101OSM   H11G10249   1.273   1.780   9.708  0.9990  3.5111 -0.5350
  101OSM   C12F10250   1.166   1.926   9.611 -0.0904 -0.5166  0.2471
  101OSM   H12F10251   1.228   2.009   9.654  0.6174 -1.2089  0.5802
  101OSM   H12G10252   1.064   1.970   9.608  0.5489  1.2358  2.1544
  101OSM   C13F10253   1.221   1.893   9.470  0.4937  0.1917 -0.3671
  101OSM   H13F10254   1.149   1.812   9.446 -0.4214  1.1860 -1.0156
  101OSM   H13G10255   1.324   1.854   9.481 -0.0730 -1.4226 -0.6428
  101OSM   C14F10256   1.203   1.990   9.358  0.2169 -0.9768  0.2514
  101OSM   H14F10257   1.251   2.082   9.396  2.8716 -1.3955 -1.8809
  101OSM   H14G10258   1.097   2.022   9.346 -0.1280 -1.6546  1.4287
  101OSM   C15F10259   1.265   1.954   9.223 -0.2420 -0.9145 -0.3433
  101OSM   H15F10260   1.224   1.859   9.183 -0.9589 -0.8615  0.2727
  101OSM   H15G10261   1.376   1.945   9.232 -0.2940 -1.9656 -0.6899
  101OSM   C16F10262   1.238   2.056   9.116  0.1791  0.1937  0.1809
  101OSM   H16F10263   1.274   2.157   9.143  0.4566 -0.1693  1.1640
  101OSM   H16G10264   1.131   2.085   9.112 -0.5329 -2.5654 -2.9718
  101OSM   C17F10265   1.291   2.015   8.976  0.2156  0.2324 -0.6084
  101OSM   H17F10266   1.238   1.920   8.953  0.6503 -0.4545  1.1497
  101OSM   H17G10267   1.399   1.987   8.975 -0.0547 -0.8576 -1.5341
  101OSM   C18F10268   1.256   2.123   8.871  0.3526 -0.2155 -0.1893
  101OSM   H18F10269   1.156   2.106   8.825 -0.4275  1.7075  0.7324
  101OSM   H18G10270   1.338   2.129   8.796 -0.5399  0.7504 -1.1258
  101OSM   H18H10271   1.230   2.219   8.922  2.6455  0.3938 -0.1477
  102OSM      N10272   1.549   0.675  10.786 -1.2097 -0.5261 -0.3732
  102OSM    C1510273   1.649   0.669  10.674 -0.1515 -0.1459  0.2775
  102OSM   H15A10274   1.705   0.577  10.683 -0.7908 -0.6222 -0.5984
  102OSM   H15B10275   1.717   0.749  10.702 -0.6909  1.0446 -1.7136
  102OSM   H15C10276   1.593   0.661  10.582  0.1848  2.3418 -0.1860
  102OSM    C1410277   1.439   0.578  10.747 -0.4365  0.3426 -0.4941
  102OSM   H14A10278   1.395   0.533  10.835  1.4184  0.2894  0.4206
  102OSM   H14B10279   1.474   0.496  10.685 -2.6244 -1.3766  0.4476
  102OSM   H14C10280   1.367   0.625  10.682 -1.5331 -1.9620 -1.0278
  102OSM    C1310281   1.623   0.623  10.902 -0.3225  0.1319 -0.5187
  102OSM   H13A10282   1.680   0.546  10.852 -1.9130 -0.7118 -1.0734
  102OSM   H13B10283   1.557   0.589  10.981 -0.5124  1.4394 -0.1088
  102OSM   H13C10284   1.693   0.692  10.947 -0.8005 -0.6280  1.4413
  102OSM    C1210285   1.491   0.815  10.816  0.2011  0.3528  0.6302
  102OSM   H12A10286   1.404   0.809  10.879  0.5024  1.9325  1.2271
  102OSM   H12B10287   1.446   0.859  10.728  0.4914 -0.1449  0.2310
  102OSM    C1110288   1.591   0.911  10.878 -0.0703  0.0432 -0.6768
  102OSM   H11A10289   1.616   0.866  10.976  0.0934  1.6598  0.0449
  102OSM   H11B10290   1.521   0.997  10.885 -0.5369 -0.1303 -2.8667
  102OSM      P10291   1.699   1.040  10.678 -0.1288 -0.3153 -0.2425
  102OSM    O1310292   1.668   1.170  10.736 -0.3196  0.6308 -0.0464
  102OSM    O1410293   1.828   1.027  10.604  0.2596 -0.4327 -0.0053
  102OSM    O1110294   1.580   0.986  10.587 -0.1943 -0.5285 -0.5982
  102OSM    O1210295   1.702   0.937  10.791 -0.2726  0.5415 -0.0746
  102OSM    C1S10296   1.497   1.082  10.516 -0.4427  0.3470 -0.3153
  102OSM    H1S10297   1.543   1.183  10.521 -0.6691  0.4207  0.2652
  102OSM    H1T10298   1.398   1.089  10.565 -0.8425 -0.3817 -1.0017
  102OSM     NF10299   1.392   1.148  10.297 -0.2333 -0.3525 -0.3729
  102OSM    HNF10300   1.300   1.116  10.279 -1.3527  2.9369 -0.6520
  102OSM    C2S10301   1.481   1.048  10.368 -0.5957 -0.0559  0.0467
  102OSM    H2S10302   1.578   1.057  10.315 -0.1965 -2.4500  0.3031
  102OSM    C3S10303   1.426   0.901  10.351  0.2945 -0.4875  0.3319
  102OSM    H3S10304   1.325   0.895  10.399 -0.6855 -2.9149 -1.8851
  102OSM     O310305   1.498   0.805  10.427  0.1207  0.1603 -0.3444
  102OSM    HO310306   1.546   0.865  10.484  2.0715 -1.9477  0.2998
  102OSM    C4S10307   1.426   0.867  10.210 -0.0638  0.3396 -0.1410
  102OSM    H4S10308   1.524   0.858  10.160  0.4069  1.0377  0.6573
  102OSM    C5S10309   1.314   0.835  10.135  0.2278 -1.1920 -0.4000
  102OSM    H5S10310   1.222   0.826  10.195 -0.0457  1.6218 -0.3219
  102OSM    C6S10311   1.298   0.800   9.991 -1.0921 -1.2746 -0.1588
  102OSM    H6S10312   1.207   0.845   9.946 -0.4947  1.7202  1.5472
  102OSM    H6T10313   1.280   0.691   9.976  2.7035 -1.7315 -1.8884
  102OSM    C7S10314   1.422   0.828   9.896  0.1783  0.5741 -0.1761
  102OSM    H7S10315   1.401   0.792   9.793 -1.3481 -0.8292  0.6045
  102OSM    H7T10316   1.509   0.773   9.936 -0.2151  0.8658  1.1127
  102OSM    C8S10317   1.457   0.977   9.877 -0.0016  0.4276 -0.0117
  102OSM    H8S10318   1.511   1.019   9.964  0.5947 -3.1098  1.3740
  102OSM    H8T10319   1.366   1.038   9.855  0.3093  0.7156 -0.5120
  102OSM    C9S10320   1.555   0.994   9.759  0.1075 -0.1582  0.0679
  102OSM    H9S10321   1.607   0.898   9.739  1.5241  0.7573 -0.7510
  102OSM    H9T10322   1.632   1.068   9.791 -0.0933  0.4845 -0.8819
  102OSM   C10S10323   1.487   1.038   9.632 -0.2801 -0.0619 -0.2631
  102OSM   H10S10324   1.468   1.147   9.638 -0.7534 -0.1917  0.8229
  102OSM   H10T10325   1.385   0.995   9.642  0.4547 -1.4072  1.9704
  102OSM   C11S10326   1.555   1.009   9.495  0.1577  0.4893 -0.2371
  102OSM   H11S10327   1.573   0.900   9.493 -2.9299 -0.0706 -1.2032
  102OSM   H11T10328   1.651   1.063   9.482 -0.4964  1.7955  0.2134
  102OSM   C12S10329   1.461   1.040   9.370  0.2986 -0.8958 -0.6147
  102OSM   H12S10330   1.443   1.150   9.372  0.7239 -0.8359  1.4868
  102OSM   H12T10331   1.369   0.981   9.391 -1.0873  1.5646  0.4076
  102OSM   C13S10332   1.531   1.003   9.242  0.2080 -0.8777 -0.0625
  102OSM   H13S10333   1.543   0.894   9.224  1.1124 -0.6527 -0.9411
  102OSM   H13T10334   1.639   1.029   9.251 -0.2298  0.6168  0.9926
  102OSM   C14S10335   1.462   1.072   9.122  0.3082  0.4897 -0.1303
  102OSM   H14S10336   1.460   1.181   9.145 -3.2672  0.3435  0.5415
  102OSM   H14T10337   1.358   1.036   9.110  0.3317  0.7424 -1.0556
  102OSM   C15S10338   1.534   1.054   8.992 -0.4151  0.5012  0.7855
  102OSM   H15S10339   1.537   0.949   8.957 -1.1837  1.6567 -2.9172
  102OSM   H15T10340   1.641   1.085   8.999  0.1026 -1.0344 -0.1150
  102OSM   C16S10341   1.464   1.134   8.879  0.4862  0.4176  0.0707
  102OSM   H16S10342   1.476   1.244   8.886 -0.0067  0.4529  0.3756
  102OSM   H16T10343   1.355   1.113   8.870  0.0893  1.8759  1.3433
  102OSM   C17S10344   1.515   1.106   8.736  0.0935  0.4189 -0.6918
  102OSM   H17S10345   1.430   1.132   8.670 -0.4956  1.2197  0.3672
  102OSM   H17T10346   1.533   0.996   8.731  1.7730  0.6941 -0.9662
  102OSM   C18S10347   1.635   1.182   8.698 -0.3286 -0.5963 -0.7385
  102OSM   H18S10348   1.668   1.153   8.596  1.3901 -0.7694 -0.1506
  102OSM   H18T10349   1.713   1.155   8.772  0.0751 -0.0800 -0.9708
  102OSM   H18U10350   1.625   1.293   8.698  2.2225 -0.3344 -0.5657
  102OSM    C1F10351   1.427   1.271  10.280 -0.0492  0.0327  0.2709
  102OSM     OF10352   1.541   1.310  10.313  0.0223 -0.3463  0.0612
  102OSM    C2F10353   1.322   1.367  10.239 -0.0966 -0.6765  0.3109
  102OSM    H2F10354   1.268   1.410  10.326  2.9134  0.0999  1.8431
  102OSM    H2G10355   1.243   1.319  10.177  0.9126  0.4415 -1.8955
  102OSM    C3F10356   1.379   1.487  10.161 -0.7098  0.2092  0.0334
  102OSM    H3F10357   1.452   1.536  10.229  0.0188 -1.1679  0.2710
  102OSM    H3G10358   1.295   1.559  10.155 -2.0856 -1.2306  1.3622
  102OSM    C4F10359   1.439   1.459  10.020 -0.0785  0.3472 -0.6036
  102OSM    H4F10360   1.512   1.375  10.025 -0.1384  0.3901  1.0804
  102OSM    H4G10361   1.491   1.549   9.982  1.7493 -0.3949  0.1063
  102OSM    C5F10362   1.330   1.419   9.911  0.9276 -0.6345  0.8171
  102OSM    H5F10363   1.266   1.510   9.915 -0.6523 -1.6679 -0.5704
  102OSM    H5G10364   1.273   1.324   9.925 -1.4366  0.5535 -0.4149
  102OSM    C6F10365   1.404   1.406   9.769  0.1918  0.3262  0.4019
  102OSM    H6F10366   1.477   1.323   9.785  0.5308  0.5909  0.2355
  102OSM    H6G10367   1.464   1.498   9.753  1.9044 -0.4670  2.1422
  102OSM    C7F10368   1.317   1.366   9.649  0.2521 -0.6835 -0.1553
  102OSM    H7F10369   1.267   1.267   9.662 -2.1165  0.2663 -1.6947
  102OSM    H7G10370   1.373   1.361   9.553 -1.6268 -1.1133 -1.2554
  102OSM    C8F10371   1.194   1.459   9.631 -0.2233  0.2793  1.0827
  102OSM    H8F10372   1.243   1.548   9.584 -1.1236 -0.0535 -0.5108
  102OSM    H8G10373   1.160   1.495   9.731 -2.3388  4.9150 -1.1352
  102OSM    C9F10374   1.084   1.407   9.540  0.6484 -0.0281  0.3290
  102OSM    H9F10375   1.006   1.350   9.593 -2.4966  0.6976 -3.3343
  102OSM   C10F10376   1.063   1.433   9.409 -0.5354 -0.1253 -0.2406
  102OSM   H10F10377   0.973   1.384   9.368 -0.7898  0.0512  0.1036
  102OSM   C11F10378   1.139   1.523   9.314 -0.2146 -0.3376  0.2827
  102OSM   H11F10379   1.227   1.562   9.371 -0.2368  2.1202 -1.3190
  102OSM   H11G10380   1.074   1.606   9.282  0.7786  0.0839 -0.6939
  102OSM   C12F10381   1.190   1.452   9.192  0.0652 -0.1734 -0.5615
  102OSM   H12F10382   1.113   1.384   9.148  0.2488 -0.2526 -0.7628
  102OSM   H12G10383   1.282   1.391   9.201 -1.9433 -3.1987  0.4909
  102OSM   C13F10384   1.196   1.545   9.073  0.0145 -0.3246 -0.7711
  102OSM   H13F10385   1.265   1.630   9.094  1.1126 -1.6942  1.2758
  102OSM   H13G10386   1.099   1.595   9.053  0.9626  1.2217 -1.6988
  102OSM   C14F10387   1.237   1.465   8.948  0.0882 -0.5842  0.3932
  102OSM   H14F10388   1.156   1.394   8.919 -1.6033  1.1010  0.8740
  102OSM   H14G10389   1.332   1.415   8.976 -0.1012  0.3172  2.7347
  102OSM   C15F10390   1.256   1.564   8.829 -0.3480 -0.2141  0.1027
  102OSM   H15F10391   1.299   1.516   8.738  0.5997  1.0082 -0.1043
  102OSM   H15G10392   1.316   1.648   8.871 -1.7322  0.4396  0.8125
  102OSM   C16F10393   1.124   1.633   8.784  0.2553  0.1041 -0.0553
  102OSM   H16F10394   1.091   1.673   8.883  1.5282  1.6516 -0.2433
  102OSM   H16G10395   1.056   1.557   8.739 -0.2195  0.5153 -0.0407
  102OSM   C17F10396   1.135   1.755   8.689  1.1162  0.3391  0.0319
  102OSM   H17F10397   1.191   1.712   8.603 -1.9375 -1.4614 -1.1360
  102OSM   H17G10398   1.206   1.823   8.740  0.0674  2.2953 -1.0779
  102OSM   C18F10399   0.998   1.830   8.665 -0.0756  0.0553  0.1591
  102OSM   H18F10400   0.987   1.879   8.566 -3.5926 -1.8173 -0.4680
  102OSM   H18G10401   0.995   1.914   8.737 -2.5369 -1.4030  1.8457
  102OSM   H18H10402   0.916   1.756   8.680 -2.5444  3.0044  1.9381
  103OSM      N10403   3.278   3.536  10.764  0.2081 -0.6963  0.7327
  103OSM    C1510404   3.259   3.389  10.767  0.7186 -0.2191 -0.3974
  103OSM   H15A10405   3.291   3.347  10.673  0.7175  0.3469 -0.6554
  103OSM   H15B10406   3.153   3.373  10.783  0.9666 -1.3923  0.1420
  103OSM   H15C10407   3.305   3.351  10.857  0.4000 -2.4659 -1.1476
  103OSM    C1410408   3.418   3.566  10.745  0.9443  0.4259  0.3944
  103OSM   H14A10409   3.462   3.517  10.659 -1.3215 -0.5389 -0.2485
  103OSM   H14B10410   3.475   3.557  10.836  1.3194  1.1176  0.2318
  103OSM   H14C10411   3.433   3.671  10.722  2.4636  0.7341  2.6166
  103OSM    C1310412   3.207   3.573  10.635 -0.7617  0.1381 -0.0004
  103OSM   H13A10413   3.100   3.555  10.639 -1.1100  0.8401 -3.8920
  103OSM   H13B10414   3.229   3.504  10.555  1.8791  1.2992 -0.3092
  103OSM   H13C10415   3.219   3.676  10.605  1.4704  0.1244  0.7499
  103OSM    C1210416   3.217   3.618  10.875 -0.6432 -0.0187 -0.2376
  103OSM   H12A10417   3.236   3.724  10.873 -2.2500  0.3314  1.7111
  103OSM   H12B10418   3.267   3.605  10.970  0.6231  0.0596 -0.8803
  103OSM    C1110419   3.064   3.596  10.901  0.4642  0.0139 -0.0607
  103OSM   H11A10420   3.047   3.617  11.008  1.3128  0.4512 -0.0075
  103OSM   H11B10421   3.040   3.488  10.886  1.3186 -0.2441  0.3657
  103OSM      P10422   2.971   3.815  10.840  0.0929  0.1582  0.1215
  103OSM    O1310423   2.831   3.842  10.885  0.8820 -0.6894 -0.9016
  103OSM    O1410424   3.081   3.875  10.921  0.0673  0.1818  0.5425
  103OSM    O1110425   2.984   3.867  10.691 -0.2273 -0.1223 -0.0046
  103OSM    O1210426   2.981   3.659  10.810 -0.0246  0.1884 -0.2424
  103OSM    C1S10427   2.861   3.863  10.620 -0.1121  0.4689 -0.1823
  103OSM    H1S10428   2.791   3.945  10.646 -2.1983 -1.3358  0.0578
  103OSM    H1T10429   2.807   3.769  10.645  2.8922 -1.4112 -0.4669
  103OSM     NF10430   2.756   3.836  10.403 -0.0510 -0.2969  0.0505
  103OSM    HNF10431   2.735   3.746  10.368  1.5523 -0.1619 -1.3046
  103OSM    C2S10432   2.886   3.864  10.469 -0.3931  0.5602  0.2241
  103OSM    H2S10433   2.924   3.966  10.445  1.4887  1.1085  4.8663
  103OSM    C3S10434   2.999   3.766  10.426 -0.6715 -0.3905  0.2075
  103OSM    H3S10435   2.983   3.663  10.466 -2.1059 -0.8332 -1.4245
  103OSM     O310436   3.132   3.800  10.467  0.5280  0.0641  0.1251
  103OSM    HO310437   3.122   3.858  10.542  1.9173 -2.4109  2.3186
  103OSM    C4S10438   3.002   3.762  10.271  0.8031 -0.1812  0.3750
  103OSM    H4S10439   2.975   3.862  10.235 -1.4282 -0.9659 -0.2224
  103OSM    C5S10440   3.035   3.657  10.190 -0.1407  0.0312 -0.0518
  103OSM    H5S10441   3.061   3.562  10.240  2.0971  1.0780  0.8144
  103OSM    C6S10442   3.040   3.661  10.039 -0.2846  0.3546 -0.0921
  103OSM    H6S10443   2.970   3.585   9.996 -0.6312 -0.0190  1.1126
  103OSM    H6T10444   3.141   3.632  10.005  0.7337 -0.8001  3.6751
  103OSM    C7S10445   2.996   3.799   9.973 -0.3625 -0.5714  0.3283
  103OSM    H7S10446   3.046   3.893  10.004  0.7497 -0.4606 -1.7431
  103OSM    H7T10447   2.890   3.818  10.002 -0.4135 -0.0967 -0.1613
  103OSM    C8S10448   3.006   3.780   9.820 -0.1220  0.2240 -0.1221
  103OSM    H8S10449   2.935   3.696   9.803 -1.0856  0.4571  2.5249
  103OSM    H8T10450   3.110   3.759   9.786 -0.8144 -0.5944 -1.8066
  103OSM    C9S10451   2.964   3.909   9.754 -0.0549  0.1316  0.4857
  103OSM    H9S10452   3.034   3.986   9.793  1.6263 -0.5642 -1.0593
  103OSM    H9T10453   2.859   3.927   9.784 -0.4400 -0.4704 -0.4657
  103OSM   C10S10454   2.989   3.907   9.603 -0.2762 -0.0333  0.2997
  103OSM   H10S10455   2.938   3.815   9.567 -0.3886  0.5984 -1.1783
  103OSM   H10T10456   3.094   3.881   9.575 -0.0662 -0.5156  1.5051
  103OSM   C11S10457   2.939   4.035   9.534  0.2049  0.1675  0.2662
  103OSM   H11S10458   2.969   4.129   9.587  1.5860 -0.1207  0.0011
  103OSM   H11T10459   2.828   4.040   9.531  0.2092 -0.0337 -0.2537
  103OSM   C12S10460   2.990   4.041   9.394  0.0506  0.4962  0.1002
  103OSM   H12S10461   2.933   3.967   9.334  0.4296 -0.6121  1.0979
  103OSM   H12T10462   3.093   4.000   9.386 -1.0707 -2.2285 -0.9316
  103OSM   C13S10463   2.967   4.172   9.324 -0.7624 -0.4777  0.0321
  103OSM   H13S10464   3.029   4.170   9.232 -1.8209 -0.4018 -0.6922
  103OSM   H13T10465   3.011   4.259   9.377  0.1116 -0.8192 -0.1152
  103OSM   C14S10466   2.822   4.195   9.271  0.5783  0.3167  0.5503
  103OSM   H14S10467   2.766   4.246   9.352  2.2952  2.9241  0.1509
  103OSM   H14T10468   2.781   4.095   9.245  0.7348  0.9917 -2.5440
  103OSM   C15S10469   2.824   4.288   9.151 -0.3084 -0.6584  0.3285
  103OSM   H15S10470   2.889   4.256   9.066 -1.6922  0.0877 -1.0421
  103OSM   H15T10471   2.861   4.384   9.194 -3.6206  0.0423  1.7947
  103OSM   C16S10472   2.682   4.323   9.100  0.3953  0.7901  0.8206
  103OSM   H16S10473   2.605   4.337   9.179 -0.6423  3.2177 -0.5654
  103OSM   H16T10474   2.649   4.244   9.029  0.1347  3.1485 -1.8098
  103OSM   C17S10475   2.695   4.446   9.013  0.6961  0.1167 -0.2268
  103OSM   H17S10476   2.788   4.458   8.954 -0.5354  1.7008 -1.9141
  103OSM   H17T10477   2.693   4.539   9.075  2.1169 -0.0177  0.0222
  103OSM   C18S10478   2.582   4.469   8.908 -0.0536  0.9755  0.1485
  103OSM   H18S10479   2.489   4.485   8.966 -0.6072  2.2128 -1.0381
  103OSM   H18T10480   2.569   4.382   8.840  1.3493 -0.3233  1.4863
  103OSM   H18U10481   2.609   4.563   8.854  3.5388  1.5059  2.6928
  103OSM    C1F10482   2.653   3.928  10.414 -0.0258 -0.7649 -0.1333
  103OSM     OF10483   2.682   4.039  10.454  0.1497 -0.3659  0.1796
  103OSM    C2F10484   2.507   3.884  10.381  0.5078 -0.7189  0.1249
  103OSM    H2F10485   2.448   3.906  10.473  2.4758  0.5859  1.1159
  103OSM    H2G10486   2.511   3.773  10.376  0.2547 -0.6988 -0.5078
  103OSM    C3F10487   2.448   3.955  10.258  0.5166  0.1431  0.2452
  103OSM    H3F10488   2.442   4.066  10.261  0.1832  0.1217  0.3906
  103OSM    H3G10489   2.341   3.924  10.259  1.3543 -2.9049 -0.9301
  103OSM    C4F10490   2.500   3.905  10.120 -0.0914  0.0186  0.1504
  103OSM    H4F10491   2.550   3.806  10.127  1.4887  0.7895 -0.0143
  103OSM    H4G10492   2.592   3.961  10.094  1.2240 -0.9278  2.6464
  103OSM    C5F10493   2.400   3.912  10.007 -0.0667 -0.0457  0.0371
  103OSM    H5F10494   2.366   4.017   9.995  1.1302  0.3585  0.0501
  103OSM    H5G10495   2.309   3.856  10.035 -0.2170 -0.1822 -0.7247
  103OSM    C6F10496   2.462   3.880   9.870  0.6243 -0.3131 -0.6427
  103OSM    H6F10497   2.507   3.779   9.884 -1.5268 -1.0503  1.2381
  103OSM    H6G10498   2.538   3.956   9.844  1.1951  0.2869  2.5868
  103OSM    C7F10499   2.362   3.891   9.757 -0.8355 -0.3719  0.4485
  103OSM    H7F10500   2.339   3.999   9.771 -1.2054 -0.5887  1.5236
  103OSM    H7G10501   2.268   3.845   9.793 -0.3710 -1.0153  0.8298
  103OSM    C8F10502   2.416   3.847   9.619  0.1569  0.4642  0.0650
  103OSM    H8F10503   2.326   3.840   9.555 -0.1822  1.2419  0.4567
  103OSM    H8G10504   2.462   3.747   9.636  3.5833  1.6818 -1.5413
  103OSM    C9F10505   2.518   3.942   9.576 -0.4351 -1.3191  0.0449
  103OSM    H9F10506   2.603   3.952   9.646 -0.0971  2.7653 -0.8432
  103OSM   C10F10507   2.516   4.016   9.468  0.2008 -0.0582  0.9313
  103OSM   H10F10508   2.603   4.078   9.441 -0.3175  0.6119  0.7837
  103OSM   C11F10509   2.411   4.022   9.359 -0.0611  0.4322  0.5183
  103OSM   H11F10510   2.364   4.122   9.346 -0.8857  0.0792  0.7915
  103OSM   H11G10511   2.332   3.946   9.376  1.1732 -1.2935 -1.3048
  103OSM   C12F10512   2.471   3.997   9.216  0.2765 -0.0640  0.3544
  103OSM   H12F10513   2.488   3.888   9.202  1.2718  0.3091 -1.5280
  103OSM   H12G10514   2.565   4.052   9.195  0.5684  1.1519  4.4480
  103OSM   C13F10515   2.367   4.043   9.113  0.1525 -0.0946 -0.0076
  103OSM   H13F10516   2.264   4.017   9.147  1.0064 -2.5601  0.7756
  103OSM   H13G10517   2.362   4.154   9.119 -3.6967 -0.2940  2.3528
  103OSM   C14F10518   2.407   3.996   8.972 -0.0002  0.0963  0.3200
  103OSM   H14F10519   2.381   3.889   8.957  0.9744  0.0362 -0.9799
  103OSM   H14G10520   2.518   3.996   8.968 -0.0525 -0.1568 -2.6867
  103OSM   C15F10521   2.345   4.070   8.858 -0.7016 -0.1459  0.6185
  103OSM   H15F10522   2.339   4.179   8.878  2.8320  0.2713 -0.2922
  103OSM   H15G10523   2.245   4.028   8.832  0.7058 -2.9784 -0.4682
  103OSM   C16F10524   2.429   4.063   8.730 -0.6167  0.2088 -0.0640
  103OSM   H16F10525   2.450   3.958   8.704  3.5753  0.9774 -0.1683
  103OSM   H16G10526   2.532   4.103   8.748 -0.3515  0.1750 -1.4722
  103OSM   C17F10527   2.362   4.136   8.614  0.2516 -0.1670  0.3340
  103OSM   H17F10528   2.442   4.184   8.553 -0.5169  1.3018  0.4467
  103OSM   H17G10529   2.295   4.213   8.658 -1.5232 -1.9288  0.7757
  103OSM   C18F10530   2.288   4.056   8.509  0.3148  0.9067 -0.3258
  103OSM   H18F10531   2.220   4.122   8.452  0.0988  2.4851  1.7131
  103OSM   H18G10532   2.220   3.984   8.561  2.1824 -1.7974 -1.5040
  103OSM   H18H10533   2.344   3.996   8.434 -0.3844 -0.4953  0.2613
  104OSM      N10534   0.571   3.128  10.924  0.4173  0.2997  0.0098
  104OSM    C1510535   0.460   3.053  10.984 -0.4116 -0.5109 -0.7579
  104OSM   H15A10536   0.362   3.057  10.938 -1.2521  1.0135  1.1015
  104OSM   H15B10537   0.442   3.077  11.088 -0.6277  1.4331 -1.2267
  104OSM   H15C10538   0.491   2.949  10.985  2.1210  0.2040 -0.5026
  104OSM    C1410539   0.543   3.274  10.945 -0.0944 -0.1807  0.2837
  104OSM   H14A10540   0.550   3.301  11.050 -2.5053  1.5692  0.0243
  104OSM   H14B10541   0.442   3.291  10.912  1.1207  2.1614 -2.3923
  104OSM   H14C10542   0.599   3.349  10.891 -1.4946  1.7206  1.4015
  104OSM    C1310543   0.699   3.091  10.988 -0.0793  0.0848 -0.5189
  104OSM   H13A10544   0.703   3.131  11.088 -2.6528  0.7502 -0.6536
  104OSM   H13B10545   0.778   3.136  10.930  1.7378 -0.0429  1.7789
  104OSM   H13C10546   0.721   2.986  10.985  2.3145  0.3815  3.3537
  104OSM    C1210547   0.576   3.102  10.774  0.0412 -0.0779 -0.5833
  104OSM   H12A10548   0.648   3.164  10.721 -2.0943  1.7670 -1.4357
  104OSM   H12B10549   0.488   3.148  10.730 -1.2915 -0.8059  1.2826
  104OSM    C1110550   0.578   2.956  10.720 -0.1851 -0.9357 -0.8988
  104OSM   H11A10551   0.679   2.918  10.749  0.3562 -0.5477 -2.2214
  104OSM   H11B10552   0.576   2.964  10.609 -2.3012  0.8100 -0.7717
  104OSM      P10553   0.417   2.743  10.685 -0.7009 -0.1349 -0.0465
  104OSM    O1310554   0.517   2.638  10.666 -0.0110 -0.4733  0.5481
  104OSM    O1410555   0.291   2.709  10.752  0.1529  0.1054 -0.0441
  104OSM    O1110556   0.390   2.826  10.552 -0.2711 -0.2887  0.3651
  104OSM    O1210557   0.493   2.851  10.776  0.0241 -0.0248 -0.0652
  104OSM    C1S10558   0.306   2.944  10.565 -0.2455  0.6482  0.3236
  104OSM    H1S10559   0.350   3.015  10.639  1.2345 -0.4182  0.4885
  104OSM    H1T10560   0.205   2.912  10.598 -0.3214 -1.2273 -1.5848
  104OSM     NF10561   0.247   3.157  10.453 -0.3470 -0.5839 -0.3025
  104OSM    HNF10562   0.156   3.185  10.424  0.5216 -1.2429 -3.8291
  104OSM    C2S10563   0.290   3.022  10.431  0.0497 -0.2226 -0.1146
  104OSM    H2S10564   0.384   3.022  10.372  0.4290 -0.9235  0.4822
  104OSM    C3S10565   0.189   2.943  10.345  0.2911  0.5121  0.7633
  104OSM    H3S10566   0.086   2.945  10.386  0.2473 -0.6079  0.6978
  104OSM     O310567   0.207   2.802  10.348  0.4054 -0.0250 -0.3868
  104OSM    HO310568   0.267   2.787  10.421 -1.7050  1.0590  1.6064
  104OSM    C4S10569   0.175   3.006  10.210 -0.3327 -0.3116  0.0439
  104OSM    H4S10570   0.107   3.093  10.218 -2.7983 -1.8578 -2.9921
  104OSM    C5S10571   0.224   2.956  10.094 -0.8762 -0.0469  0.0566
  104OSM    H5S10572   0.267   2.855  10.089 -0.4712  0.0332  1.6419
  104OSM    C6S10573   0.195   3.030   9.967 -0.0224 -0.0238  0.1151
  104OSM    H6S10574   0.158   3.132   9.989  3.0391  1.2667 -0.4716
  104OSM    H6T10575   0.117   2.987   9.900 -0.1021  2.7824 -1.6503
  104OSM    C7S10576   0.319   3.032   9.885 -0.8841 -0.8108  0.1445
  104OSM    H7S10577   0.354   2.928   9.869 -0.3799 -0.7648  0.9306
  104OSM    H7T10578   0.389   3.101   9.937 -0.2485 -2.4121  1.4791
  104OSM    C8S10579   0.292   3.096   9.742  0.0284  0.9459  0.7174
  104OSM    H8S10580   0.401   3.099   9.722 -0.0670 -0.6839 -0.1442
  104OSM    H8T10581   0.248   3.196   9.761  0.9240  1.5284 -0.2172
  104OSM    C9S10582   0.215   3.005   9.646 -0.9212  0.4825  0.5385
  104OSM    H9S10583   0.112   2.986   9.683 -0.4369  0.6424  1.9838
  104OSM    H9T10584   0.265   2.910   9.617  0.5652  0.8661  1.7846
  104OSM   C10S10585   0.199   3.076   9.504 -0.1914  0.4702  1.0271
  104OSM   H10S10586   0.291   3.131   9.474 -1.1608  1.1278 -0.7833
  104OSM   H10T10587   0.120   3.153   9.513 -2.8527 -1.9839 -0.8208
  104OSM   C11S10588   0.142   2.977   9.401 -0.0453  0.8072 -1.1557
  104OSM   H11S10589   0.046   2.931   9.431  0.1620  1.3863  0.4254
  104OSM   H11T10590   0.205   2.886   9.395  1.1931  1.6809 -1.7023
  104OSM   C12S10591   0.123   3.024   9.256 -0.8348 -0.0707  0.4315
  104OSM   H12S10592   0.224   3.057   9.222 -1.6335  0.2783 -1.6756
  104OSM   H12T10593   0.058   3.113   9.248 -0.4014  0.3694  1.7365
  104OSM   C13S10594   0.046   2.935   9.156 -0.6354 -0.1624  0.2494
  104OSM   H13S10595  -0.062   2.942   9.181 -0.9811 -1.8075 -0.6310
  104OSM   H13T10596   0.084   2.831   9.163 -2.0221 -0.6909  0.1105
  104OSM   C14S10597   0.051   2.986   9.010  0.1213  0.1724 -0.2040
  104OSM   H14S10598   0.158   2.986   8.979  0.6465  0.3493  1.5541
  104OSM   H14T10599   0.018   3.092   9.011  0.4015  0.2509  0.4816
  104OSM   C15S10600  -0.024   2.900   8.907 -0.2200 -0.0801 -1.0712
  104OSM   H15S10601  -0.111   2.865   8.966  1.7142 -0.6454  1.5272
  104OSM   H15T10602   0.035   2.807   8.891 -2.5889 -2.3565  2.7846
  104OSM   C16S10603  -0.060   2.967   8.775  0.6239  0.1153 -0.1549
  104OSM   H16S10604  -0.092   2.886   8.705  1.7004 -0.7825  0.3795
  104OSM   H16T10605   0.025   3.020   8.727  2.6427 -0.3135  2.8146
  104OSM   C17S10606  -0.180   3.065   8.778 -0.2748  0.4774  0.9469
  104OSM   H17S10607  -0.218   3.066   8.674  2.0339 -2.1014  0.0100
  104OSM   H17T10608  -0.154   3.167   8.813  0.1694 -0.1913  2.5984
  104OSM   C18S10609  -0.304   3.028   8.858 -0.5423 -0.8369 -0.4198
  104OSM   H18S10610  -0.276   3.059   8.961 -1.0378  2.4850 -1.2200
  104OSM   H18T10611  -0.316   2.917   8.860  1.0753 -1.0680 -2.1939
  104OSM   H18U10612  -0.393   3.088   8.827 -0.5839  0.0506  1.3698
  104OSM    C1F10613   0.336   3.249  10.508 -0.0266  0.0851 -0.1620
  104OSM     OF10614   0.450   3.220  10.532 -0.0541 -0.1577 -0.1978
  104OSM    C2F10615   0.286   3.386  10.543  0.0721  0.7580  0.2149
  104OSM    H2F10616   0.259   3.398  10.650 -0.1537  0.8631  0.1455
  104OSM    H2G10617   0.195   3.400  10.481  1.1029  0.0989 -1.4858
  104OSM    C3F10618   0.386   3.504  10.509  0.6182 -0.2579 -0.3095
  104OSM    H3F10619   0.481   3.488  10.564  1.1720 -0.2128 -1.2343
  104OSM    H3G10620   0.343   3.605  10.525  0.8887 -0.5233  2.3674
  104OSM    C4F10621   0.431   3.503  10.357 -0.4280  0.4304  0.2182
  104OSM    H4F10622   0.507   3.426  10.332 -1.6353 -0.8711  0.5033
  104OSM    H4G10623   0.491   3.596  10.350 -1.2880  0.8860 -1.6128
  104OSM    C5F10624   0.316   3.503  10.253 -0.1787 -0.1842 -0.6903
  104OSM    H5F10625   0.237   3.576  10.282 -0.3482 -0.7153  0.2154
  104OSM    H5G10626   0.277   3.399  10.259 -3.4036  1.0603  2.0625
  104OSM    C6F10627   0.362   3.530  10.113 -0.8592  0.1602  0.4940
  104OSM    H6F10628   0.439   3.454  10.087 -0.4320  0.3598  1.1539
  104OSM    H6G10629   0.415   3.627  10.120  0.0148 -0.3264  0.7058
  104OSM    C7F10630   0.258   3.510  10.001 -0.5899  0.5031  0.5984
  104OSM    H7F10631   0.169   3.573  10.023  1.5765  4.3870 -1.2604
  104OSM    H7G10632   0.212   3.408   9.997 -0.7051  0.5966 -0.5496
  104OSM    C8F10633   0.315   3.534   9.855  0.8498 -0.5561  0.1343
  104OSM    H8F10634   0.383   3.448   9.837  1.1017 -0.4278  0.4562
  104OSM    H8G10635   0.380   3.625   9.860  0.8446 -0.5873  0.8521
  104OSM    C9F10636   0.197   3.557   9.757 -0.6657 -0.4529  0.0566
  104OSM    H9F10637   0.101   3.586   9.803  0.6297  1.7286  1.5078
  104OSM   C10F10638   0.214   3.566   9.628  0.1915  0.6671 -0.0997
  104OSM   H10F10639   0.122   3.589   9.573  0.0673  0.2639 -0.0611
  104OSM   C11F10640   0.345   3.547   9.551  0.9950  0.3632  0.6349
  104OSM   H11F10641   0.424   3.514   9.622 -0.9283 -1.1228  2.1387
  104OSM   H11G10642   0.379   3.647   9.517  0.3487  1.0555  1.9784
  104OSM   C12F10643   0.334   3.455   9.426 -0.4761  0.3034  0.2516
  104OSM   H12F10644   0.277   3.362   9.447  1.7351 -0.9495  0.8636
  104OSM   H12G10645   0.437   3.434   9.390  0.2384  2.9108  0.6835
  104OSM   C13F10646   0.258   3.527   9.316 -0.3362  0.0698  0.3382
  104OSM   H13F10647   0.315   3.616   9.283 -0.6669  0.7293  1.5013
  104OSM   H13G10648   0.160   3.558   9.359 -0.7558  1.3556 -1.5176
  104OSM   C14F10649   0.225   3.429   9.196  0.0916  0.7111 -0.0092
  104OSM   H14F10650   0.200   3.327   9.231 -1.1788  1.1779  0.4423
  104OSM   H14G10651   0.320   3.416   9.139  1.0027 -0.7128  1.7527
  104OSM   C15F10652   0.113   3.494   9.116  0.2571  0.4787 -0.2233
  104OSM   H15F10653   0.040   3.548   9.181 -0.0339  2.3048 -2.0301
  104OSM   H15G10654   0.049   3.421   9.063 -0.9121  1.4359 -0.1724
  104OSM   C16F10655   0.164   3.586   9.006 -0.2858  0.3492  0.3834
  104OSM   H16F10656   0.249   3.534   8.957  1.7625  2.9317  1.0802
  104OSM   H16G10657   0.200   3.682   9.048 -0.0733  0.2895  0.3349
  104OSM   C17F10658   0.056   3.626   8.906 -0.2795  0.0749  0.6184
  104OSM   H17F10659   0.019   3.536   8.853 -0.3253  0.1548  0.5142
  104OSM   H17G10660   0.108   3.693   8.835  0.0299 -0.1807  0.6014
  104OSM   C18F10661  -0.058   3.706   8.972  0.1099 -0.2177 -0.3929
  104OSM   H18F10662  -0.016   3.767   9.054  0.6821 -0.8702 -0.1947
  104OSM   H18G10663  -0.145   3.648   9.010 -1.0252  0.3759 -2.0380
  104OSM   H18H10664  -0.102   3.772   8.894 -0.6777  0.3802  0.5489
  105OSM      N10665   6.422   2.739  10.840  0.1939 -0.4021  0.5314
  105OSM    C1510666   6.407   2.858  10.746  0.7315 -0.5046  0.0680
  105OSM   H15A10667   6.353   2.825  10.659 -0.4505  1.2694  0.0914
  105OSM   H15B10668   6.501   2.893  10.705  0.9265 -0.9248  0.1516
  105OSM   H15C10669   6.354   2.940  10.791 -0.6524 -1.2255 -0.2370
  105OSM    C1410670   6.512   2.779  10.945  0.1386  0.8033  0.0413
  105OSM   H14A10671   6.520   2.712  11.029  0.4077  0.2797 -0.3956
  105OSM   H14B10672   6.486   2.867  11.002 -0.2725  0.1991  0.7957
  105OSM   H14C10673   6.616   2.789  10.918 -0.8413  1.3085 -3.7951
  105OSM    C1310674   6.292   2.705  10.899 -1.1098 -0.8543  0.6904
  105OSM   H13A10675   6.242   2.786  10.950 -3.5587 -2.6414  1.2415
  105OSM   H13B10676   6.301   2.619  10.964 -2.0200 -0.8966  0.7677
  105OSM   H13C10677   6.223   2.670  10.823  0.0471  0.5303 -1.0451
  105OSM    C1210678   6.473   2.620  10.762 -0.1042 -0.5278  0.5302
  105OSM   H12A10679   6.404   2.617  10.678 -1.1944 -2.8494  1.4732
  105OSM   H12B10680   6.456   2.526  10.812  0.7238 -0.8276  0.2601
  105OSM    C1110681   6.610   2.630  10.703  0.0541 -0.7016 -0.1573
  105OSM   H11A10682   6.641   2.729  10.664 -1.6851 -0.0078  0.2079
  105OSM   H11B10683   6.616   2.578  10.604  0.9799 -1.1990  0.1516
  105OSM      P10684   6.739   2.436  10.818  0.1033  0.4399 -0.1460
  105OSM    O1310685   6.864   2.419  10.898 -0.1926 -0.4524  0.1465
  105OSM    O1410686   6.612   2.374  10.866  0.1688 -0.1648  0.3488
  105OSM    O1110687   6.759   2.402  10.669  0.3318 -1.1967  0.2499
  105OSM    O1210688   6.708   2.591  10.802 -0.3254 -0.3897 -0.0357
  105OSM    C1S10689   6.872   2.469  10.603 -0.0140 -0.0147  0.0237
  105OSM    H1S10690   6.965   2.440  10.658 -0.4084  0.7077  1.0852
  105OSM    H1T10691   6.875   2.579  10.610 -0.2596  0.1376 -1.9864
  105OSM     NF10692   7.001   2.495  10.386  0.0963  0.1494 -0.0933
  105OSM    HNF10693   6.995   2.589  10.356 -1.1205  0.5684  1.3549
  105OSM    C2S10694   6.887   2.432  10.452 -0.1169  0.4701 -0.0611
  105OSM    H2S10695   6.895   2.322  10.447 -0.0039  0.4337  0.7917
  105OSM    C3S10696   6.745   2.460  10.382  0.1368  0.9326 -0.3350
  105OSM    H3S10697   6.716   2.562  10.412 -0.9067 -0.2745  3.0223
  105OSM     O310698   6.648   2.364  10.422  0.4265 -0.1884 -0.4133
  105OSM    HO310699   6.680   2.347  10.511  0.6070  0.5823 -0.3294
  105OSM    C4S10700   6.756   2.446  10.234  0.0237 -0.4100  0.7490
  105OSM    H4S10701   6.728   2.344  10.203  1.8922 -1.7762  3.3816
  105OSM    C5S10702   6.775   2.543  10.142  0.0663 -0.2901  0.4959
  105OSM    H5S10703   6.791   2.639  10.192  1.6016 -0.1599 -0.2038
  105OSM    C6S10704   6.779   2.548   9.992  0.7248 -0.2988 -0.7764
  105OSM    H6S10705   6.687   2.598   9.956  1.1920 -1.2543 -3.4105
  105OSM    H6T10706   6.781   2.443   9.955  1.9235 -1.9825  3.7152
  105OSM    C7S10707   6.893   2.642   9.953  0.0294  0.1697 -0.8445
  105OSM    H7S10708   6.989   2.590   9.974  0.6770  1.8161  0.4090
  105OSM    H7T10709   6.894   2.742  10.002  0.7757 -0.3024  0.1368
  105OSM    C8S10710   6.901   2.679   9.798  0.6517  0.4348 -0.4194
  105OSM    H8S10711   6.973   2.763   9.793  1.2622 -0.1611 -1.9003
  105OSM    H8T10712   6.802   2.705   9.754  1.2348 -2.2967 -3.5958
  105OSM    C9S10713   6.932   2.561   9.704 -0.3451  0.2007 -0.0070
  105OSM    H9S10714   6.852   2.485   9.717  0.6580 -1.0821 -1.0833
  105OSM    H9T10715   7.029   2.513   9.729 -0.4878 -0.5597 -0.8851
  105OSM   C10S10716   6.925   2.600   9.558  0.3472 -0.2148 -0.1381
  105OSM   H10S10717   7.023   2.610   9.507  0.4597  1.0960  0.3161
  105OSM   H10T10718   6.870   2.696   9.542  0.3703 -0.1670  0.0697
  105OSM   C11S10719   6.836   2.502   9.474  0.5800  0.3858 -0.9026
  105OSM   H11S10720   6.732   2.502   9.514  2.1039  0.8419  3.3189
  105OSM   H11T10721   6.871   2.397   9.482  1.4927  0.9573  4.4265
  105OSM   C12S10722   6.841   2.556   9.331  0.5329 -0.0649 -0.1518
  105OSM   H12S10723   6.946   2.540   9.298 -0.0809 -1.0162 -1.7048
  105OSM   H12T10724   6.813   2.663   9.341 -0.2251 -0.2955  0.2664
  105OSM   C13S10725   6.754   2.481   9.232  0.0312  0.3386 -0.3032
  105OSM   H13S10726   6.645   2.490   9.251  0.0335  0.2441 -0.2449
  105OSM   H13T10727   6.776   2.373   9.222  2.2684  0.6845  0.4497
  105OSM   C14S10728   6.784   2.554   9.087  0.0655 -0.0522 -0.6860
  105OSM   H14S10729   6.890   2.569   9.059 -0.3232 -0.5910 -2.4828
  105OSM   H14T10730   6.752   2.657   9.112  2.1119  0.8232 -1.5964
  105OSM   C15S10731   6.701   2.493   8.978  0.3928  0.6143  0.8580
  105OSM   H15S10732   6.598   2.477   9.018  1.0307  0.8663  2.6539
  105OSM   H15T10733   6.747   2.394   8.960 -2.2998 -0.8605  1.7295
  105OSM   C16S10734   6.700   2.569   8.847  0.0506 -0.1327  0.8230
  105OSM   H16S10735   6.805   2.602   8.832 -0.5108  0.6786 -1.4668
  105OSM   H16T10736   6.641   2.662   8.858 -0.9220 -0.8686  1.9332
  105OSM   C17S10737   6.642   2.492   8.730 -0.0261 -0.1490  0.6106
  105OSM   H17S10738   6.536   2.472   8.756  0.4608 -0.9710  1.9928
  105OSM   H17T10739   6.692   2.394   8.719  2.0927  0.8331  1.2507
  105OSM   C18S10740   6.657   2.563   8.597 -0.7503 -0.4746  0.0293
  105OSM   H18S10741   6.764   2.558   8.570 -0.7508  0.3531 -0.1416
  105OSM   H18T10742   6.624   2.670   8.602 -1.1090 -0.5051 -1.3957
  105OSM   H18U10743   6.599   2.513   8.517 -1.7064  0.6321  0.0051
  105OSM    C1F10744   7.119   2.443  10.408  0.7744  0.4996  0.2561
  105OSM     OF10745   7.129   2.343  10.483 -0.2165 -0.2801  0.4123
  105OSM    C2F10746   7.237   2.516  10.359 -0.7582 -0.0092 -0.3957
  105OSM    H2F10747   7.324   2.449  10.375 -1.5307 -0.5876  1.4172
  105OSM    H2G10748   7.250   2.609  10.418  0.3488 -1.3495  1.4944
  105OSM    C3F10749   7.249   2.549  10.209 -0.1139 -0.4025 -0.5468
  105OSM    H3F10750   7.161   2.610  10.179  1.9243  1.8073 -2.2761
  105OSM    H3G10751   7.247   2.448  10.162  1.7435 -0.7919  0.1567
  105OSM    C4F10752   7.356   2.644  10.168 -0.1743  0.2496 -0.8185
  105OSM    H4F10753   7.452   2.635  10.224 -0.1360 -0.6681 -1.0154
  105OSM    H4G10754   7.335   2.752  10.185 -0.7317 -0.3556  2.8230
  105OSM    C5F10755   7.399   2.627  10.018  0.3406 -0.0083  0.0059
  105OSM    H5F10756   7.415   2.520   9.994  2.5316  0.4340 -0.6145
  105OSM    H5G10757   7.499   2.676  10.008 -0.7768  1.9462 -1.8341
  105OSM    C6F10758   7.309   2.689   9.905  0.4259  0.1057 -0.1683
  105OSM    H6F10759   7.281   2.794   9.929 -2.5121 -0.0359 -2.6647
  105OSM    H6G10760   7.211   2.637   9.902  0.1581  0.6627 -3.5752
  105OSM    C7F10761   7.375   2.684   9.767 -0.3306  0.1500 -0.0017
  105OSM    H7F10762   7.351   2.586   9.719  3.3371 -0.1472 -1.4040
  105OSM    H7G10763   7.484   2.694   9.783 -0.2314  0.4142 -0.8534
  105OSM    C8F10764   7.325   2.796   9.670 -0.4245  0.2788  0.1089
  105OSM    H8F10765   7.316   2.893   9.725 -2.7908  1.3361 -2.0183
  105OSM    H8G10766   7.223   2.777   9.631 -0.1974  1.5475 -1.1706
  105OSM    C9F10767   7.426   2.799   9.558  0.9836 -0.1252  0.0715
  105OSM    H9F10768   7.528   2.833   9.578  0.5775  0.6717  0.8400
  105OSM   C10F10769   7.417   2.763   9.431 -0.3699  0.1063  0.3929
  105OSM   H10F10770   7.514   2.766   9.380  0.3917 -5.0883  1.2427
  105OSM   C11F10771   7.289   2.712   9.361 -0.1812  0.6521 -0.0601
  105OSM   H11F10772   7.209   2.709   9.437 -0.8499 -1.4578 -0.8065
  105OSM   H11G10773   7.300   2.606   9.327  0.5174  0.6319  0.2021
  105OSM   C12F10774   7.239   2.786   9.233 -0.7571  0.5994 -0.5331
  105OSM   H12F10775   7.220   2.892   9.259 -0.3813  0.3909  0.6190
  105OSM   H12G10776   7.137   2.743   9.223 -1.4576  1.9929  0.5200
  105OSM   C13F10777   7.325   2.749   9.111  1.0630 -0.0120 -0.7247
  105OSM   H13F10778   7.338   2.639   9.104 -1.7018 -0.3615 -0.7607
  105OSM   H13G10779   7.428   2.787   9.130  0.9051 -0.6413  1.5475
  105OSM   C14F10780   7.267   2.809   8.987  0.3793 -0.3140  0.6181
  105OSM   H14F10781   7.345   2.818   8.908 -0.2080 -2.9568 -0.3272
  105OSM   H14G10782   7.230   2.912   9.008  1.0596  0.1173 -0.2591
  105OSM   C15F10783   7.144   2.739   8.916 -0.2032 -0.5912  0.6937
  105OSM   H15F10784   7.058   2.755   8.985  1.6653  1.6993  2.6178
  105OSM   H15G10785   7.163   2.630   8.915  2.2982 -0.2055  2.2159
  105OSM   C16F10786   7.102   2.789   8.772  0.5212  0.0707  1.0695
  105OSM   H16F10787   7.093   2.898   8.791 -1.5780 -0.0576  0.8971
  105OSM   H16G10788   7.007   2.748   8.732  1.3713  0.5911 -1.6332
  105OSM   C17F10789   7.212   2.771   8.662  0.3235 -0.1311  0.1445
  105OSM   H17F10790   7.241   2.664   8.655 -0.0365 -0.0963 -2.1065
  105OSM   H17G10791   7.298   2.834   8.694  0.4558 -0.2322 -0.0127
  105OSM   C18F10792   7.164   2.808   8.525 -0.2554 -0.5938  0.3179
  105OSM   H18F10793   7.231   2.799   8.437 -0.1705  0.6366  0.2514
  105OSM   H18G10794   7.118   2.909   8.529 -0.0836 -0.4765 -0.6292
  105OSM   H18H10795   7.082   2.737   8.501 -0.4259 -0.5921  0.8943
  106OSM      N10796   1.136   1.401  10.956 -0.4379 -0.0649 -0.8190
  106OSM    C1510797   1.043   1.496  10.902  1.1309 -0.4763 -0.4310
  106OSM   H15A10798   0.974   1.529  10.978  3.1133  0.5736  0.9534
  106OSM   H15B10799   0.981   1.446  10.829  1.0939  0.7915 -1.2746
  106OSM   H15C10800   1.080   1.583  10.851 -1.6393 -0.0710 -1.8411
  106OSM    C1410801   1.233   1.483  11.040 -0.2391  0.1720  0.0313
  106OSM   H14A10802   1.301   1.410  11.080  0.0948  0.4692  0.0047
  106OSM   H14B10803   1.176   1.538  11.113  1.5624  1.4159  0.5194
  106OSM   H14C10804   1.275   1.564  10.983 -0.1930  0.2340  0.1556
  106OSM    C1310805   1.062   1.302  11.038  0.2192  0.7182 -0.1073
  106OSM   H13A10806   1.008   1.340  11.123  0.2837  2.3603 -0.7746
  106OSM   H13B10807   1.128   1.222  11.070 -0.6770 -0.8109 -1.9662
  106OSM   H13C10808   0.990   1.266  10.965  0.4804  1.8035 -0.9203
  106OSM    C1210809   1.215   1.320  10.854  0.4632 -0.3729  0.1838
  106OSM   H12A10810   1.271   1.251  10.916 -0.0801 -0.7488  0.2518
  106OSM   H12B10811   1.287   1.374  10.795  1.1589 -2.2952 -0.7597
  106OSM    C1110812   1.145   1.233  10.749  0.4064 -0.2446 -0.1348
  106OSM   H11A10813   1.219   1.201  10.673  2.3188  3.0565  0.2567
  106OSM   H11B10814   1.082   1.299  10.686  2.0169  1.2488 -0.2058
  106OSM      P10815   1.132   0.979  10.819  0.0954  0.0042  0.6900
  106OSM    O1310816   1.269   0.994  10.874  0.2493 -0.0193  0.7044
  106OSM    O1410817   1.042   0.885  10.877  0.4218  0.0408 -0.3000
  106OSM    O1110818   1.141   0.931  10.672 -0.2698 -0.0566  0.2618
  106OSM    O1210819   1.065   1.124  10.805 -0.4586  0.0859  0.0603
  106OSM    C1S10820   1.040   0.972  10.575 -0.1909 -0.4024 -1.2459
  106OSM    H1S10821   1.072   1.065  10.522 -0.8155  0.0448 -0.8534
  106OSM    H1T10822   0.936   0.988  10.611 -0.4375 -0.5448 -1.8985
  106OSM     NF10823   0.957   0.924  10.356  0.1860  0.9541 -0.0013
  106OSM    HNF10824   0.859   0.907  10.359  0.0519  1.2087 -2.2524
  106OSM    C2S10825   1.039   0.866  10.457  0.0930 -0.6480  0.0873
  106OSM    H2S10826   1.141   0.855  10.414  0.3532 -1.1141  0.8261
  106OSM    C3S10827   0.992   0.724  10.504  0.3265 -0.4623  0.3607
  106OSM    H3S10828   0.895   0.737  10.556  0.0623 -1.3848  0.1113
  106OSM     O310829   1.088   0.656  10.583  0.0436 -0.1464  0.0231
  106OSM    HO310830   1.145   0.724  10.621 -0.0913 -1.1399  2.1046
  106OSM    C4S10831   0.960   0.645  10.373 -0.9916 -0.3328 -0.4085
  106OSM    H4S10832   0.853   0.651  10.347 -1.0589 -0.0698 -0.0808
  106OSM    C5S10833   1.038   0.581  10.298 -0.6948 -0.1306  0.4503
  106OSM    H5S10834   1.147   0.586  10.315 -0.9313 -0.3693  2.1514
  106OSM    C6S10835   0.990   0.499  10.173 -0.5390 -0.2718  0.3352
  106OSM    H6S10836   1.037   0.541  10.082 -2.0631 -0.7023 -0.6798
  106OSM    H6T10837   0.884   0.520  10.147  0.0130  0.3757 -1.5152
  106OSM    C7S10838   1.020   0.349  10.175  0.5637  0.6655  0.3763
  106OSM    H7S10839   0.954   0.297  10.248  2.5872 -2.3673  0.1374
  106OSM    H7T10840   1.127   0.333  10.199  0.4496 -0.6137  0.0377
  106OSM    C8S10841   0.995   0.291  10.034 -0.0463 -0.0422 -0.2637
  106OSM    H8S10842   1.070   0.339   9.968 -0.8741  1.1494 -0.3528
  106OSM    H8T10843   0.895   0.323   9.998  0.3060  2.6032  1.0255
  106OSM    C9S10844   1.009   0.138  10.027  0.7817  0.0900  0.5518
  106OSM    H9S10845   0.946   0.084  10.101 -1.3905 -0.2895 -1.5006
  106OSM    H9T10846   1.112   0.107  10.055  0.9390  0.8704  0.8398
  106OSM   C10S10847   0.984   0.088   9.881  0.8877 -0.3328  0.8294
  106OSM   H10S10848   1.008  -0.020   9.878 -1.0708 -0.7703 -0.5611
  106OSM   H10T10849   1.057   0.142   9.818 -0.7692 -0.8969 -1.6364
  106OSM   C11S10850   0.833   0.091   9.839  0.5335  0.1118  0.3266
  106OSM   H11S10851   0.778   0.170   9.895  3.0232  1.2006  1.3011
  106OSM   H11T10852   0.789  -0.008   9.861 -0.4525  1.2151  3.6434
  106OSM   C12S10853   0.811   0.123   9.689 -0.5022  0.5075 -0.1882
  106OSM   H12S10854   0.873   0.211   9.659 -2.2635  2.5010  1.8844
  106OSM   H12T10855   0.701   0.137   9.680 -0.6562  0.6760  1.8595
  106OSM   C13S10856   0.860   0.013   9.595 -0.6349 -0.0627  0.0683
  106OSM   H13S10857   0.802  -0.078   9.621 -2.7529  1.0120 -0.8034
  106OSM   H13T10858   0.966  -0.011   9.619 -0.6314 -0.7315 -0.5737
  106OSM   C14S10859   0.839   0.050   9.446 -0.5336  0.1214  0.0198
  106OSM   H14S10860   0.865   0.157   9.435 -0.5364 -0.0428 -1.7701
  106OSM   H14T10861   0.734   0.029   9.419 -0.3226  1.4725 -2.0043
  106OSM   C15S10862   0.923  -0.032   9.337 -0.4013  0.7794 -0.7514
  106OSM   H15S10863   0.858  -0.033   9.247 -0.7022 -1.0887 -0.5419
  106OSM   H15T10864   0.920  -0.140   9.364  0.4896  1.0704  0.5791
  106OSM   C16S10865   1.069   0.015   9.301 -0.0013  0.4421  0.4339
  106OSM   H16S10866   1.114   0.024   9.402  1.6183 -1.3622 -0.1082
  106OSM   H16T10867   1.059   0.123   9.276 -1.5429  0.8110  2.4910
  106OSM   C17S10868   1.140  -0.077   9.204  0.3645  0.6228 -1.0502
  106OSM   H17S10869   1.151  -0.181   9.240  1.1708  1.2825  0.6438
  106OSM   H17T10870   1.244  -0.040   9.194  0.5846  0.4330  0.4804
  106OSM   C18S10871   1.077  -0.079   9.068 -0.5928  0.1177  0.2237
  106OSM   H18S10872   1.149  -0.140   9.009 -1.6383  1.1552 -2.1822
  106OSM   H18T10873   1.077   0.023   9.024  0.9428  0.5912  1.2612
  106OSM   H18U10874   0.974  -0.117   9.056 -0.4103 -0.9627  1.9151
  106OSM    C1F10875   1.003   1.001  10.254  0.1050  0.2414 -0.0055
  106OSM     OF10876   1.107   1.064  10.263 -0.8430  0.2815 -0.1909
  106OSM    C2F10877   0.910   1.012  10.130 -0.2766  0.2703 -0.0956
  106OSM    H2F10878   0.836   1.092  10.149  1.0723  1.3194  0.8603
  106OSM    H2G10879   0.851   0.918  10.126 -0.9902  0.6907  0.4025
  106OSM    C3F10880   0.981   1.039  10.001  0.5290  0.0881  0.4225
  106OSM    H3F10881   1.026   0.947   9.958 -0.4471 -0.8429  1.3364
  106OSM    H3G10882   1.061   1.114  10.015 -0.5450  1.1402  1.0486
  106OSM    C4F10883   0.888   1.086   9.888  0.4028  0.2702 -0.2111
  106OSM    H4F10884   0.942   1.122   9.798 -2.6048  0.5203 -2.0032
  106OSM    H4G10885   0.825   1.170   9.926  0.8323 -0.0468  1.2166
  106OSM    C5F10886   0.793   0.982   9.828  0.7986  0.0145 -0.3506
  106OSM    H5F10887   0.743   0.929   9.913 -1.1598  1.2755 -0.6754
  106OSM    H5G10888   0.857   0.910   9.773  0.2344 -1.3425  0.7312
  106OSM    C6F10889   0.670   1.038   9.741 -0.4964 -0.8606 -0.0934
  106OSM    H6F10890   0.711   1.068   9.642 -1.8211  1.4892  0.0350
  106OSM    H6G10891   0.620   1.124   9.790  0.5894 -0.7721  0.8832
  106OSM    C7F10892   0.555   0.934   9.717  0.0625  0.5233 -0.3866
  106OSM    H7F10893   0.479   0.990   9.659 -0.5821 -0.7276 -0.7762
  106OSM    H7G10894   0.520   0.902   9.818 -0.9225 -2.0162 -1.4689
  106OSM    C8F10895   0.596   0.802   9.642 -0.4605  0.1004 -0.1459
  106OSM    H8F10896   0.655   0.734   9.707 -1.1443 -1.0486 -0.7070
  106OSM    H8G10897   0.641   0.840   9.548 -0.5038 -0.0007 -0.2074
  106OSM    C9F10898   0.470   0.740   9.596  0.6189 -0.2620 -0.6855
  106OSM    H9F10899   0.396   0.734   9.677  2.5562 -1.3958  1.0527
  106OSM   C10F10900   0.423   0.711   9.474  0.1990  0.3491 -0.5188
  106OSM   H10F10901   0.328   0.658   9.482 -0.3168  1.3622  0.1101
  106OSM   C11F10902   0.484   0.725   9.335  0.3758  0.2673 -0.0135
  106OSM   H11F10903   0.441   0.649   9.267 -0.4201  1.1050 -0.4576
  106OSM   H11G10904   0.592   0.701   9.343  0.3734  0.3623  0.3318
  106OSM   C12F10905   0.491   0.866   9.278  0.6584 -0.4890  0.6237
  106OSM   H12F10906   0.527   0.946   9.346  0.8113 -0.1375  0.1372
  106OSM   H12G10907   0.386   0.897   9.257  1.5568  0.5743 -2.6656
  106OSM   C13F10908   0.576   0.859   9.154 -0.5073  0.4577  0.5370
  106OSM   H13F10909   0.558   0.771   9.088  2.4583 -0.6831  1.1459
  106OSM   H13G10910   0.680   0.840   9.188  0.2996  2.4802 -0.6866
  106OSM   C14F10911   0.585   0.989   9.072 -0.7724 -0.1976 -0.1154
  106OSM   H14F10912   0.601   1.071   9.144  0.5326 -1.5562  1.1718
  106OSM   H14G10913   0.486   1.003   9.022 -0.6025 -1.8176 -0.9404
  106OSM   C15F10914   0.701   1.000   8.970 -0.2154  0.4937  0.7036
  106OSM   H15F10915   0.686   0.940   8.877 -1.4377  0.6383  0.8095
  106OSM   H15G10916   0.791   0.951   9.013 -0.3616  0.6802  1.2216
  106OSM   C16F10917   0.737   1.145   8.938 -0.2053 -0.1824  0.0509
  106OSM   H16F10918   0.749   1.204   9.031  1.5647  1.4127 -1.1421
  106OSM   H16G10919   0.648   1.184   8.885 -0.8326  0.4552  1.5552
  106OSM   C17F10920   0.856   1.175   8.843  0.4178 -0.7917  0.2030
  106OSM   H17F10921   0.846   1.110   8.753  0.4818 -0.7794  0.1863
  106OSM   H17G10922   0.953   1.129   8.873  0.0591 -4.3057 -3.6067
  106OSM   C18F10923   0.861   1.317   8.781  0.3310  0.3931  0.0066
  106OSM   H18F10924   0.945   1.316   8.708 -0.7614 -3.3232 -1.3202
  106OSM   H18G10925   0.881   1.387   8.865 -0.4768  0.2301  0.3382
  106OSM   H18H10926   0.768   1.339   8.725 -0.0121  0.3072  0.5388
  107OSM      N10927   0.909   5.552  10.764 -0.2843 -0.3794 -0.2396
  107OSM    C1510928   0.774   5.560  10.696 -0.2959 -0.5255  0.3530
  107OSM   H15A10929   0.708   5.477  10.717 -0.3091 -0.2734  1.3102
  107OSM   H15B10930   0.794   5.556  10.590  2.2320 -2.5232  0.8617
  107OSM   H15C10931   0.724   5.651  10.724 -1.6916 -0.5454 -1.9115
  107OSM    C1410932   0.882   5.533  10.908 -0.2208 -0.0072  0.1488
  107OSM   H14A10933   0.842   5.435  10.930 -0.4142  0.0466  0.0322
  107OSM   H14B10934   0.808   5.605  10.938 -0.2326 -0.1682  0.5095
  107OSM   H14C10935   0.971   5.549  10.966 -0.7246 -0.4165  1.0434
  107OSM    C1310936   0.985   5.438  10.707 -0.0378 -0.3898  0.3969
  107OSM   H13A10937   1.082   5.423  10.751  0.8204  0.1765 -1.2440
  107OSM   H13B10938   0.998   5.459  10.602 -2.7505 -1.2341 -0.1385
  107OSM   H13C10939   0.921   5.351  10.716  0.6350 -1.1515 -1.7130
  107OSM    C1210940   0.984   5.683  10.751 -0.6042  0.1519  0.5685
  107OSM   H12A10941   0.942   5.761  10.813 -2.3236 -1.2787  1.2150
  107OSM   H12B10942   0.969   5.726  10.654 -0.4714  1.1293  0.9730
  107OSM    C1110943   1.136   5.683  10.771  0.0545 -0.3093  0.2846
  107OSM   H11A10944   1.175   5.786  10.762  1.0126 -0.5288  1.7726
  107OSM   H11B10945   1.181   5.637  10.680  1.1653  2.2362 -0.4749
  107OSM      P10946   1.282   5.513  10.902  0.0957 -0.1490  0.2552
  107OSM    O1310947   1.357   5.510  11.032 -0.5080 -0.5522  0.5477
  107OSM    O1410948   1.220   5.389  10.858 -0.2172 -0.0471 -0.3599
  107OSM    O1110949   1.380   5.568  10.786  0.7399  0.0644  0.2131
  107OSM    O1210950   1.170   5.626  10.894 -0.0001 -0.4815  0.2028
  107OSM    C1S10951   1.488   5.496  10.734  0.9947  0.0610 -0.2831
  107OSM    H1S10952   1.460   5.388  10.732  0.6051 -0.1355  6.3172
  107OSM    H1T10953   1.573   5.510  10.803 -0.2281  0.2799  1.2066
  107OSM     NF10954   1.645   5.466  10.527  0.0298  0.2583  0.0843
  107OSM    HNF10955   1.730   5.515  10.510 -0.5328  0.9623 -0.7511
  107OSM    C2S10956   1.533   5.543  10.587 -0.4685 -0.1066  0.3010
  107OSM    H2S10957   1.454   5.526  10.511  0.6061 -1.5736 -0.5182
  107OSM    C3S10958   1.566   5.691  10.582  0.4455  0.1120 -0.0097
  107OSM    H3S10959   1.636   5.729  10.659 -0.6127  1.4977  0.2929
  107OSM     O310960   1.443   5.756  10.625  0.4314 -0.1259 -0.3644
  107OSM    HO310961   1.407   5.688  10.682 -0.5644  0.3923 -0.3668
  107OSM    C4S10962   1.608   5.737  10.447  0.2646 -0.2323 -0.2915
  107OSM    H4S10963   1.553   5.691  10.364 -1.4854  1.7593 -0.2629
  107OSM    C5S10964   1.708   5.821  10.416  0.2294  0.5783  0.1073
  107OSM    H5S10965   1.762   5.871  10.498  0.4580  0.5278 -0.0127
  107OSM    C6S10966   1.749   5.860  10.277 -0.5566  0.7380  0.4744
  107OSM    H6S10967   1.857   5.885  10.274 -0.0466 -1.4343 -1.2388
  107OSM    H6T10968   1.688   5.950  10.254  1.0113  0.8212 -3.7713
  107OSM    C7S10969   1.712   5.766  10.162  0.1465  0.1718 -0.1782
  107OSM    H7S10970   1.605   5.776  10.133  0.1962  0.9402 -0.1173
  107OSM    H7T10971   1.748   5.664  10.187  1.1869  0.8250  1.0871
  107OSM    C8S10972   1.801   5.801  10.034 -0.6397  0.2964 -0.2143
  107OSM    H8S10973   1.797   5.711   9.969 -1.3355 -1.2377  1.9079
  107OSM    H8T10974   1.908   5.815  10.060 -1.3486  2.1198  1.8506
  107OSM    C9S10975   1.748   5.920   9.960  0.2463 -0.1919  1.0199
  107OSM    H9S10976   1.756   6.007  10.028 -0.2228  1.0915 -0.5205
  107OSM    H9T10977   1.644   5.904   9.924  0.5074 -1.5998  0.8633
  107OSM   C10S10978   1.827   5.957   9.834 -0.4187 -0.0473 -0.1063
  107OSM   H10S10979   1.924   5.994   9.874  0.0549 -1.5036  0.1598
  107OSM   H10T10980   1.765   6.025   9.773  2.0638  0.6742 -1.9023
  107OSM   C11S10981   1.868   5.841   9.744 -0.4265  0.1666 -0.1406
  107OSM   H11S10982   1.784   5.777   9.710 -2.6566  2.7673  0.3379
  107OSM   H11T10983   1.938   5.772   9.796 -1.4827 -0.0085  1.0754
  107OSM   C12S10984   1.945   5.881   9.620 -0.0368 -0.2826  0.1738
  107OSM   H12S10985   2.039   5.935   9.644 -0.5392  0.2574  0.9710
  107OSM   H12T10986   1.882   5.960   9.573  0.4147  2.2607  3.6149
  107OSM   C13S10987   1.954   5.772   9.514  0.4129 -0.0101 -0.3159
  107OSM   H13S10988   1.852   5.745   9.481  0.3989 -1.7937  1.1395
  107OSM   H13T10989   1.998   5.677   9.551 -0.5373 -0.2444  0.2341
  107OSM   C14S10990   2.037   5.816   9.391 -0.5148 -0.5655 -0.1989
  107OSM   H14S10991   2.130   5.868   9.422 -2.6513  2.0362  2.0795
  107OSM   H14T10992   1.983   5.892   9.330  2.1438  1.8665  0.3772
  107OSM   C15S10993   2.060   5.705   9.286 -0.6028 -0.1538 -0.1247
  107OSM   H15S10994   2.138   5.633   9.318 -1.2843 -0.1796  1.4984
  107OSM   H15T10995   2.102   5.757   9.198 -0.4124  0.7831  0.5186
  107OSM   C16S10996   1.934   5.636   9.234  0.2695  0.0470  0.2082
  107OSM   H16S10997   1.854   5.713   9.233 -1.4551 -1.6894 -0.3011
  107OSM   H16T10998   1.901   5.562   9.311  1.0133 -0.7626 -0.2367
  107OSM   C17S10999   1.956   5.572   9.093  0.0232  0.5673  0.1656
  107OSM   H17S11000   2.039   5.499   9.103 -0.9218 -0.5988 -0.4428
  107OSM   H17T11001   1.993   5.656   9.029  0.2658 -0.0025 -0.4539
  107OSM   C18S11002   1.844   5.495   9.036  0.6798 -0.4768 -0.5791
  107OSM   H18S11003   1.789   5.430   9.107  1.2137  0.5299  0.7666
  107OSM   H18T11004   1.886   5.439   8.949  0.4433 -0.9741 -0.3742
  107OSM   H18U11005   1.768   5.568   9.000  0.6036 -0.5181 -0.5015
  107OSM    C1F11006   1.643   5.333  10.509  0.5162  0.5189  0.1749
  107OSM     OF11007   1.546   5.265  10.554  0.2340 -0.0939  0.1921
  107OSM    C2F11008   1.764   5.265  10.460 -0.0369 -0.1527 -0.3494
  107OSM    H2F11009   1.767   5.174  10.523  0.0534  1.7585  2.4958
  107OSM    H2G11010   1.856   5.326  10.473 -2.0451  3.4614 -2.1708
  107OSM    C3F11011   1.755   5.219  10.308 -0.1233  0.2870  0.0038
  107OSM    H3F11012   1.670   5.148  10.302 -1.7960  2.1211  1.1291
  107OSM    H3G11013   1.854   5.169  10.301 -0.2239 -0.2744  2.1218
  107OSM    C4F11014   1.748   5.325  10.202  0.0136 -0.5394  0.1872
  107OSM    H4F11015   1.732   5.423  10.253 -1.0178 -0.6575  0.1131
  107OSM    H4G11016   1.660   5.313  10.135 -0.1552 -0.6056  0.4173
  107OSM    C5F11017   1.873   5.327  10.113  0.1433  0.2821 -1.0181
  107OSM    H5F11018   1.878   5.227  10.066 -1.9023  0.5054 -1.7577
  107OSM    H5G11019   1.962   5.354  10.173 -0.2123 -0.9749  0.0965
  107OSM    C6F11020   1.865   5.423   9.994  0.1608 -0.3430 -0.5290
  107OSM    H6F11021   1.839   5.527  10.027  0.0143 -1.5008  3.2989
  107OSM    H6G11022   1.781   5.391   9.929 -0.1003  0.5035 -0.6192
  107OSM    C7F11023   1.983   5.424   9.907 -0.1255  0.8909  0.7674
  107OSM    H7F11024   2.065   5.360   9.944 -1.1411 -1.3265 -0.7095
  107OSM    H7G11025   2.020   5.527   9.885 -0.6026  1.1011  0.9475
  107OSM    C8F11026   1.950   5.375   9.764  0.3240  0.0197  0.1330
  107OSM    H8F11027   1.879   5.446   9.716 -0.8062 -0.0976  1.5998
  107OSM    H8G11028   1.898   5.279   9.780  1.5769 -0.5458  0.9103
  107OSM    C9F11029   2.073   5.373   9.670 -0.6740  0.2464  0.1734
  107OSM    H9F11030   2.141   5.459   9.679 -1.5603  0.8875  0.8908
  107OSM   C10F11031   2.111   5.266   9.592 -0.3527  0.1688  0.1673
  107OSM   H10F11032   2.204   5.276   9.536 -1.2400 -1.9606 -1.7609
  107OSM   C11F11033   2.031   5.131   9.566  0.0627 -0.7370  0.5953
  107OSM   H11F11034   1.949   5.134   9.641  1.1125  2.1036  1.7043
  107OSM   H11G11035   2.094   5.039   9.572  3.2577  1.3761  0.9814
  107OSM   C12F11036   1.962   5.134   9.433 -0.5222 -0.0598  0.3850
  107OSM   H12F11037   1.899   5.225   9.430 -0.1238  0.2245  0.5946
  107OSM   H12G11038   1.894   5.046   9.422  0.6229 -1.0884  1.3700
  107OSM   C13F11039   2.059   5.131   9.312  0.6207 -0.0924  0.0484
  107OSM   H13F11040   2.107   5.031   9.316 -2.6600 -1.8844 -2.5355
  107OSM   H13G11041   2.141   5.204   9.326 -1.4402  2.3409 -0.1007
  107OSM   C14F11042   1.982   5.150   9.181 -0.3479 -0.1071 -0.1925
  107OSM   H14F11043   1.960   5.259   9.172 -0.3963 -0.2217 -1.4879
  107OSM   H14G11044   1.885   5.096   9.179  1.2608 -3.0725 -0.4863
  107OSM   C15F11045   2.069   5.099   9.055 -0.2709 -0.3104  0.5654
  107OSM   H15F11046   2.172   5.138   9.064 -0.4677  0.0686  1.1966
  107OSM   H15G11047   2.013   5.151   8.974 -1.0271  2.1822  2.6178
  107OSM   C16F11048   2.058   4.948   9.024  0.1923  0.4556 -0.2546
  107OSM   H16F11049   1.949   4.931   9.036  0.2908  1.1518  1.7581
  107OSM   H16G11050   2.116   4.890   9.099 -1.1185  0.2074  0.5823
  107OSM   C17F11051   2.116   4.906   8.886 -0.2139  0.4758 -0.2582
  107OSM   H17F11052   2.090   4.980   8.807 -1.7226  1.3948  1.0720
  107OSM   H17G11053   2.067   4.809   8.863  0.8724 -0.6828  2.1793
  107OSM   C18F11054   2.267   4.900   8.900 -0.4482 -0.4345 -0.5508
  107OSM   H18F11055   2.288   4.827   8.981  3.0500  0.8314 -0.2253
  107OSM   H18G11056   2.320   4.988   8.942 -2.8220 -0.2482  2.1100
  107OSM   H18H11057   2.320   4.853   8.814  2.7668  0.0999  1.0653
  108OSM      N11058   5.582   3.145  11.116 -0.1236  0.2038  0.1818
  108OSM    C1511059   5.440   3.196  11.093 -0.2905 -1.2117  0.3072
  108OSM   H15A11060   5.387   3.168  11.183  1.3979 -1.1410  1.3409
  108OSM   H15B11061   5.398   3.164  10.999 -1.1004 -3.3656  1.3591
  108OSM   H15C11062   5.433   3.303  11.088 -3.9896 -1.4556 -1.3653
  108OSM    C1411063   5.614   3.148  11.259  0.4321 -0.4556  1.0379
  108OSM   H14A11064   5.567   3.065  11.309  0.7867 -0.6513  1.0521
  108OSM   H14B11065   5.588   3.248  11.289  0.4147 -0.2200  0.2356
  108OSM   H14C11066   5.722   3.146  11.266  0.5554 -2.5431 -1.0232
  108OSM    C1311067   5.596   3.004  11.065 -0.2600  0.6464 -0.1818
  108OSM   H13A11068   5.696   2.965  11.077  0.6749  3.4000  1.5497
  108OSM   H13B11069   5.585   3.007  10.958  0.2235 -1.1343 -0.2966
  108OSM   H13C11070   5.530   2.940  11.121 -0.3823  1.7775  0.9872
  108OSM    C1211071   5.673   3.237  11.042  0.5579  0.0975  0.7215
  108OSM   H12A11072   5.647   3.340  11.062 -1.3573 -0.3521  0.5981
  108OSM   H12B11073   5.649   3.212  10.940 -0.3220 -0.8202  1.1456
  108OSM    C1111074   5.830   3.218  11.048  0.0318  0.3942 -0.3350
  108OSM   H11A11075   5.863   3.244  11.151  0.2060  0.3502 -0.3804
  108OSM   H11B11076   5.882   3.288  10.979  1.1950  0.6590  0.7789
  108OSM      P11077   5.992   3.025  11.069 -0.1191  0.1257  0.0806
  108OSM    O1311078   6.112   3.088  11.020 -0.6092 -0.3073  0.4874
  108OSM    O1411079   5.972   3.026  11.218 -0.3219 -0.1779  0.3642
  108OSM    O1111080   5.986   2.874  11.029  0.1049  0.3188  0.5947
  108OSM    O1211081   5.862   3.085  11.004  0.1910  0.3392 -0.2198
  108OSM    C1S11082   5.934   2.839  10.906  0.7193 -0.1677 -0.1417
  108OSM    H1S11083   6.009   2.864  10.827  0.6186  0.9297  0.1016
  108OSM    H1T11084   5.838   2.884  10.873  0.3607 -2.1676 -1.8974
  108OSM     NF11085   5.877   2.637  10.777 -0.2566 -0.4748 -0.4220
  108OSM    HNF11086   5.783   2.608  10.765  0.0543 -1.6987 -0.0105
  108OSM    C2S11087   5.913   2.687  10.911  0.0846  0.3138 -0.0664
  108OSM    H2S11088   6.009   2.638  10.937 -0.2174 -2.7215 -4.3179
  108OSM    C3S11089   5.803   2.661  11.025  0.0560 -0.7125 -0.1461
  108OSM    H3S11090   5.713   2.718  10.993 -0.0088 -1.6647 -1.7333
  108OSM     O311091   5.837   2.697  11.158 -0.3014 -0.6269 -0.7943
  108OSM    HO311092   5.903   2.763  11.137  1.6075 -1.6267  1.8398
  108OSM    C4S11093   5.767   2.515  11.029 -0.1294 -0.0189 -0.0476
  108OSM    H4S11094   5.848   2.451  11.067 -0.0892 -0.3523 -0.6780
  108OSM    C5S11095   5.654   2.460  10.996  0.3963 -0.1438  0.6719
  108OSM    H5S11096   5.567   2.524  10.973 -0.8874 -2.4465 -1.1449
  108OSM    C6S11097   5.622   2.317  11.001  0.2653 -0.1514 -0.3019
  108OSM    H6S11098   5.515   2.310  10.974  0.2430 -0.2799 -0.1784
  108OSM    H6T11099   5.632   2.278  11.104 -1.6656  1.2303  0.4386
  108OSM    C7S11100   5.710   2.227  10.903  0.3146  0.1424  0.6190
  108OSM    H7S11101   5.676   2.121  10.909  2.6262 -0.6754 -0.2871
  108OSM    H7T11102   5.812   2.236  10.947  1.8140 -2.1254 -2.1798
  108OSM    C8S11103   5.713   2.282  10.765  0.2457  0.0848 -0.3741
  108OSM    H8S11104   5.773   2.375  10.765  0.5583 -0.1121 -0.8284
  108OSM    H8T11105   5.605   2.301  10.742 -0.1805 -0.8089  0.8648
  108OSM    C9S11106   5.806   2.189  10.682 -0.1427  0.4226  0.0754
  108OSM    H9S11107   5.742   2.102  10.656 -1.8063  2.1264 -1.6891
  108OSM    H9T11108   5.898   2.162  10.738  0.2581 -3.3642 -2.2241
  108OSM   C10S11109   5.846   2.242  10.550  0.2852 -0.0934  0.5377
  108OSM   H10S11110   5.900   2.167  10.489  1.5733  0.6017  0.8245
  108OSM   H10T11111   5.914   2.327  10.573 -0.4166  0.8142 -0.6844
  108OSM   C11S11112   5.728   2.302  10.470 -0.3039 -0.5374  0.8471
  108OSM   H11S11113   5.713   2.407  10.505 -0.2956  0.5359 -2.1698
  108OSM   H11T11114   5.641   2.247  10.511  0.6614 -1.1199  2.1402
  108OSM   C12S11115   5.755   2.305  10.315 -0.4291  0.1004  0.1110
  108OSM   H12S11116   5.776   2.201  10.282 -1.7396  0.0490 -0.6331
  108OSM   H12T11117   5.839   2.373  10.293  0.0381 -1.1077 -1.9485
  108OSM   C13S11118   5.629   2.345  10.240  0.6856 -0.0813  0.3874
  108OSM   H13S11119   5.608   2.443  10.287 -0.1687  1.6436 -3.4256
  108OSM   H13T11120   5.537   2.289  10.265 -0.1667  0.1855 -2.0038
  108OSM   C14S11121   5.661   2.359  10.089  0.8185  0.0871  0.4203
  108OSM   H14S11122   5.647   2.257  10.048  1.4367  0.7841 -1.5958
  108OSM   H14T11123   5.767   2.387  10.069  0.7787 -0.8660 -1.2208
  108OSM   C15S11124   5.566   2.446  10.016  0.1179  0.2377  0.4459
  108OSM   H15S11125   5.564   2.544  10.069 -2.1404  1.1545 -1.2593
  108OSM   H15T11126   5.459   2.418  10.007 -0.3314  1.7980  0.6999
  108OSM   C16S11127   5.612   2.466   9.875 -0.2281 -0.5619 -0.2544
  108OSM   H16S11128   5.636   2.364   9.838 -0.8210 -1.9996  3.1826
  108OSM   H16T11129   5.705   2.525   9.864  0.3592 -1.7132 -1.6520
  108OSM   C17S11130   5.500   2.523   9.784  0.1766  0.3063  0.3427
  108OSM   H17S11131   5.488   2.627   9.820  3.3346  0.7868  0.1273
  108OSM   H17T11132   5.414   2.456   9.805  1.2936 -1.9791 -2.1321
  108OSM   C18S11133   5.528   2.509   9.636 -0.5783 -0.3946  0.3808
  108OSM   H18S11134   5.581   2.594   9.588  0.8493 -0.9005  1.0393
  108OSM   H18T11135   5.432   2.492   9.583 -0.3124  0.3963 -0.3613
  108OSM   H18U11136   5.605   2.430   9.619  0.7555  0.9863 -0.1279
  108OSM    C1F11137   5.949   2.656  10.669 -0.3659  0.3612  0.0965
  108OSM     OF11138   6.071   2.662  10.673 -0.9354 -0.0265 -0.1440
  108OSM    C2F11139   5.870   2.677  10.540 -0.6394  0.1470 -0.3573
  108OSM    H2F11140   5.840   2.784  10.552 -0.2737  0.0685  1.3414
  108OSM    H2G11141   5.782   2.610  10.535 -0.0422 -0.6454 -0.3668
  108OSM    C3F11142   5.959   2.673  10.413 -0.4071  0.3253 -0.1301
  108OSM    H3F11143   6.026   2.585  10.406 -1.2161 -0.3677  0.6327
  108OSM    H3G11144   6.024   2.762  10.419 -0.4267  0.4717 -1.9019
  108OSM    C4F11145   5.884   2.691  10.285  0.4435 -0.4032  0.3499
  108OSM    H4F11146   5.827   2.787  10.284 -0.2894 -0.8366 -0.8689
  108OSM    H4G11147   5.808   2.611  10.272 -3.2384  2.7030  1.7852
  108OSM    C5F11148   5.978   2.679  10.162  1.1756 -0.0397 -0.5369
  108OSM    H5F11149   6.028   2.582  10.185 -2.2718 -1.8686 -0.4284
  108OSM    H5G11150   6.057   2.758  10.165  0.3085  0.9561 -2.9466
  108OSM    C6F11151   5.920   2.683  10.024 -0.2356 -0.1964 -0.5124
  108OSM    H6F11152   5.847   2.765  10.006 -0.1945 -0.3879 -1.5809
  108OSM    H6G11153   5.854   2.594  10.018 -1.7039  0.6871  1.9614
  108OSM    C7F11154   6.026   2.673   9.905  0.5030  0.1150 -0.2886
  108OSM    H7F11155   6.104   2.611   9.953 -0.2643  1.2462  2.5291
  108OSM    H7G11156   6.081   2.764   9.873  2.8020 -1.2136 -0.2565
  108OSM    C8F11157   5.961   2.603   9.781 -0.3215  0.0581  0.7513
  108OSM    H8F11158   5.873   2.660   9.743 -2.6356 -2.9380  1.4101
  108OSM    H8G11159   5.920   2.504   9.810 -2.2784  0.1881 -1.3543
  108OSM    C9F11160   6.057   2.572   9.664  0.0691  0.2158 -0.5172
  108OSM    H9F11161   6.156   2.530   9.687 -1.0406 -2.8120 -0.9899
  108OSM   C10F11162   6.029   2.582   9.531  0.5262  0.2236 -0.1457
  108OSM   H10F11163   6.101   2.539   9.460  1.7358  2.9241 -0.6353
  108OSM   C11F11164   5.905   2.635   9.466  0.2122  0.1541  0.7427
  108OSM   H11F11165   5.922   2.728   9.409 -1.2218  0.0999  0.2071
  108OSM   H11G11166   5.830   2.645   9.547  0.3831 -0.7848  1.0287
  108OSM   C12F11167   5.848   2.534   9.359  0.2373  0.0026 -0.1023
  108OSM   H12F11168   5.861   2.432   9.401 -1.0574  1.1452  3.2736
  108OSM   H12G11169   5.905   2.530   9.264  0.1517  1.2107 -0.2051
  108OSM   C13F11170   5.710   2.580   9.313  0.3896  0.2748  0.1564
  108OSM   H13F11171   5.706   2.689   9.293 -0.5141  0.1912 -0.1493
  108OSM   H13G11172   5.645   2.569   9.402  1.7384 -0.9331  1.0083
  108OSM   C14F11173   5.638   2.514   9.192  0.0248  0.3641  0.1311
  108OSM   H14F11174   5.681   2.553   9.097  0.4332 -0.8530 -0.1903
  108OSM   H14G11175   5.531   2.544   9.186 -0.6605 -1.9565  0.2812
  108OSM   C15F11176   5.640   2.364   9.190  0.7817 -0.2142  0.3610
  108OSM   H15F11177   5.617   2.344   9.297  0.4054  0.9090  0.5007
  108OSM   H15G11178   5.742   2.324   9.170 -0.0668 -1.4495 -1.6460
  108OSM   C16F11179   5.533   2.294   9.097  0.0196  0.4599  0.0780
  108OSM   H16F11180   5.434   2.311   9.146  0.7375 -1.3652  2.2299
  108OSM   H16G11181   5.558   2.187   9.108  0.1147  0.4865  0.1181
  108OSM   C17F11182   5.531   2.341   8.957 -0.4970 -0.1018  0.0173
  108OSM   H17F11183   5.487   2.257   8.898  1.5380  0.5799 -2.6102
  108OSM   H17G11184   5.629   2.377   8.917 -0.7765 -0.0087 -0.5937
  108OSM   C18F11185   5.424   2.445   8.918  0.2242  0.5759  0.0240
  108OSM   H18F11186   5.478   2.542   8.915  1.0368  0.1636  0.8921
  108OSM   H18G11187   5.328   2.458   8.972  0.5292  2.1161  0.2242
  108OSM   H18H11188   5.383   2.416   8.820 -0.3786  0.8622  0.1902
  109OSM      N11189   6.568   3.507  11.133 -0.2334 -0.7210  0.5871
  109OSM    C1511190   6.693   3.439  11.082 -0.5407  0.1327  0.3461
  109OSM   H15A11191   6.664   3.344  11.040  1.7482 -0.9889  1.2460
  109OSM   H15B11192   6.777   3.438  11.149 -0.7043  2.3556  0.6140
  109OSM   H15C11193   6.728   3.500  11.000 -0.5183 -1.1220 -0.5914
  109OSM    C1411194   6.490   3.422  11.232 -0.6015  0.0250  0.6115
  109OSM   H14A11195   6.550   3.419  11.321  0.6013  0.1367 -0.1916
  109OSM   H14B11196   6.477   3.319  11.204  0.1489 -0.0209  0.4175
  109OSM   H14C11197   6.392   3.465  11.249 -1.2702 -1.0654 -0.4300
  109OSM    C1311198   6.592   3.641  11.197  0.0657 -0.0053  0.9288
  109OSM   H13A11199   6.643   3.708  11.130  1.2213 -1.0795  0.7192
  109OSM   H13B11200   6.657   3.628  11.282  0.8342 -0.9345  0.2035
  109OSM   H13C11201   6.502   3.696  11.221  0.8091  0.2363  3.2204
  109OSM    C1211202   6.477   3.523  11.012  0.3705  0.3307 -0.4225
  109OSM   H12A11203   6.374   3.530  11.043  0.6288 -1.8239  1.0404
  109OSM   H12B11204   6.497   3.434  10.953 -4.0802  0.0161 -1.6021
  109OSM    C1111205   6.503   3.627  10.915 -0.3048  0.1213  0.2200
  109OSM   H11A11206   6.525   3.720  10.973  0.6384  0.0081  0.0527
  109OSM   H11B11207   6.412   3.655  10.857  0.0424 -0.4892 -0.6176
  109OSM      P11208   6.603   3.488  10.709 -0.4592 -0.2167  0.2787
  109OSM    O1311209   6.716   3.504  10.611 -0.2572 -0.3017 -0.5610
  109OSM    O1411210   6.587   3.354  10.761  0.0066 -0.1946  0.0530
  109OSM    O1111211   6.472   3.536  10.635 -0.5713  0.2536 -0.8627
  109OSM    O1211212   6.608   3.598  10.828 -0.6796  1.2031  0.1920
  109OSM    C1S11213   6.464   3.654  10.564 -0.2382  0.2891  0.7814
  109OSM    H1S11214   6.562   3.672  10.516  0.5379 -2.1891  1.3975
  109OSM    H1T11215   6.435   3.737  10.632 -1.0190  0.3994  0.3200
  109OSM     NF11216   6.364   3.745  10.358 -0.8307  0.0235  0.2137
  109OSM    HNF11217   6.292   3.814  10.364 -1.2529 -0.4482  0.6388
  109OSM    C2S11218   6.359   3.637  10.452 -0.4365  0.3998 -0.0102
  109OSM    H2S11219   6.394   3.542  10.405 -2.3132 -0.6975  0.7551
  109OSM    C3S11220   6.218   3.606  10.519 -0.4711  0.1289 -0.3194
  109OSM    H3S11221   6.182   3.704  10.556  1.8909  1.4283 -1.3404
  109OSM     O311222   6.211   3.513  10.626 -0.2484 -0.1173  0.0133
  109OSM    HO311223   6.301   3.484  10.645 -0.8243 -1.1021  1.3844
  109OSM    C4S11224   6.126   3.560  10.408  0.3128 -0.3135  0.6770
  109OSM    H4S11225   6.155   3.467  10.356 -1.2667 -0.7382  0.5392
  109OSM    C5S11226   6.012   3.633  10.379  0.0858 -0.1303  0.1790
  109OSM    H5S11227   5.982   3.712  10.450 -1.7940 -1.4130  0.8678
  109OSM    C6S11228   5.921   3.589  10.268 -0.0740  0.0045  0.1376
  109OSM    H6S11229   5.815   3.602  10.300 -0.4264  0.5382 -1.1797
  109OSM    H6T11230   5.920   3.478  10.259  1.4493 -0.0450  0.5136
  109OSM    C7S11231   5.948   3.671  10.137  0.2378 -0.3784  1.2506
  109OSM    H7S11232   6.054   3.679  10.106  0.7626 -0.3446  2.9605
  109OSM    H7T11233   5.908   3.774  10.149  0.1630 -0.2239 -0.2291
  109OSM    C8S11234   5.871   3.606  10.020  0.0414 -0.2205  0.4318
  109OSM    H8S11235   5.761   3.613  10.030 -0.4335 -3.3906 -1.7385
  109OSM    H8T11236   5.883   3.496  10.021  2.9336  0.0648  1.2407
  109OSM    C9S11237   5.914   3.657   9.882  0.5627 -0.6697  0.7550
  109OSM    H9S11238   6.023   3.639   9.875  0.8705  1.0223  1.1188
  109OSM    H9T11239   5.897   3.767   9.883 -0.0607 -0.7667  0.9818
  109OSM   C10S11240   5.847   3.578   9.765 -0.3991  0.1600 -0.1735
  109OSM   H10S11241   5.738   3.572   9.782 -0.2452 -0.0159  0.7646
  109OSM   H10T11242   5.881   3.472   9.766  0.1003  0.3188  0.2164
  109OSM   C11S11243   5.895   3.629   9.620 -0.4122 -0.6237 -0.3290
  109OSM   H11S11244   6.006   3.624   9.615 -0.3948  1.0645 -2.4140
  109OSM   H11T11245   5.869   3.737   9.625  2.2774  0.0618 -0.3754
  109OSM   C12S11246   5.829   3.566   9.503  0.8225 -0.5575 -0.1364
  109OSM   H12S11247   5.719   3.558   9.519  0.9322 -1.1146  0.3704
  109OSM   H12T11248   5.872   3.464   9.516  0.0068 -0.7274  1.4172
  109OSM   C13S11249   5.852   3.619   9.359 -0.3606 -0.7034  0.3903
  109OSM   H13S11250   5.961   3.638   9.342 -1.3894  2.1056 -4.0329
  109OSM   H13T11251   5.806   3.720   9.353 -3.4127 -2.0483  0.3230
  109OSM   C14S11252   5.791   3.515   9.263  1.6656  1.1936  0.8757
  109OSM   H14S11253   5.695   3.511   9.319  1.5327  1.0143  0.6337
  109OSM   H14T11254   5.837   3.415   9.277 -0.3063  0.0286 -0.7155
  109OSM   C15S11255   5.755   3.556   9.118 -0.0872 -0.1880 -0.7458
  109OSM   H15S11256   5.683   3.640   9.111 -1.1083 -1.0037 -0.2240
  109OSM   H15T11257   5.693   3.470   9.085 -1.7836  0.2235  1.2659
  109OSM   C16S11258   5.871   3.564   9.020 -0.5031 -0.2444 -0.9815
  109OSM   H16S11259   5.841   3.561   8.914 -0.7982 -0.7136 -0.8880
  109OSM   H16T11260   5.944   3.489   9.058 -1.6826 -0.1444  1.6071
  109OSM   C17S11261   5.945   3.705   9.032 -0.6555 -0.2173  1.2137
  109OSM   H17S11262   6.055   3.690   9.023 -0.7947 -2.5593  2.9896
  109OSM   H17T11263   5.932   3.748   9.134  1.8966  0.9901  1.0851
  109OSM   C18S11264   5.895   3.791   8.919 -0.1971 -0.1320  0.0503
  109OSM   H18S11265   5.931   3.746   8.825  2.0410  0.6670  0.4975
  109OSM   H18T11266   5.933   3.895   8.927 -1.7146  0.3026  2.3765
  109OSM   H18U11267   5.784   3.787   8.913 -0.2902 -0.9506  1.8565
  109OSM    C1F11268   6.463   3.777  10.279  0.1170  0.7201 -0.6385
  109OSM     OF11269   6.566   3.704  10.285 -0.4663  0.1468  0.1788
  109OSM    C2F11270   6.442   3.893  10.186  0.3283  0.2677 -0.5014
  109OSM    H2F11271   6.542   3.912  10.142  0.9246 -2.1118 -0.2559
  109OSM    H2G11272   6.411   3.980  10.247 -1.5357  0.1453 -1.2403
  109OSM    C3F11273   6.343   3.854  10.071 -0.2451  0.2759  0.0263
  109OSM    H3F11274   6.240   3.846  10.111  0.1474  0.0063  0.9947
  109OSM    H3G11275   6.367   3.759  10.019 -0.1798  0.8267 -0.9551
  109OSM    C4F11276   6.336   3.972   9.974 -0.1843 -0.8231  0.5386
  109OSM    H4F11277   6.427   4.013   9.925  1.8040 -2.9436  2.3993
  109OSM    H4G11278   6.298   4.054  10.038  1.6088  0.5750 -0.1498
  109OSM    C5F11279   6.223   3.958   9.865 -0.4761  0.4667 -0.1242
  109OSM    H5F11280   6.164   4.052   9.862 -0.4750  0.4417 -1.1041
  109OSM    H5G11281   6.161   3.873   9.901 -1.3219  1.1658  0.0755
  109OSM    C6F11282   6.289   3.941   9.728 -0.5954 -0.2154  0.4098
  109OSM    H6F11283   6.340   3.842   9.719  0.9528  0.7432 -2.1163
  109OSM    H6G11284   6.369   4.016   9.709 -0.1184 -1.4934 -3.0456
  109OSM    C7F11285   6.185   3.942   9.617 -0.3170  0.5758 -0.3450
  109OSM    H7F11286   6.123   4.034   9.616 -1.7708 -0.3643  0.4966
  109OSM    H7G11287   6.111   3.861   9.633  1.2809 -0.6241  1.2589
  109OSM    C8F11288   6.259   3.930   9.486 -1.0612 -0.2997  0.2161
  109OSM    H8F11289   6.323   3.840   9.496  0.7915  0.8059 -1.2478
  109OSM    H8G11290   6.327   4.016   9.463 -0.5786 -1.3021 -2.2393
  109OSM    C9F11291   6.167   3.909   9.365 -0.2793 -0.2961 -0.5104
  109OSM    H9F11292   6.067   3.867   9.384 -0.6318  2.0067  3.1774
  109OSM   C10F11293   6.186   3.953   9.240  0.1796 -0.7183  1.0288
  109OSM   H10F11294   6.115   3.939   9.157 -1.0359 -0.0926  1.9319
  109OSM   C11F11295   6.311   4.029   9.194  0.5480  0.1299 -0.5798
  109OSM   H11F11296   6.375   4.065   9.277 -1.6934  0.8227  0.9057
  109OSM   H11G11297   6.289   4.123   9.139 -0.8230  0.9251  1.2714
  109OSM   C12F11298   6.407   3.935   9.109  0.1051  0.0182  0.2613
  109OSM   H12F11299   6.457   3.867   9.182 -0.8429 -0.4236  0.5096
  109OSM   H12G11300   6.476   4.006   9.058 -0.1465 -0.8193 -1.2744
  109OSM   C13F11301   6.328   3.856   9.009  0.0974  0.5974  0.9475
  109OSM   H13F11302   6.246   3.796   9.054 -0.1405  1.1045  1.1940
  109OSM   H13G11303   6.404   3.784   8.972 -1.0363 -0.1529  0.0438
  109OSM   C14F11304   6.276   3.950   8.893  0.1879 -0.8080  0.5608
  109OSM   H14F11305   6.357   4.007   8.842  1.2976 -2.9330 -0.1088
  109OSM   H14G11306   6.204   4.024   8.935 -0.9080 -1.0455 -0.8537
  109OSM   C15F11307   6.202   3.862   8.786  0.5692 -0.1395  0.1557
  109OSM   H15F11308   6.129   3.801   8.842 -0.6185  1.4464  0.3469
  109OSM   H15G11309   6.267   3.793   8.727  0.1286 -1.5797  1.3199
  109OSM   C16F11310   6.117   3.942   8.685  0.2032 -0.0713  0.4196
  109OSM   H16F11311   6.174   4.017   8.625 -0.7152  0.7450  0.5345
  109OSM   H16G11312   6.034   3.987   8.744  0.5129  1.2140 -0.0978
  109OSM   C17F11313   6.047   3.863   8.571  0.0378 -1.0709 -0.7077
  109OSM   H17F11314   5.981   3.796   8.631 -1.3413  0.5417 -0.3663
  109OSM   H17G11315   6.119   3.803   8.512  0.9235 -2.2027  1.4588
  109OSM   C18F11316   5.951   3.951   8.488 -0.5025 -0.3586  0.8312
  109OSM   H18F11317   5.913   4.043   8.538 -0.4797  0.8894 -1.3858
  109OSM   H18G11318   5.871   3.883   8.450 -1.2175  0.9311  0.0105
  109OSM   H18H11319   6.009   3.968   8.394 -1.7909  0.0650  0.0946
  110OSM      N11320   1.427   3.114  11.004  0.6777  0.8307  0.9119
  110OSM    C1511321   1.356   3.236  11.056  0.4423 -0.0036 -0.0091
  110OSM   H15A11322   1.374   3.230  11.162  1.3621 -1.5626 -0.2291
  110OSM   H15B11323   1.249   3.231  11.043  0.2990  3.3954 -0.6398
  110OSM   H15C11324   1.390   3.331  11.015 -0.9082 -0.3616 -2.0061
  110OSM    C1411325   1.576   3.141  11.008  0.3293  0.4536 -0.8390
  110OSM   H14A11326   1.598   3.196  11.099 -2.8937  1.6603 -0.7113
  110OSM   H14B11327   1.603   3.200  10.922  0.5365  0.6806 -0.6176
  110OSM   H14C11328   1.635   3.050  11.012 -0.6939 -0.1558  1.3518
  110OSM    C1311329   1.388   2.998  11.084  0.6218 -1.4659 -0.3498
  110OSM   H13A11330   1.456   2.914  11.078  3.2983  0.3824  2.7123
  110OSM   H13B11331   1.290   2.966  11.049  0.2549 -0.5188 -0.2127
  110OSM   H13C11332   1.378   3.036  11.184 -1.3009 -3.5323  0.2975
  110OSM    C1211333   1.406   3.076  10.854 -0.9461 -0.3654  0.5224
  110OSM   H12A11334   1.450   2.980  10.834 -0.2892  0.1326 -0.4763
  110OSM   H12B11335   1.464   3.150  10.800  1.1835 -1.9016  0.6439
  110OSM    C1111336   1.264   3.056  10.803  0.2816  0.2923  0.7558
  110OSM   H11A11337   1.249   3.043  10.694  0.7253  0.5759  0.6619
  110OSM   H11B11338   1.213   3.151  10.832 -1.2971  0.4855 -2.3655
  110OSM      P11339   1.264   2.794  10.831  0.3685  0.0326  0.4903
  110OSM    O1311340   1.403   2.782  10.874  0.2801 -0.4225 -0.4592
  110OSM    O1411341   1.163   2.704  10.886  0.5283  0.3020 -0.1225
  110OSM    O1111342   1.266   2.789  10.675  0.4905 -0.0310  0.5668
  110OSM    O1211343   1.205   2.939  10.858 -0.1522 -0.1415 -0.0997
  110OSM    C1S11344   1.148   2.770  10.601 -0.0694 -1.8008  0.4354
  110OSM    H1S11345   1.068   2.830  10.649  0.5159  0.1889 -0.9808
  110OSM    H1T11346   1.119   2.663  10.605 -2.8249 -1.0854  0.5758
  110OSM     NF11347   1.034   2.824  10.391 -0.3215  0.3336 -0.1141
  110OSM    HNF11348   0.985   2.744  10.358 -0.0465 -0.2696  0.9347
  110OSM    C2S11349   1.165   2.814  10.453 -0.0797  0.1410 -0.5615
  110OSM    H2S11350   1.221   2.910  10.454  0.4650 -0.1767 -0.1923
  110OSM    C3S11351   1.260   2.710  10.385 -0.3433  0.5262 -0.4571
  110OSM    H3S11352   1.232   2.604  10.404 -1.1076  0.6981 -0.5913
  110OSM     O311353   1.396   2.706  10.440  0.2504  0.7125  0.0081
  110OSM    HO311354   1.387   2.747  10.526  1.4319 -1.2897  1.1343
  110OSM    C4S11355   1.266   2.741  10.240  0.0382 -0.2167  0.1136
  110OSM    H4S11356   1.311   2.839  10.219 -0.5047  0.3632  1.5239
  110OSM    C5S11357   1.238   2.658  10.141 -0.0550 -0.7946 -0.7876
  110OSM    H5S11358   1.210   2.553  10.161 -0.8017 -0.2616  1.0190
  110OSM    C6S11359   1.262   2.692   9.999  1.1895 -0.0410  0.4745
  110OSM    H6S11360   1.281   2.603   9.935  0.4145  0.1170  0.0231
  110OSM    H6T11361   1.351   2.757   9.987  2.0264 -1.0377  1.2228
  110OSM    C7S11362   1.143   2.766   9.927 -0.0294 -0.6890  0.2224
  110OSM    H7S11363   1.132   2.868   9.971  0.6534 -0.5478  0.0767
  110OSM    H7T11364   1.048   2.712   9.947 -0.0020 -1.0083 -0.4896
  110OSM    C8S11365   1.167   2.786   9.773 -0.1102 -0.0269  0.5901
  110OSM    H8S11366   1.196   2.688   9.728 -0.4474 -0.8391  2.1121
  110OSM    H8T11367   1.251   2.858   9.763 -1.9842  2.0868 -0.2601
  110OSM    C9S11368   1.038   2.848   9.704 -1.0522  1.0631  0.2650
  110OSM    H9S11369   1.013   2.936   9.766  1.2928  1.0278  1.3387
  110OSM    H9T11370   0.953   2.778   9.712  1.0917 -1.5008  1.5780
  110OSM   C10S11371   1.066   2.881   9.551 -0.4183  0.2126 -0.4546
  110OSM   H10S11372   1.165   2.929   9.538 -0.8009  1.1485  0.0880
  110OSM   H10T11373   0.992   2.960   9.526 -2.3139 -0.2457  3.2933
  110OSM   C11S11374   1.060   2.763   9.453  0.7797 -0.3364  0.8785
  110OSM   H11S11375   0.955   2.736   9.432  0.8209  0.5992 -0.6155
  110OSM   H11T11376   1.112   2.675   9.496  0.4941 -0.8911  0.1045
  110OSM   C12S11377   1.112   2.786   9.305  0.2032 -0.3933  0.6554
  110OSM   H12S11378   1.126   2.687   9.257 -0.1227 -0.8679  1.5370
  110OSM   H12T11379   1.215   2.827   9.299 -0.7353  1.8021 -1.2688
  110OSM   C13S11380   1.009   2.876   9.229 -0.2436  0.2575 -0.0833
  110OSM   H13S11381   0.990   2.973   9.280  2.4051  0.2434  0.9754
  110OSM   H13T11382   0.913   2.821   9.222 -0.3224  0.4022 -0.1399
  110OSM   C14S11383   1.069   2.907   9.096 -0.1326  0.3198  0.2054
  110OSM   H14S11384   1.098   2.816   9.040  0.4436  0.7859 -0.2748
  110OSM   H14T11385   1.160   2.971   9.091 -0.8691  1.5064  1.5484
  110OSM   C15S11386   0.949   2.982   9.022  0.2047  0.2054 -0.4575
  110OSM   H15S11387   0.973   3.091   9.018 -1.3185  0.5370 -0.8725
  110OSM   H15T11388   0.849   2.975   9.068 -0.0835  2.2092 -0.7283
  110OSM   C16S11389   0.937   2.932   8.871  0.7276 -0.3521  0.3606
  110OSM   H16S11390   0.914   2.824   8.871  1.8297 -0.6497  3.2628
  110OSM   H16T11391   1.032   2.958   8.819  0.1978  2.7328  0.8322
  110OSM   C17S11392   0.828   3.010   8.796  0.4985 -0.2368  0.5759
  110OSM   H17S11393   0.852   3.118   8.801  2.2696 -0.6671  1.7580
  110OSM   H17T11394   0.728   2.989   8.839  0.6385  0.0281  1.0292
  110OSM   C18S11395   0.821   2.963   8.655 -0.3182 -0.0743 -0.1781
  110OSM   H18S11396   0.929   2.963   8.627 -0.3992  1.4256 -0.5169
  110OSM   H18T11397   0.761   3.026   8.585  1.0344  0.5383 -0.8135
  110OSM   H18U11398   0.796   2.855   8.655  2.7250 -0.8314  1.7524
  110OSM    C1F11399   0.967   2.938  10.388  0.3102  0.3949  0.4674
  110OSM     OF11400   1.023   3.047  10.422  0.0356 -0.1403  0.3718
  110OSM    C2F11401   0.823   2.932  10.326 -0.0270  0.0740 -0.3933
  110OSM    H2F11402   0.756   2.901  10.409  0.1001 -0.5931 -0.5413
  110OSM    H2G11403   0.831   2.854  10.248 -1.6299  1.0909 -1.6122
  110OSM    C3F11404   0.793   3.066  10.259 -0.0698  0.2093  0.3809
  110OSM    H3F11405   0.875   3.088  10.187  1.4162 -0.4176  1.8382
  110OSM    H3G11406   0.781   3.152  10.328  0.7537  0.4047  0.2869
  110OSM    C4F11407   0.655   3.072  10.182  0.2943  0.3517 -0.2801
  110OSM    H4F11408   0.572   3.055  10.253  0.5639  0.1716 -0.0076
  110OSM    H4G11409   0.650   2.985  10.113  0.4046 -0.8681  1.2146
  110OSM    C5F11410   0.629   3.201  10.104  0.1693  0.3701 -0.7806
  110OSM    H5F11411   0.660   3.284  10.171  0.8295 -2.0824  2.0942
  110OSM    H5G11412   0.520   3.204  10.083 -0.0561  0.6939  0.3807
  110OSM    C6F11413   0.709   3.206   9.973  1.1223  0.1356 -0.1370
  110OSM    H6F11414   0.736   3.105   9.936 -0.1856  0.0871 -0.9719
  110OSM    H6G11415   0.812   3.246   9.989  0.5231  1.9906 -0.7623
  110OSM    C7F11416   0.629   3.281   9.866 -0.0983  0.5881  0.1662
  110OSM    H7F11417   0.579   3.374   9.900  0.9500  1.1437  0.1951
  110OSM    H7G11418   0.547   3.212   9.835 -0.7953  1.0464  0.9818
  110OSM    C8F11419   0.723   3.326   9.753  0.0100  0.1568  0.3544
  110OSM    H8F11420   0.796   3.398   9.796 -0.7716 -0.4625  2.7679
  110OSM    H8G11421   0.671   3.387   9.676 -0.4469  0.4918  0.9327
  110OSM    C9F11422   0.805   3.209   9.690 -0.0193 -0.0263 -1.1159
  110OSM    H9F11423   0.900   3.181   9.737  0.0895  2.0658 -0.0715
  110OSM   C10F11424   0.775   3.164   9.562 -0.1883 -0.4334  0.9230
  110OSM   H10F11425   0.833   3.091   9.504  0.8261 -0.4300  1.9043
  110OSM   C11F11426   0.660   3.208   9.476  0.3342 -1.2526  0.4613
  110OSM   H11F11427   0.664   3.318   9.468 -2.4368 -1.1797 -0.4766
  110OSM   H11G11428   0.561   3.177   9.516  0.0524 -0.2956  0.5069
  110OSM   C12F11429   0.665   3.160   9.329 -0.2917 -0.2523  0.7579
  110OSM   H12F11430   0.673   3.050   9.327  0.6848 -0.1621 -1.7469
  110OSM   H12G11431   0.762   3.191   9.284  0.0915 -1.2589  0.8928
  110OSM   C13F11432   0.555   3.213   9.240  0.2343 -0.6273 -0.3738
  110OSM   H13F11433   0.557   3.324   9.246  1.8378 -0.6122 -0.7867
  110OSM   H13G11434   0.460   3.172   9.279  0.3469 -2.9661 -2.3992
  110OSM   C14F11435   0.583   3.181   9.091 -0.4603 -0.9584  0.9509
  110OSM   H14F11436   0.569   3.073   9.069  0.8736 -0.8926 -0.2277
  110OSM   H14G11437   0.687   3.213   9.069 -0.2660 -1.6423  0.8707
  110OSM   C15F11438   0.488   3.262   8.994  0.5361 -0.2548  0.1444
  110OSM   H15F11439   0.513   3.370   8.992  0.1969 -0.1631  0.8809
  110OSM   H15G11440   0.378   3.251   9.004  0.1657  1.9651 -1.1570
  110OSM   C16F11441   0.512   3.224   8.839 -0.4338 -0.1683 -1.0040
  110OSM   H16F11442   0.495   3.114   8.842 -2.4564  0.1500  0.9242
  110OSM   H16G11443   0.616   3.235   8.801  0.5504 -0.4732  1.4945
  110OSM   C17F11444   0.413   3.287   8.746  0.0291 -0.0343  0.7851
  110OSM   H17F11445   0.417   3.398   8.752  0.2498  0.1683 -2.1643
  110OSM   H17G11446   0.316   3.244   8.779 -0.6093  2.2663  2.0264
  110OSM   C18F11447   0.440   3.239   8.606  0.2346 -0.5438  0.4249
  110OSM   H18F11448   0.418   3.131   8.590 -0.5843 -0.1120 -1.4188
  110OSM   H18G11449   0.545   3.247   8.572 -0.6438  0.2768 -2.1813
  110OSM   H18H11450   0.370   3.294   8.539 -0.6436 -0.9574  0.9945
  111OSM      N11451   0.975   0.149  10.987 -0.0129  0.2015 -0.1478
  111OSM    C1511452   0.840   0.196  11.021 -0.0864 -0.6789 -0.2115
  111OSM   H15A11453   0.765   0.121  11.000 -0.3469 -0.7483  0.9199
  111OSM   H15B11454   0.814   0.284  10.963 -1.8513 -0.1278  1.3694
  111OSM   H15C11455   0.840   0.220  11.126 -0.4222 -1.2760 -0.0742
  111OSM    C1411456   1.067   0.264  10.998 -0.6560  0.1177  0.0290
  111OSM   H14A11457   1.054   0.337  10.920  1.1077 -0.3385 -0.7171
  111OSM   H14B11458   1.173   0.246  10.987 -0.9608 -0.3442 -2.3665
  111OSM   H14C11459   1.050   0.299  11.099 -0.8605 -1.1688  0.4512
  111OSM    C1311460   1.013   0.035  11.081 -0.9297  0.2056 -0.2130
  111OSM   H13A11461   0.997   0.077  11.179 -1.9003 -2.5659  0.8835
  111OSM   H13B11462   1.117   0.007  11.072 -0.5923  1.1201  0.6956
  111OSM   H13C11463   0.950  -0.052  11.068 -1.1869  0.5304 -1.1625
  111OSM    C1211464   0.957   0.100  10.846 -0.7302 -0.3314  0.4832
  111OSM   H12A11465   0.898   0.167  10.785 -0.1971  0.5596  0.9288
  111OSM   H12B11466   0.895   0.012  10.855 -3.6766  1.7671  1.6550
  111OSM    C1111467   1.081   0.053  10.772 -0.6409 -1.1435  0.2886
  111OSM   H11A11468   1.168   0.119  10.794 -1.2017 -0.5107  0.6079
  111OSM   H11B11469   1.060   0.063  10.664  0.3743 -0.4920  0.1430
  111OSM      P11470   1.250  -0.156  10.790 -0.1117 -0.0898  0.1260
  111OSM    O1311471   1.340  -0.126  10.900 -0.1580  0.4410 -0.1953
  111OSM    O1411472   1.216  -0.302  10.784 -0.2181 -0.8590  0.3105
  111OSM    O1111473   1.314  -0.099  10.652 -0.1027 -0.6160 -0.3891
  111OSM    O1211474   1.114  -0.081  10.818 -0.5991 -0.1401 -0.2700
  111OSM    C1S11475   1.275  -0.159  10.531 -0.3185  0.6169  0.1133
  111OSM    H1S11476   1.169  -0.193  10.540 -0.0813  0.2635  1.8744
  111OSM    H1T11477   1.338  -0.245  10.497 -1.5855  1.1006 -3.6345
  111OSM     NF11478   1.236  -0.098  10.294 -0.4442  0.0920 -0.0693
  111OSM    HNF11479   1.310  -0.117  10.231 -0.5533 -0.0122 -0.1661
  111OSM    C2S11480   1.278  -0.044  10.422 -0.1447 -0.3958  0.2284
  111OSM    H2S11481   1.198   0.028  10.453 -0.9431 -1.1781 -0.0090
  111OSM    C3S11482   1.418   0.033  10.429  0.2360 -0.0060 -0.2921
  111OSM    H3S11483   1.504  -0.036  10.424 -0.8092 -1.3146 -0.4423
  111OSM     O311484   1.443   0.107  10.554 -0.0783 -0.2849  0.1147
  111OSM    HO311485   1.411   0.042  10.617 -0.4517  0.9731  1.2498
  111OSM    C4S11486   1.430   0.127  10.303  0.7716  0.4678 -0.2191
  111OSM    H4S11487   1.451   0.074  10.208  0.4545 -1.7066  0.8892
  111OSM    C5S11488   1.404   0.262  10.309  0.5901 -0.5952  0.0406
  111OSM    H5S11489   1.399   0.315  10.405  1.1897  1.1074 -0.8513
  111OSM    C6S11490   1.402   0.356  10.183 -0.1975 -0.4635  0.8801
  111OSM    H6S11491   1.477   0.437  10.196  0.5606 -0.9884 -0.0641
  111OSM    H6T11492   1.303   0.400  10.162 -0.5269 -0.0483  3.2156
  111OSM    C7S11493   1.449   0.286  10.052 -0.1575  0.2468 -0.8431
  111OSM    H7S11494   1.386   0.198  10.030  1.4701 -1.1582 -0.0682
  111OSM    H7T11495   1.553   0.251  10.069 -0.9855 -0.9184  2.0931
  111OSM    C8S11496   1.455   0.376   9.931 -0.3344  0.3318 -0.2179
  111OSM    H8S11497   1.512   0.316   9.857  0.4690 -0.0315  0.6975
  111OSM    H8T11498   1.519   0.463   9.958 -0.6380  0.5285 -0.1282
  111OSM    C9S11499   1.314   0.412   9.877 -0.7255  0.4601  0.2596
  111OSM    H9S11500   1.267   0.477   9.954 -0.0421  0.9814  0.2421
  111OSM    H9T11501   1.248   0.323   9.867  1.5004 -1.6751  3.3752
  111OSM   C10S11502   1.309   0.485   9.738  0.4752 -0.6592  0.3711
  111OSM   H10S11503   1.362   0.422   9.664  2.1392  0.5092  0.5523
  111OSM   H10T11504   1.348   0.589   9.740 -1.8191  0.3760 -3.3368
  111OSM   C11S11505   1.166   0.502   9.686 -0.2258  0.7949 -0.1352
  111OSM   H11S11506   1.107   0.409   9.701 -0.0368  0.6584 -0.2460
  111OSM   H11T11507   1.176   0.516   9.576 -0.5221  1.8723 -0.0349
  111OSM   C12S11508   1.077   0.614   9.752  0.7783  0.5933 -0.2340
  111OSM   H12S11509   1.128   0.712   9.738  0.8843  0.4791 -0.6460
  111OSM   H12T11510   1.079   0.601   9.862  2.7152 -0.0782 -0.3281
  111OSM   C13S11511   0.930   0.615   9.700 -0.7010 -0.5558 -0.2040
  111OSM   H13S11512   0.863   0.689   9.749 -1.9066 -1.7990  0.0433
  111OSM   H13T11513   0.905   0.512   9.732  0.4615 -0.9180 -0.4483
  111OSM   C14S11514   0.912   0.640   9.545  0.3635  0.7280 -0.3998
  111OSM   H14S11515   0.819   0.601   9.498  0.4765 -0.3588  0.2677
  111OSM   H14T11516   1.002   0.592   9.501 -0.3043  1.3690 -2.5309
  111OSM   C15S11517   0.932   0.789   9.514  0.3469 -0.4738  0.0767
  111OSM   H15S11518   1.030   0.819   9.555 -0.1887  0.2096  0.8648
  111OSM   H15T11519   0.854   0.856   9.556  0.4356 -0.8297  0.8157
  111OSM   C16S11520   0.944   0.812   9.357  0.5676  0.1473  0.0475
  111OSM   H16S11521   0.841   0.812   9.315  1.4048 -0.3536 -2.1102
  111OSM   H16T11522   1.007   0.729   9.316 -0.2292 -0.4867  0.0879
  111OSM   C17S11523   1.022   0.946   9.337 -0.5947  0.2680 -0.0987
  111OSM   H17S11524   1.116   0.940   9.397 -0.2636 -1.0602 -0.7385
  111OSM   H17T11525   0.963   1.031   9.378 -1.8101 -0.4659 -0.3383
  111OSM   C18S11526   1.055   0.979   9.191 -1.0309  0.6039  0.5922
  111OSM   H18S11527   1.129   0.910   9.145 -0.4284  1.8737 -0.3794
  111OSM   H18T11528   1.094   1.084   9.186 -0.2105  0.2513 -0.9185
  111OSM   H18U11529   0.965   0.975   9.126 -0.4997 -0.6803 -0.0783
  111OSM    C1F11530   1.112  -0.142  10.272  0.1128  0.4233 -0.4115
  111OSM     OF11531   1.019  -0.118  10.353 -0.1811 -0.1064 -0.1940
  111OSM    C2F11532   1.093  -0.221  10.142 -0.0643 -0.4563  0.4570
  111OSM    H2F11533   1.133  -0.322  10.164  0.1222 -0.8184 -1.5356
  111OSM    H2G11534   1.148  -0.164  10.064 -1.3166  1.7415  1.1043
  111OSM    C3F11535   0.944  -0.242  10.104  0.0536 -0.0656 -1.1253
  111OSM    H3F11536   0.898  -0.149  10.065 -0.4976 -0.2329 -0.8725
  111OSM    H3G11537   0.885  -0.273  10.193 -0.2354  4.3572  0.3774
  111OSM    C4F11538   0.915  -0.339   9.989 -0.4856 -0.1623 -0.3182
  111OSM    H4F11539   0.806  -0.361   9.983 -0.4315 -0.4101 -0.4029
  111OSM    H4G11540   0.976  -0.430  10.007  0.4786  0.0096 -2.5168
  111OSM    C5F11541   0.964  -0.306   9.847  0.4513  0.1837  0.0502
  111OSM    H5F11542   1.069  -0.269   9.848  0.4629  0.1538  0.9949
  111OSM    H5G11543   0.911  -0.225   9.793  2.1604  1.2946  0.0049
  111OSM    C6F11544   0.970  -0.423   9.763 -0.3699  0.6780 -0.1039
  111OSM    H6F11545   0.866  -0.459   9.780 -0.3122  0.0514 -1.0229
  111OSM    H6G11546   1.047  -0.497   9.794 -0.6082  0.6772  0.4992
  111OSM    C7F11547   0.993  -0.378   9.618  0.2764 -0.4867  1.0849
  111OSM    H7F11548   1.099  -0.352   9.599  0.6028 -0.9831  2.1405
  111OSM    H7G11549   0.920  -0.297   9.598  0.7854 -0.0207  1.0942
  111OSM    C8F11550   0.963  -0.492   9.521  0.2834  0.4373 -0.3448
  111OSM    H8F11551   0.865  -0.533   9.554 -0.1648  0.4615 -1.6222
  111OSM    H8G11552   1.036  -0.575   9.535  0.3671  0.3456 -1.2779
  111OSM    C9F11553   0.958  -0.451   9.373  0.2413 -0.7303  0.0886
  111OSM    H9F11554   0.876  -0.381   9.351 -2.2302 -3.2768  0.9920
  111OSM   C10F11555   1.037  -0.480   9.274 -0.0399 -0.6203  0.8201
  111OSM   H10F11556   1.020  -0.439   9.174  2.4899 -0.0643  0.5763
  111OSM   C11F11557   1.160  -0.562   9.292  0.2600  0.3640 -0.2066
  111OSM   H11F11558   1.147  -0.663   9.246  0.9811  0.4978 -0.7090
  111OSM   H11G11559   1.180  -0.585   9.399 -2.8774  2.3440  0.8432
  111OSM   C12F11560   1.285  -0.489   9.239 -0.3159  0.1198  0.3768
  111OSM   H12F11561   1.376  -0.549   9.261 -0.7277 -2.2500 -3.6637
  111OSM   H12G11562   1.308  -0.390   9.284  0.4580 -1.0383  2.6065
  111OSM   C13F11563   1.280  -0.472   9.085 -0.0205  0.2359 -0.0353
  111OSM   H13F11564   1.386  -0.443   9.066  0.2555  0.4717  1.7724
  111OSM   H13G11565   1.214  -0.389   9.053 -0.7824 -0.4593 -0.2741
  111OSM   C14F11566   1.250  -0.603   9.004  0.4175  0.3473  0.5265
  111OSM   H14F11567   1.143  -0.630   9.015  1.0341 -2.7415 -0.6747
  111OSM   H14G11568   1.316  -0.671   9.063  1.7142  1.7454  0.7030
  111OSM   C15F11569   1.298  -0.590   8.852  0.0837 -0.2220  0.4263
  111OSM   H15F11570   1.367  -0.674   8.828  0.1402  0.5669 -2.3402
  111OSM   H15G11571   1.349  -0.492   8.838  1.9527 -1.2928 -0.4795
  111OSM   C16F11572   1.169  -0.595   8.759  0.2076  0.3763  0.1483
  111OSM   H16F11573   1.111  -0.676   8.808  1.3980 -1.4399 -1.3722
  111OSM   H16G11574   1.179  -0.628   8.653 -0.5305  0.0799  0.1629
  111OSM   C17F11575   1.110  -0.452   8.744 -0.4967 -0.2780 -0.0358
  111OSM   H17F11576   1.181  -0.382   8.694 -0.6700  0.3198  0.5476
  111OSM   H17G11577   1.100  -0.407   8.845 -1.1293 -5.1149  2.1943
  111OSM   C18F11578   0.973  -0.434   8.667  0.4029 -0.5187 -1.0422
  111OSM   H18F11579   1.005  -0.423   8.561 -1.0871  0.3997 -1.4145
  111OSM   H18G11580   0.933  -0.338   8.706 -0.2618 -0.9005 -0.7945
  111OSM   H18H11581   0.908  -0.523   8.675  0.2000 -0.4139 -1.5140
  112OSM      N11582   2.697   4.185  10.925 -0.8275 -0.0817  1.1780
  112OSM    C1511583   2.738   4.174  10.782 -0.3508 -0.1588 -0.1701
  112OSM   H15A11584   2.738   4.067  10.765 -0.6819 -0.2766  0.5297
  112OSM   H15B11585   2.835   4.221  10.773 -0.3009 -0.0666  0.7333
  112OSM   H15C11586   2.668   4.220  10.715  1.3718  0.2979 -1.6773
  112OSM    C1411587   2.800   4.116  11.010 -0.3490  0.4214 -0.1940
  112OSM   H14A11588   2.900   4.146  10.982 -0.4465 -0.6956 -1.8053
  112OSM   H14B11589   2.805   4.011  10.984  0.8686  1.2578 -3.6623
  112OSM   H14C11590   2.788   4.141  11.115 -1.1341  0.2809 -0.2485
  112OSM    C1311591   2.708   4.330  10.953  1.1107 -0.4602  0.2969
  112OSM   H13A11592   2.800   4.377  10.922  2.3749 -3.0166  0.0638
  112OSM   H13B11593   2.689   4.361  11.055 -1.2722  1.9452 -0.8041
  112OSM   H13C11594   2.627   4.381  10.901  2.9464  0.0810 -2.1328
  112OSM    C1211595   2.563   4.119  10.945 -0.5261 -0.2002  0.0543
  112OSM   H12A11596   2.536   4.136  11.048 -0.2506  1.7205 -0.1790
  112OSM   H12B11597   2.565   4.012  10.928  1.6053 -0.1967  0.1438
  112OSM    C1111598   2.447   4.176  10.854 -0.0969  0.6447  0.1166
  112OSM   H11A11599   2.363   4.105  10.875  1.9063 -2.0328 -0.6421
  112OSM   H11B11600   2.480   4.162  10.748  0.3997 -1.6101  0.5380
  112OSM      P11601   2.279   4.346  10.940  0.0224 -0.1902  0.2530
  112OSM    O1311602   2.252   4.300  11.079  0.7857 -0.0682 -0.2260
  112OSM    O1411603   2.264   4.487  10.915  0.1756 -0.1275 -0.1189
  112OSM    O1111604   2.200   4.258  10.834 -0.3288  0.2136 -0.1804
  112OSM    O1211605   2.424   4.312  10.893  0.0222 -0.1018  0.0583
  112OSM    C1S11606   2.191   4.292  10.700  0.1357  0.2668 -0.3518
  112OSM    H1S11607   2.278   4.349  10.662 -0.7376  2.5897  1.0315
  112OSM    H1T11608   2.096   4.345  10.677 -0.1681  0.2595  0.8719
  112OSM     NF11609   2.148   4.200  10.469 -0.2411  0.4710 -0.8319
  112OSM    HNF11610   2.050   4.214  10.456 -0.5915 -1.3655 -0.3637
  112OSM    C2S11611   2.180   4.162  10.608  0.0806 -0.6173 -0.2012
  112OSM    H2S11612   2.279   4.112  10.613 -0.7266 -2.4178 -1.5324
  112OSM    C3S11613   2.059   4.074  10.660 -0.0448 -0.2662 -0.1631
  112OSM    H3S11614   1.973   4.144  10.655  1.3593  1.4959 -0.3361
  112OSM     O311615   2.078   4.024  10.790  0.2588 -0.3470  0.8074
  112OSM    HO311616   2.137   4.096  10.814  0.4675  0.6544 -2.4909
  112OSM    C4S11617   2.035   3.956  10.573 -0.1042 -0.4482  0.2853
  112OSM    H4S11618   2.123   3.891  10.565 -0.6780 -1.3485  1.1618
  112OSM    C5S11619   1.921   3.924  10.512  0.6241 -0.3387  0.0536
  112OSM    H5S11620   1.833   3.988  10.526  0.4892 -0.9499  2.1948
  112OSM    C6S11621   1.898   3.811  10.423  0.1953 -0.2691  0.4500
  112OSM    H6S11622   1.795   3.771  10.438 -0.1989 -1.0020 -3.5906
  112OSM    H6T11623   1.966   3.726  10.442  1.1901  0.9249  2.4324
  112OSM    C7S11624   1.915   3.869  10.286 -0.2029 -0.3341 -0.4713
  112OSM    H7S11625   2.025   3.885  10.282 -0.2930  1.1700  1.9647
  112OSM    H7T11626   1.861   3.965  10.271 -1.8615 -1.0204  0.9526
  112OSM    C8S11627   1.868   3.774  10.173 -0.3611  0.4894 -0.7275
  112OSM    H8S11628   1.757   3.778  10.174 -0.3490  1.2364  2.2536
  112OSM    H8T11629   1.893   3.668  10.196 -1.4248  0.6193  1.1259
  112OSM    C9S11630   1.921   3.828  10.036 -0.3669  0.0195 -0.5791
  112OSM    H9S11631   2.031   3.842  10.044 -0.5065  1.9499 -1.8273
  112OSM    H9T11632   1.886   3.933  10.037  0.3251  0.2493  0.2744
  112OSM   C10S11633   1.904   3.742   9.908  0.0867  0.6365 -0.0985
  112OSM   H10S11634   1.798   3.722   9.881  0.3854 -0.9295 -0.1344
  112OSM   H10T11635   1.957   3.645   9.914 -1.8435 -0.3908  0.7237
  112OSM   C11S11636   1.948   3.816   9.783  0.2150 -0.0730 -0.4105
  112OSM   H11S11637   2.055   3.842   9.799 -0.1902  1.6494 -0.3891
  112OSM   H11T11638   1.894   3.908   9.754  2.6741  1.7042  0.4665
  112OSM   C12S11639   1.950   3.718   9.661 -0.0598 -0.7594  0.4507
  112OSM   H12S11640   1.843   3.688   9.653 -0.8577  1.4286  2.2119
  112OSM   H12T11641   2.016   3.629   9.659 -0.1228 -0.8086  0.5616
  112OSM   C13S11642   2.015   3.785   9.544  0.0656  0.1570 -0.6050
  112OSM   H13S11643   2.125   3.778   9.554  0.0633 -1.5402 -1.5403
  112OSM   H13T11644   1.980   3.891   9.547  2.6124  0.9893  1.2893
  112OSM   C14S11645   1.983   3.712   9.414 -0.2496  0.1818 -0.1357
  112OSM   H14S11646   1.874   3.731   9.397 -0.5414  0.6580  2.0460
  112OSM   H14T11647   1.993   3.601   9.421  4.8881  0.4294 -1.8284
  112OSM   C15S11648   2.070   3.754   9.291 -0.2438 -0.8646  0.0992
  112OSM   H15S11649   2.172   3.720   9.315 -0.2652 -1.9260 -1.2912
  112OSM   H15T11650   2.071   3.865   9.281  0.2264 -0.8964 -0.1756
  112OSM   C16S11651   2.017   3.691   9.159  0.4870  0.3099 -0.0212
  112OSM   H16S11652   1.918   3.732   9.128 -0.9886 -2.9053  0.2037
  112OSM   H16T11653   1.983   3.588   9.179 -0.9315  0.9454  0.9707
  112OSM   C17S11654   2.116   3.709   9.049 -0.0812 -0.3754  0.1920
  112OSM   H17S11655   2.213   3.660   9.071  0.6709  1.3755  0.8306
  112OSM   H17T11656   2.133   3.818   9.039 -0.3131  0.0165  3.6718
  112OSM   C18S11657   2.062   3.644   8.922  0.2245 -0.1502  0.5424
  112OSM   H18S11658   1.964   3.687   8.892  0.1363 -1.2838 -0.8315
  112OSM   H18T11659   2.058   3.534   8.938 -1.3576 -0.0226  1.0744
  112OSM   H18U11660   2.134   3.672   8.843 -0.9200  1.4813  0.0468
  112OSM    C1F11661   2.234   4.263  10.391 -0.8613  0.2201 -0.9592
  112OSM     OF11662   2.352   4.287  10.425 -0.3170  0.0039 -0.1099
  112OSM    C2F11663   2.176   4.291  10.252 -0.0212  0.1299  0.5191
  112OSM    H2F11664   2.093   4.365  10.254 -1.0143 -1.0042  2.5319
  112OSM    H2G11665   2.130   4.197  10.217  3.3514 -1.5542  0.3395
  112OSM    C3F11666   2.290   4.319  10.152 -0.1366  0.4389  0.5778
  112OSM    H3F11667   2.377   4.251  10.163 -2.0203 -2.5578 -2.1350
  112OSM    H3G11668   2.326   4.424  10.163 -2.0514  1.1258  0.4337
  112OSM    C4F11669   2.232   4.305  10.012  0.5095  0.7207  0.1414
  112OSM    H4F11670   2.145   4.375  10.007  0.5793  1.2423  4.2309
  112OSM    H4G11671   2.192   4.204   9.991  1.0629  0.5311  0.0031
  112OSM    C5F11672   2.340   4.339   9.914  0.8310  0.1093  0.1004
  112OSM    H5F11673   2.407   4.251   9.905 -0.7205 -0.8775 -2.2517
  112OSM    H5G11674   2.398   4.428   9.946 -0.7535  0.7639  1.2530
  112OSM    C6F11675   2.282   4.360   9.770  0.5182  0.4421  0.0597
  112OSM    H6F11676   2.202   4.437   9.776  2.6753  2.5307  3.2569
  112OSM    H6G11677   2.246   4.262   9.732 -2.5516  0.8253  1.8389
  112OSM    C7F11678   2.386   4.413   9.670  0.0554 -0.0385  0.5574
  112OSM    H7F11679   2.468   4.338   9.672  1.3947  1.3885  0.2097
  112OSM    H7G11680   2.434   4.511   9.692  0.2978 -0.1589  0.5667
  112OSM    C8F11681   2.330   4.410   9.532  0.3878 -0.3688 -0.1117
  112OSM    H8F11682   2.240   4.476   9.531  0.5943 -0.0931 -0.3472
  112OSM    H8G11683   2.291   4.313   9.496 -1.2782  1.1930 -2.7200
  112OSM    C9F11684   2.438   4.447   9.426 -0.4243  0.5243  0.3882
  112OSM    H9F11685   2.520   4.375   9.414 -0.2593  0.5387  1.3729
  112OSM   C10F11686   2.434   4.541   9.327 -0.5985  0.3931  0.2408
  112OSM   H10F11687   2.510   4.546   9.247 -3.8385 -0.1252 -2.9903
  112OSM   C11F11688   2.324   4.646   9.307  0.2381  0.0503 -0.0317
  112OSM   H11F11689   2.227   4.618   9.354 -0.8538  1.2792 -1.5095
  112OSM   H11G11690   2.305   4.648   9.198  0.2212  0.4427 -0.0212
  112OSM   C12F11691   2.356   4.788   9.364 -0.3875  0.0418 -0.1594
  112OSM   H12F11692   2.274   4.861   9.347 -0.4199  0.4534  1.6586
  112OSM   H12G11693   2.446   4.830   9.314  0.4846 -0.8755  0.6209
  112OSM   C13F11694   2.381   4.784   9.513 -0.2733 -0.6110  0.6936
  112OSM   H13F11695   2.472   4.728   9.540 -0.9408 -1.7657  0.5663
  112OSM   H13G11696   2.292   4.733   9.555  0.4551 -1.3915  1.3056
  112OSM   C14F11697   2.393   4.924   9.576  0.1773 -0.4044  0.0783
  112OSM   H14F11698   2.306   4.987   9.548 -2.5579 -2.9832  2.4501
  112OSM   H14G11699   2.486   4.979   9.551  1.8750 -3.1080  0.1976
  112OSM   C15F11700   2.393   4.932   9.733  0.3000 -0.1089  0.8683
  112OSM   H15F11701   2.483   4.877   9.768 -0.3027 -0.7197  1.4666
  112OSM   H15G11702   2.301   4.874   9.758 -1.6477  2.0402 -1.0538
  112OSM   C16F11703   2.385   5.082   9.784 -0.6862  0.2538  0.8887
  112OSM   H16F11704   2.294   5.122   9.735 -0.3017  0.1031  0.0549
  112OSM   H16G11705   2.473   5.137   9.746  0.2338 -0.1507  2.3701
  112OSM   C17F11706   2.381   5.079   9.938 -0.2829  0.2205  0.0979
  112OSM   H17F11707   2.477   5.042   9.978 -1.4804 -2.7123  0.4209
  112OSM   H17G11708   2.300   5.011   9.973 -0.7398  1.2397  1.0485
  112OSM   C18F11709   2.351   5.218  10.007 -0.3732 -0.6367 -0.0040
  112OSM   H18F11710   2.248   5.255   9.993 -0.0606 -0.4085 -1.9260
  112OSM   H18G11711   2.423   5.299   9.981 -1.3676  0.6996  1.3168
  112OSM   H18H11712   2.361   5.215  10.117  1.4539  1.5573 -0.0642
  113OSM      N11713   5.223   1.040  11.153 -0.3552 -0.0174 -0.1542
  113OSM    C1511714   5.115   0.937  11.168 -0.6334 -0.5928  0.1579
  113OSM   H15A11715   5.145   0.836  11.144  1.3257 -0.4682  1.8964
  113OSM   H15B11716   5.039   0.973  11.099 -1.3606  0.8252  1.6551
  113OSM   H15C11717   5.074   0.939  11.268  0.0636 -1.4073  0.4585
  113OSM    C1411718   5.171   1.176  11.178  0.0217 -0.6837 -0.0005
  113OSM   H14A11719   5.141   1.190  11.281 -0.1202 -3.0548  0.2968
  113OSM   H14B11720   5.091   1.194  11.107 -0.8927 -1.1122  0.9080
  113OSM   H14C11721   5.238   1.252  11.141 -0.0468 -1.0905 -0.9685
  113OSM    C1311722   5.322   1.011  11.258 -0.0675 -0.1873  0.0011
  113OSM   H13A11723   5.294   1.031  11.361  2.0415  0.0132  0.5645
  113OSM   H13B11724   5.414   1.066  11.246 -0.2504  0.7787  2.6310
  113OSM   H13C11725   5.342   0.906  11.241  0.1787 -0.2815  0.8184
  113OSM    C1211726   5.285   1.025  11.014  0.1435  0.6808 -0.1723
  113OSM   H12A11727   5.208   1.004  10.941 -2.3841 -0.5630  2.7803
  113OSM   H12B11728   5.353   0.941  11.008  1.2918  1.4638  1.3107
  113OSM    C1111729   5.360   1.144  10.951 -0.2614 -0.0154  0.3394
  113OSM   H11A11730   5.286   1.224  10.928 -1.7413 -1.9897 -2.1203
  113OSM   H11B11731   5.390   1.106  10.851 -0.9060 -1.3335  0.6388
  113OSM      P11732   5.516   1.322  11.076 -0.0245  0.2916 -0.6124
  113OSM    O1311733   5.402   1.417  11.077  0.0604  0.2377  0.0756
  113OSM    O1411734   5.584   1.302  11.204  0.4282 -0.1507  0.4135
  113OSM    O1111735   5.607   1.369  10.957  0.5902  0.0453 -0.0557
  113OSM    O1211736   5.468   1.178  11.028  0.4386  0.4324  0.1865
  113OSM    C1S11737   5.709   1.276  10.906 -0.0384  0.0966  0.1387
  113OSM    H1S11738   5.700   1.174  10.950 -1.1364  0.5025  0.8765
  113OSM    H1T11739   5.807   1.317  10.940 -0.3500  1.1902 -0.2478
  113OSM     NF11740   5.800   1.168  10.700  0.8428 -1.0678 -0.2628
  113OSM    HNF11741   5.890   1.207  10.683 -0.4959  2.8045  0.9704
  113OSM    C2S11742   5.705   1.260  10.745 -0.7592 -0.3041 -0.1051
  113OSM    H2S11743   5.606   1.218  10.721 -0.9323 -0.6064  1.1102
  113OSM    C3S11744   5.717   1.400  10.677 -0.1320 -0.8028 -0.3307
  113OSM    H3S11745   5.823   1.423  10.700 -0.6407  0.3066  1.0213
  113OSM     O311746   5.627   1.497  10.735 -0.5537  0.0457 -0.3253
  113OSM    HO311747   5.596   1.457  10.817  0.5059  1.3368  0.7211
  113OSM    C4S11748   5.699   1.380  10.534 -0.0284  0.3155 -0.0863
  113OSM    H4S11749   5.593   1.358  10.512 -0.2245  0.1660  0.9663
  113OSM    C5S11750   5.796   1.389  10.443  0.4512 -0.4389  0.3032
  113OSM    H5S11751   5.900   1.405  10.476  0.6887 -2.1416  0.4197
  113OSM    C6S11752   5.770   1.376  10.293 -0.3015 -0.5041  0.5585
  113OSM    H6S11753   5.755   1.267  10.277  0.4448 -0.7311  1.3456
  113OSM    H6T11754   5.861   1.409  10.238 -0.6428  3.3266  2.1102
  113OSM    C7S11755   5.657   1.454  10.228  0.6436  0.1665  0.2360
  113OSM    H7S11756   5.682   1.562  10.216  1.4090 -0.2005 -1.4805
  113OSM    H7T11757   5.567   1.452  10.293  0.4591 -0.5656 -0.0410
  113OSM    C8S11758   5.630   1.409  10.084  0.2496  0.2168  0.5741
  113OSM    H8S11759   5.526   1.440  10.063 -1.0665 -2.3821  2.9499
  113OSM    H8T11760   5.644   1.299  10.086 -3.0435 -0.2222  1.9723
  113OSM    C9S11761   5.720   1.472   9.981  0.7690 -0.0964 -0.2359
  113OSM    H9S11762   5.819   1.421   9.978  0.8113 -0.1303  1.4089
  113OSM    H9T11763   5.739   1.578  10.006  1.0375 -0.4149  0.9440
  113OSM   C10S11764   5.666   1.470   9.839  0.0997  0.5998  0.3012
  113OSM   H10S11765   5.571   1.526   9.845 -0.8427 -0.9071 -0.2253
  113OSM   H10T11766   5.647   1.366   9.805  0.9557  1.1106 -1.7997
  113OSM   C11S11767   5.769   1.538   9.743  0.3636 -1.0111 -0.0154
  113OSM   H11S11768   5.866   1.485   9.756  0.4615 -0.7024  0.5444
  113OSM   H11T11769   5.775   1.644   9.776  0.6574 -0.5432 -1.5202
  113OSM   C12S11770   5.716   1.535   9.595 -0.1677 -0.9363 -0.4770
  113OSM   H12S11771   5.798   1.584   9.537 -1.6354  1.0309 -0.9637
  113OSM   H12T11772   5.628   1.602   9.580  0.0418 -0.0465  2.0025
  113OSM   C13S11773   5.711   1.394   9.540  0.2245  0.6333 -0.7045
  113OSM   H13S11774   5.611   1.351   9.561  0.2727  0.1241 -1.5049
  113OSM   H13T11775   5.791   1.336   9.592 -2.5628 -0.6842  2.2651
  113OSM   C14S11776   5.735   1.378   9.386 -0.4365 -0.7265  0.0794
  113OSM   H14S11777   5.647   1.412   9.327  0.3066  1.9760  0.4739
  113OSM   H14T11778   5.730   1.267   9.379 -1.4864 -0.6796  0.0186
  113OSM   C15S11779   5.876   1.423   9.338 -0.5761 -0.5761 -0.5761
  113OSM   H15S11780   5.952   1.375   9.404  1.1106 -1.1685 -2.8622
  113OSM   H15T11781   5.889   1.534   9.341 -0.3017 -0.6556  1.5698
  113OSM   C16S11782   5.917   1.372   9.204 -1.0173 -0.2776 -0.8067
  113OSM   H16S11783   5.887   1.265   9.205 -0.2251 -0.5252  1.9310
  113OSM   H16T11784   6.028   1.377   9.203 -1.0115 -0.3262 -2.7416
  113OSM   C17S11785   5.850   1.443   9.084 -0.8889 -0.2939 -0.7214
  113OSM   H17S11786   5.876   1.551   9.087  0.7946 -0.7062  2.3408
  113OSM   H17T11787   5.741   1.429   9.100 -1.0279  0.6201 -0.8212
  113OSM   C18S11788   5.890   1.409   8.946 -0.4759  0.4941 -0.2222
  113OSM   H18S11789   5.882   1.304   8.911  0.7398 -0.6679  2.8322
  113OSM   H18T11790   5.995   1.437   8.921  0.7005 -2.3862  1.2379
  113OSM   H18U11791   5.820   1.457   8.874 -1.5464 -0.5705  0.0983
  113OSM    C1F11792   5.784   1.035  10.715  0.1785 -0.1484 -0.4345
  113OSM     OF11793   5.683   0.996  10.771  0.6117  0.4640 -0.3875
  113OSM    C2F11794   5.900   0.949  10.690 -0.6524  0.5592 -0.0970
  113OSM    H2F11795   5.912   0.881  10.777  2.2002  3.0043  1.4960
  113OSM    H2G11796   5.991   1.010  10.679  0.1632 -0.4088  1.0772
  113OSM    C3F11797   5.876   0.859  10.563 -0.1707 -0.1527 -0.4057
  113OSM    H3F11798   5.810   0.772  10.582  0.4223 -0.5612 -0.2162
  113OSM    H3G11799   5.974   0.825  10.523 -0.0290  1.2406 -1.2675
  113OSM    C4F11800   5.830   0.939  10.437  0.6246 -0.7372  0.3052
  113OSM    H4F11801   5.900   1.020  10.409  1.9820 -1.5821  1.2094
  113OSM    H4G11802   5.727   0.972  10.461  1.0021 -0.3859  1.4540
  113OSM    C5F11803   5.829   0.855  10.310 -0.3412  0.0879  0.2134
  113OSM    H5F11804   5.772   0.760  10.315 -0.4151  0.0711 -0.9073
  113OSM    H5G11805   5.935   0.823  10.298 -0.2254  0.2151  0.8824
  113OSM    C6F11806   5.781   0.935  10.184 -0.6932 -0.2039  0.3176
  113OSM    H6F11807   5.848   1.024  10.183 -2.1658  0.9557  1.6820
  113OSM    H6G11808   5.673   0.963  10.193 -0.7243  0.4207 -1.7779
  113OSM    C7F11809   5.811   0.854  10.051  0.4058  0.0244  0.2715
  113OSM    H7F11810   5.806   0.748  10.081 -3.0521  0.2877  0.8216
  113OSM    H7G11811   5.913   0.871  10.011 -0.6048  0.7948 -2.1087
  113OSM    C8F11812   5.719   0.882   9.932  0.0706 -0.2527 -0.2506
  113OSM    H8F11813   5.614   0.852   9.954 -0.3597  1.6326  0.3804
  113OSM    H8G11814   5.742   0.819   9.844 -0.7324  0.5127 -1.0274
  113OSM    C9F11815   5.712   1.032   9.888 -0.2597  0.3690  0.0710
  113OSM    H9F11816   5.728   1.103   9.970  1.4931  1.2805 -1.0257
  113OSM   C10F11817   5.694   1.069   9.761 -0.7744  0.2170  0.4502
  113OSM   H10F11818   5.683   1.178   9.745  0.8640  0.2360 -0.6363
  113OSM   C11F11819   5.681   0.990   9.633 -0.8186 -0.1068 -0.2416
  113OSM   H11F11820   5.599   1.028   9.569 -2.1020 -1.4790  0.5538
  113OSM   H11G11821   5.672   0.881   9.654 -0.8239  0.3039  2.0274
  113OSM   C12F11822   5.799   1.004   9.539 -0.4744  0.1632 -0.2247
  113OSM   H12F11823   5.889   0.947   9.572  1.0271  2.4364 -0.2531
  113OSM   H12G11824   5.823   1.111   9.517  0.9020  0.3780  2.0911
  113OSM   C13F11825   5.764   0.938   9.404  0.2745  0.0236  0.8976
  113OSM   H13F11826   5.667   0.985   9.378 -0.5665 -1.9829  0.3472
  113OSM   H13G11827   5.757   0.828   9.415 -0.5195  0.0452  0.6535
  113OSM   C14F11828   5.847   0.981   9.276  0.0141 -0.3519  0.1872
  113OSM   H14F11829   5.950   0.941   9.266 -0.5054 -1.2787 -1.7294
  113OSM   H14G11830   5.851   1.090   9.296  0.5646 -0.4198  0.4661
  113OSM   C15F11831   5.779   0.939   9.146  0.9103 -0.4406  0.4367
  113OSM   H15F11832   5.675   0.977   9.134  1.1361  0.5306  1.4495
  113OSM   H15G11833   5.758   0.830   9.146  1.6865 -0.6957 -4.2709
  113OSM   C16F11834   5.858   0.968   9.012 -0.0912  0.2247 -0.6367
  113OSM   H16F11835   5.958   0.922   9.030 -1.0521 -1.7927 -0.2808
  113OSM   H16G11836   5.858   1.079   9.007 -0.2037  0.2123 -0.8953
  113OSM   C17F11837   5.803   0.901   8.888  0.0014 -0.7274  0.0705
  113OSM   H17F11838   5.842   0.954   8.798  0.5932 -0.0420  0.7217
  113OSM   H17G11839   5.692   0.914   8.889 -0.1062 -1.6587  0.3803
  113OSM   C18F11840   5.838   0.750   8.879 -0.5530 -0.0195  0.3408
  113OSM   H18F11841   5.821   0.713   8.776 -2.6875  1.8004  0.0074
  113OSM   H18G11842   5.774   0.694   8.950 -0.0565 -0.4004  0.4919
  113OSM   H18H11843   5.942   0.733   8.915 -0.8518 -0.4972  0.9766
  114OSM      N11844   0.600   4.025  11.117 -0.9345  0.4328  0.4388
  114OSM    C1511845   0.596   4.162  11.172  0.6127  0.5008  0.0249
  114OSM   H15A11846   0.566   4.166  11.275 -0.7693  1.7489 -0.4106
  114OSM   H15B11847   0.527   4.222  11.115 -1.3425  0.0186  1.8329
  114OSM   H15C11848   0.685   4.223  11.170  0.7973  0.2269 -0.2369
  114OSM    C1411849   0.477   3.950  11.138  0.1064  0.7007 -0.4859
  114OSM   H14A11850   0.487   3.846  11.110  0.3498  0.3751  0.7712
  114OSM   H14B11851   0.394   4.003  11.094  0.0740  1.4640  0.4999
  114OSM   H14C11852   0.455   3.936  11.242  0.0529  1.1932 -0.4297
  114OSM    C1311853   0.623   4.044  10.968  0.1040 -0.8983 -0.7270
  114OSM   H13A11854   0.711   4.105  10.952 -0.7427  0.2868 -0.9604
  114OSM   H13B11855   0.543   4.096  10.916  0.2740  0.9022  0.7375
  114OSM   H13C11856   0.644   3.951  10.917  0.2008 -1.2219 -0.0944
  114OSM    C1211857   0.719   3.945  11.168 -0.6320 -0.0828 -0.5103
  114OSM   H12A11858   0.729   3.856  11.107  1.4403 -0.8493  0.8727
  114OSM   H12B11859   0.711   3.912  11.271  1.2647 -0.6375 -0.5086
  114OSM    C1111860   0.856   4.020  11.165 -0.3820 -0.2099 -0.2324
  114OSM   H11A11861   0.847   4.107  11.234  0.3170  0.3774 -0.8783
  114OSM   H11B11862   0.867   4.051  11.059 -0.8728 -1.7691 -0.7534
  114OSM      P11863   1.016   3.826  11.109  0.0904 -0.2544  0.1626
  114OSM    O1311864   1.154   3.792  11.146 -0.4021  0.3616 -0.2592
  114OSM    O1411865   0.912   3.719  11.109  0.1711  0.4628  0.2161
  114OSM    O1111866   1.018   3.894  10.972  0.5075  0.0105  0.8359
  114OSM    O1211867   0.971   3.939  11.203  0.0193 -0.6562  0.1807
  114OSM    C1S11868   0.969   3.841  10.842  0.3065 -0.7836 -0.3385
  114OSM    H1S11869   0.859   3.856  10.841  0.0721 -2.3677 -0.0307
  114OSM    H1T11870   0.984   3.733  10.820  0.7691 -0.8795  0.4483
  114OSM     NF11871   0.973   3.840  10.613  0.3388 -0.0240 -0.0056
  114OSM    HNF11872   0.998   3.745  10.599  0.6549 -0.3625  2.5569
  114OSM    C2S11873   1.044   3.899  10.725  0.9895  0.0431  0.1369
  114OSM    H2S11874   1.038   4.010  10.722 -0.4908  0.0291  1.7711
  114OSM    C3S11875   1.196   3.860  10.742  0.2162 -1.1051  0.5866
  114OSM    H3S11876   1.205   3.752  10.764  0.3085 -0.8300  1.9384
  114OSM     O311877   1.249   3.921  10.858 -0.0878 -0.2571  0.2043
  114OSM    HO311878   1.173   3.947  10.911 -1.8113  4.0735 -3.9581
  114OSM    C4S11879   1.282   3.900  10.632 -0.1252  0.0388  0.1036
  114OSM    H4S11880   1.289   4.008  10.611  2.2919  0.4662  2.8140
  114OSM    C5S11881   1.355   3.832  10.542  0.0020  0.1526  0.6858
  114OSM    H5S11882   1.362   3.722  10.550  1.3918  0.2635  1.1172
  114OSM    C6S11883   1.441   3.886  10.437  0.5731  0.6009  0.0176
  114OSM    H6S11884   1.548   3.864  10.457 -0.1937 -2.7320  0.7316
  114OSM    H6T11885   1.431   3.996  10.430  0.1210  0.7512  2.5685
  114OSM    C7S11886   1.394   3.825  10.308  0.1105  0.3933  0.2911
  114OSM    H7S11887   1.284   3.839  10.310 -0.0453 -0.9727  1.4520
  114OSM    H7T11888   1.413   3.716  10.296 -0.7751  0.1370  1.2039
  114OSM    C8S11889   1.457   3.899  10.188  0.5574  0.3920  0.0686
  114OSM    H8S11890   1.565   3.920  10.204  0.7989 -0.8513  0.1098
  114OSM    H8T11891   1.414   4.000  10.169 -0.0671 -0.2707 -2.2134
  114OSM    C9S11892   1.431   3.816  10.052  0.5426  0.8816 -0.2329
  114OSM    H9S11893   1.323   3.798  10.036  0.7847 -1.2829  0.3486
  114OSM    H9T11894   1.480   3.716  10.058 -0.6686  0.2727 -0.3607
  114OSM   C10S11895   1.502   3.886   9.930 -0.1187 -0.1252  0.5523
  114OSM   H10S11896   1.610   3.902   9.951 -0.1249 -0.0790  0.5476
  114OSM   H10T11897   1.458   3.987   9.916 -0.3405 -0.2756  0.1509
  114OSM   C11S11898   1.498   3.804   9.797 -0.3436 -0.0138 -0.0746
  114OSM   H11S11899   1.389   3.794   9.782 -0.1910 -1.4891 -0.3061
  114OSM   H11T11900   1.555   3.715   9.831 -1.7261 -0.2473  1.7187
  114OSM   C12S11901   1.560   3.884   9.677  0.0569  0.5674  0.0317
  114OSM   H12S11902   1.669   3.894   9.697 -0.1003  2.1303  0.2002
  114OSM   H12T11903   1.508   3.982   9.672  1.0855  1.1158 -0.0753
  114OSM   C13S11904   1.537   3.818   9.539 -0.5503  0.6284  0.0449
  114OSM   H13S11905   1.426   3.813   9.530 -0.5520 -1.9583  1.0160
  114OSM   H13T11906   1.567   3.711   9.540 -3.1215 -0.1393  1.8082
  114OSM   C14S11907   1.609   3.883   9.426 -0.4648  0.1244  0.4008
  114OSM   H14S11908   1.719   3.882   9.441 -0.2208 -0.9457 -1.3487
  114OSM   H14T11909   1.576   3.989   9.418  2.2825  1.0031  0.1751
  114OSM   C15S11910   1.573   3.807   9.301 -0.1418 -0.6831  0.2662
  114OSM   H15S11911   1.463   3.813   9.289 -0.1836  0.9933  1.3567
  114OSM   H15T11912   1.579   3.698   9.326  1.1445 -1.1554 -1.9518
  114OSM   C16S11913   1.652   3.853   9.181 -0.1094  0.4832  0.0200
  114OSM   H16S11914   1.756   3.846   9.218  0.2293  3.7512 -0.2023
  114OSM   H16T11915   1.628   3.960   9.167  1.5563  0.7537 -0.8184
  114OSM   C17S11916   1.643   3.765   9.060  0.0838 -0.7838  0.0362
  114OSM   H17S11917   1.646   3.661   9.099  2.1997 -1.0098 -0.6411
  114OSM   H17T11918   1.729   3.778   8.991 -0.8663  0.3629 -0.9630
  114OSM   C18S11919   1.509   3.781   8.992  0.2850  0.2701 -0.1673
  114OSM   H18S11920   1.437   3.746   9.069  0.6702 -0.3973 -0.1076
  114OSM   H18T11921   1.500   3.727   8.895 -3.0035  0.4975 -0.0539
  114OSM   H18U11922   1.494   3.890   8.979 -0.5004  0.2717  0.6954
  114OSM    C1F11923   0.863   3.889  10.559  0.3470  0.9747  0.0791
  114OSM     OF11924   0.794   3.981  10.606 -0.4025 -0.2578  0.4514
  114OSM    C2F11925   0.839   3.834  10.421  0.1758 -0.9651  0.7908
  114OSM    H2F11926   0.897   3.741  10.401  1.0566  0.0887 -1.8298
  114OSM    H2G11927   0.878   3.910  10.350  2.5505 -1.8273  1.1462
  114OSM    C3F11928   0.690   3.824  10.377 -0.7319 -0.0293 -0.2688
  114OSM    H3F11929   0.630   3.916  10.394 -0.6436 -0.1343  0.6647
  114OSM    H3G11930   0.637   3.754  10.446 -0.1731 -0.2703 -0.0818
  114OSM    C4F11931   0.665   3.772  10.236 -0.0903 -0.0567 -0.3536
  114OSM    H4F11932   0.558   3.741  10.229  0.6402 -2.4011 -1.5523
  114OSM    H4G11933   0.711   3.672  10.222 -1.0458 -0.7833  1.4857
  114OSM    C5F11934   0.701   3.865  10.113 -0.0295  0.4587 -0.5201
  114OSM    H5F11935   0.812   3.875  10.110  0.1131 -1.1258 -1.2342
  114OSM    H5G11936   0.652   3.964  10.124 -0.8398  0.0035  0.0610
  114OSM    C6F11937   0.642   3.791   9.991  0.4171  0.2614 -0.6305
  114OSM    H6F11938   0.539   3.829   9.975  1.0776  1.5604 -1.9390
  114OSM    H6G11939   0.652   3.681  10.003  0.5912  0.4182  0.7489
  114OSM    C7F11940   0.708   3.823   9.857 -0.4155  0.4376  0.2152
  114OSM    H7F11941   0.818   3.810   9.869 -0.5456  1.0677  2.1589
  114OSM    H7G11942   0.682   3.930   9.840 -0.6664  0.0740 -1.8113
  114OSM    C8F11943   0.651   3.746   9.738 -0.3650 -0.1622  0.1858
  114OSM    H8F11944   0.541   3.749   9.752 -0.5346  1.2023 -1.3619
  114OSM    H8G11945   0.687   3.641   9.741  1.2538  0.2975 -1.6526
  114OSM    C9F11946   0.693   3.815   9.610  0.3828  0.3615 -0.1967
  114OSM    H9F11947   0.660   3.919   9.594 -0.7351 -0.1903 -1.5688
  114OSM   C10F11948   0.767   3.767   9.507 -0.7239 -0.0599 -0.4611
  114OSM   H10F11949   0.796   3.838   9.429 -2.0140  0.9406 -0.0605
  114OSM   C11F11950   0.822   3.629   9.503 -0.0236 -0.6816  1.0394
  114OSM   H11F11951   0.814   3.563   9.592 -1.2110 -1.2040  0.5565
  114OSM   H11G11952   0.931   3.640   9.482 -0.3105 -2.6630 -1.7359
  114OSM   C12F11953   0.778   3.552   9.372 -0.2536 -0.3276 -0.2665
  114OSM   H12F11954   0.667   3.559   9.374 -0.2441 -0.1855  2.4202
  114OSM   H12G11955   0.809   3.445   9.373  1.7223  0.2345  1.2140
  114OSM   C13F11956   0.838   3.605   9.244  0.0510  0.3169  0.2244
  114OSM   H13F11957   0.948   3.616   9.248  0.1179  0.1155 -0.8528
  114OSM   H13G11958   0.789   3.703   9.225  0.6388  0.2101 -2.0223
  114OSM   C14F11959   0.799   3.512   9.130  0.0246 -0.4884 -0.3572
  114OSM   H14F11960   0.691   3.491   9.144 -0.4080  0.7188 -1.8219
  114OSM   H14G11961   0.860   3.419   9.139  0.7811  0.0742  0.3680
  114OSM   C15F11962   0.829   3.572   8.989 -0.1732  0.3807  0.2766
  114OSM   H15F11963   0.935   3.606   8.992  0.1439 -0.1772 -2.9147
  114OSM   H15G11964   0.749   3.648   8.983  0.7523  1.4607  1.3121
  114OSM   C16F11965   0.808   3.467   8.875 -0.6331  0.9614  0.1290
  114OSM   H16F11966   0.708   3.419   8.878 -0.6084  0.9156  0.2088
  114OSM   H16G11967   0.888   3.391   8.875 -0.8776  0.6824 -1.4262
  114OSM   C17F11968   0.817   3.525   8.733 -0.2885  0.3587  0.1085
  114OSM   H17F11969   0.915   3.570   8.705 -0.8927 -0.0531 -2.7609
  114OSM   H17G11970   0.745   3.609   8.740 -0.5008  0.1105  1.0955
  114OSM   C18F11971   0.769   3.431   8.624 -0.0523  0.1195 -0.2498
  114OSM   H18F11972   0.658   3.428   8.625 -0.2429  3.9355 -0.8954
  114OSM   H18G11973   0.802   3.329   8.652  0.1841  0.4079  0.5332
  114OSM   H18H11974   0.802   3.465   8.524  1.3788 -0.2195  0.0949
  115OSM      N11975   4.996   2.827  11.208 -0.1295  0.4846 -0.1540
  115OSM    C1511976   4.868   2.754  11.186  0.5077  0.2422  0.0916
  115OSM   H15A11977   4.824   2.726  11.281  0.8402 -0.9590 -0.0902
  115OSM   H15B11978   4.887   2.666  11.126 -0.0558 -0.8758  1.5211
  115OSM   H15C11979   4.791   2.806  11.132  0.5951  0.1130 -0.1626
  115OSM    C1411980   4.963   2.949  11.297 -0.2950 -0.6259  0.5258
  115OSM   H14A11981   4.905   3.012  11.232  0.8150 -1.5290 -1.3754
  115OSM   H14B11982   5.050   3.007  11.326  0.1959  0.4127 -2.8103
  115OSM   H14C11983   4.908   2.920  11.385 -1.4705 -1.4200 -0.4574
  115OSM    C1311984   5.098   2.741  11.275 -0.0951 -0.0761  0.8532
  115OSM   H13A11985   5.123   2.655  11.213  1.3723  0.5345  0.5835
  115OSM   H13B11986   5.057   2.708  11.370  1.6315  0.3030  1.7372
  115OSM   H13C11987   5.190   2.793  11.294 -1.7096  2.1488  2.9843
  115OSM    C1211988   5.054   2.872  11.078 -0.1423 -0.0089  0.4706
  115OSM   H12A11989   4.979   2.936  11.033 -1.0651 -0.8510  0.8033
  115OSM   H12B11990   5.068   2.791  11.007  1.3895  0.5591  0.1014
  115OSM    C1111991   5.177   2.965  11.079 -0.8761  0.1621 -0.4256
  115OSM   H11A11992   5.238   2.944  10.989  1.1383 -2.2601  1.4433
  115OSM   H11B11993   5.235   2.919  11.162  0.4336 -1.5239 -2.2488
  115OSM      P11994   5.064   3.196  11.016 -0.2554  0.4145  0.2007
  115OSM    O1311995   4.956   3.254  11.099  0.7777  0.3168  0.0252
  115OSM    O1411996   5.165   3.286  10.949  0.2982  0.0601  0.2614
  115OSM    O1111997   5.001   3.093  10.911  0.0451 -0.5912  0.1708
  115OSM    O1211998   5.149   3.103  11.113  0.2287  0.1436 -0.4368
  115OSM    C1S11999   4.988   3.129  10.774  0.0397 -0.2232 -0.6348
  115OSM    H1S12000   5.089   3.140  10.729  1.5735 -2.2491  2.2079
  115OSM    H1T12001   4.935   3.227  10.766 -0.5458 -0.4523  0.2968
  115OSM     NF12002   4.909   3.079  10.544  0.0038  0.1084  0.1253
  115OSM    HNF12003   4.824   3.129  10.530  1.1119  1.7534 -0.9059
  115OSM    C2S12004   4.918   3.020  10.684 -0.0433  0.1248  0.1206
  115OSM    H2S12005   4.986   2.934  10.668 -0.0115  0.4518 -1.6041
  115OSM    C3S12006   4.781   2.973  10.751  0.3570 -0.3205  0.2761
  115OSM    H3S12007   4.727   3.069  10.767 -1.9838 -1.6497  0.6157
  115OSM     O312008   4.793   2.904  10.876  0.0155 -0.5358  0.8271
  115OSM    HO312009   4.879   2.937  10.902 -1.1201  2.7575  0.6675
  115OSM    C4S12010   4.704   2.889  10.657  0.1590  0.0093 -0.0470
  115OSM    H4S12011   4.757   2.804  10.613 -0.1970  1.1259 -2.7085
  115OSM    C5S12012   4.574   2.919  10.618  0.0066 -0.0193 -0.2550
  115OSM    H5S12013   4.526   3.001  10.675 -3.2588 -1.6191 -0.5696
  115OSM    C6S12014   4.480   2.833  10.527  0.3008  0.0293  0.2171
  115OSM    H6S12015   4.442   2.892  10.441  0.6941 -0.7964 -0.5293
  115OSM    H6T12016   4.394   2.789  10.581 -0.5214 -0.6644 -1.5937
  115OSM    C7S12017   4.547   2.708  10.465  0.1895  0.1070 -0.5043
  115OSM    H7S12018   4.463   2.639  10.441 -0.3821  1.0111 -1.1326
  115OSM    H7T12019   4.619   2.655  10.531 -0.7017 -1.0401 -0.4516
  115OSM    C8S12020   4.622   2.750  10.340  0.3183 -0.2609 -0.4074
  115OSM    H8S12021   4.702   2.684  10.301  1.3728  0.5396  0.3816
  115OSM    H8T12022   4.662   2.853  10.348 -1.9652  0.5758  0.7202
  115OSM    C9S12023   4.528   2.738  10.218  0.5332 -0.2012 -0.9273
  115OSM    H9S12024   4.442   2.806  10.232 -0.2794 -1.2638 -0.7223
  115OSM    H9T12025   4.494   2.633  10.218  0.7654 -0.2993  1.0078
  115OSM   C10S12026   4.595   2.772  10.088  0.2802 -0.4173 -0.4904
  115OSM   H10S12027   4.675   2.697  10.071  1.3789  1.1179 -2.3593
  115OSM   H10T12028   4.643   2.871  10.105 -0.5804 -0.0934  0.1032
  115OSM   C11S12029   4.500   2.793   9.973  0.2863  0.3047  0.2270
  115OSM   H11S12030   4.428   2.874   9.997 -2.6076 -2.1611  0.3289
  115OSM   H11T12031   4.450   2.696   9.950  0.9548 -0.2827  1.2133
  115OSM   C12S12032   4.577   2.835   9.848  0.3016 -0.1980 -1.1399
  115OSM   H12S12033   4.675   2.783   9.847  0.1472 -0.6036  1.4279
  115OSM   H12T12034   4.598   2.944   9.848 -0.8219  0.0292 -0.7530
  115OSM   C13S12035   4.509   2.798   9.712  1.1359 -0.0687 -0.0677
  115OSM   H13S12036   4.406   2.839   9.715  0.2577 -2.1925 -0.5822
  115OSM   H13T12037   4.496   2.688   9.712 -0.1373  0.0661  1.0454
  115OSM   C14S12038   4.584   2.840   9.580  0.6643  1.1600 -0.2320
  115OSM   H14S12039   4.659   2.758   9.573 -0.7477 -0.1685  0.0480
  115OSM   H14T12040   4.642   2.933   9.599 -0.9723  2.2829 -0.7060
  115OSM   C15S12041   4.477   2.840   9.465 -0.2457  0.2475 -0.0509
  115OSM   H15S12042   4.396   2.914   9.483  1.3753  1.8312  0.8921
  115OSM   H15T12043   4.428   2.741   9.477  1.8974 -0.9087 -0.4434
  115OSM   C16S12044   4.539   2.857   9.327  0.2278  0.5431  0.9126
  115OSM   H16S12045   4.615   2.938   9.335  2.2829 -1.1119 -1.0976
  115OSM   H16T12046   4.470   2.910   9.258  0.6087  1.9548  1.5813
  115OSM   C17S12047   4.588   2.728   9.257  0.5535  0.7365 -0.6202
  115OSM   H17S12048   4.515   2.644   9.264 -0.4578  1.4971 -1.7698
  115OSM   H17T12049   4.674   2.698   9.321 -1.7117 -2.4594  1.0818
  115OSM   C18S12050   4.631   2.750   9.115  0.6850  0.1084  0.4569
  115OSM   H18S12051   4.715   2.823   9.114  1.0199 -0.2690  0.8413
  115OSM   H18T12052   4.543   2.790   9.061 -0.3545  0.1331  2.1708
  115OSM   H18U12053   4.666   2.664   9.053  0.8303 -0.0155  0.7121
  115OSM    C1F12054   5.019   3.104  10.468  0.2924  0.1175 -0.5397
  115OSM     OF12055   5.132   3.063  10.503 -0.3860  0.0020 -0.1097
  115OSM    C2F12056   4.992   3.170  10.333 -0.2331 -0.2837 -0.2119
  115OSM    H2F12057   4.881   3.174  10.331 -0.2629  1.6408  3.4087
  115OSM    H2G12058   5.027   3.102  10.251 -0.8246 -0.4033 -0.3703
  115OSM    C3F12059   5.040   3.317  10.325  0.2369  0.7856 -0.8600
  115OSM    H3F12060   5.141   3.333  10.370  0.6587 -1.1560 -1.0554
  115OSM    H3G12061   4.971   3.369  10.395  1.1759  0.2315  0.5165
  115OSM    C4F12062   5.026   3.380  10.186  0.0865  0.1732 -0.4925
  115OSM    H4F12063   5.071   3.479  10.210 -1.0236  1.1441 -2.3244
  115OSM    H4G12064   4.918   3.389  10.163  0.3946 -0.3282 -2.1592
  115OSM    C5F12065   5.091   3.320  10.060 -0.3987 -0.2940 -0.4506
  115OSM    H5F12066   5.051   3.221  10.031 -0.7215 -0.3647  0.2363
  115OSM    H5G12067   5.196   3.306  10.092 -0.2284  1.0110 -0.3912
  115OSM    C6F12068   5.086   3.404   9.933  0.2340 -0.1801  0.3020
  115OSM    H6F12069   5.148   3.495   9.945 -0.5686  0.3659  0.3366
  115OSM    H6G12070   4.980   3.434   9.920 -0.2360 -0.7089  2.6802
  115OSM    C7F12071   5.126   3.319   9.811  0.3302  0.5756  0.5749
  115OSM    H7F12072   5.065   3.227   9.806  0.4121  0.6238 -1.4348
  115OSM    H7G12073   5.233   3.288   9.812  0.2884  0.4108 -0.5197
  115OSM    C8F12074   5.103   3.398   9.684 -0.5663  0.8636 -0.1207
  115OSM    H8F12075   5.153   3.344   9.600  0.2602  1.0578  0.2404
  115OSM    H8G12076   5.168   3.488   9.692 -2.0495  1.9871 -0.5539
  115OSM    C9F12077   4.958   3.445   9.656 -0.0154 -0.5070  0.2207
  115OSM    H9F12078   4.901   3.483   9.742  0.7837  1.2685 -0.0079
  115OSM   C10F12079   4.889   3.443   9.543  0.5117  0.0165  0.1207
  115OSM   H10F12080   4.790   3.489   9.538  0.8054  0.4504 -2.3197
  115OSM   C11F12081   4.939   3.383   9.418 -0.3180  0.0143  0.2258
  115OSM   H11F12082   5.041   3.340   9.426 -0.4006 -0.5435 -1.5210
  115OSM   H11G12083   4.941   3.465   9.344 -2.0861 -0.9305 -0.9222
  115OSM   C12F12084   4.851   3.274   9.363 -0.8946 -0.6385  0.5740
  115OSM   H12F12085   4.750   3.319   9.349 -1.1243 -1.2135  0.3387
  115OSM   H12G12086   4.842   3.189   9.433 -1.2371 -1.2694 -0.2203
  115OSM   C13F12087   4.893   3.230   9.219 -0.5936 -0.0952 -0.3469
  115OSM   H13F12088   4.823   3.151   9.182  0.3401 -1.5323  0.8871
  115OSM   H13G12089   4.989   3.176   9.238 -0.6918  0.1234  0.7816
  115OSM   C14F12090   4.924   3.334   9.112 -0.1519 -0.3500  0.1210
  115OSM   H14F12091   4.938   3.274   9.020  0.2130  1.4143 -1.0009
  115OSM   H14G12092   5.020   3.384   9.139 -0.8622  0.6315  0.8558
  115OSM   C15F12093   4.816   3.446   9.088 -0.6900 -1.0246  0.5973
  115OSM   H15F12094   4.851   3.518   9.010 -0.8563 -1.2125  0.3505
  115OSM   H15G12095   4.807   3.516   9.174  2.0860  0.2443 -0.0985
  115OSM   C16F12096   4.684   3.393   9.035  0.2077  0.2389  0.5033
  115OSM   H16F12097   4.643   3.332   9.118 -1.0005  1.7912  1.0936
  115OSM   H16G12098   4.708   3.324   8.952  1.2534  2.3431 -0.9690
  115OSM   C17F12099   4.577   3.489   8.993  0.1422  0.2752 -0.2391
  115OSM   H17F12100   4.609   3.543   8.902 -0.3956 -0.2237 -0.7264
  115OSM   H17G12101   4.560   3.572   9.065 -0.5405 -2.5599  3.0206
  115OSM   C18F12102   4.445   3.413   8.967  0.4755 -0.9129 -0.3955
  115OSM   H18F12103   4.453   3.327   8.897  1.2276  0.4422 -2.0067
  115OSM   H18G12104   4.367   3.475   8.918 -1.2288 -2.1209  0.7482
  115OSM   H18H12105   4.405   3.363   9.057 -0.5451  2.2960  0.9847
  116OSM      N12106   0.520   6.223  10.812  0.3117 -0.0567  1.3327
  116OSM    C1512107   0.523   6.137  10.682 -0.2823  0.0707  0.1285
  116OSM   H15A12108   0.591   6.182  10.611  1.0072 -1.4817  0.3351
  116OSM   H15B12109   0.425   6.131  10.638 -0.0067  0.6003 -0.5665
  116OSM   H15C12110   0.567   6.040  10.698 -1.0423 -0.3818 -0.4804
  116OSM    C1412111   0.429   6.147  10.910 -0.6947 -0.3515  0.1520
  116OSM   H14A12112   0.412   6.210  10.996 -1.0955  0.8974 -0.8225
  116OSM   H14B12113   0.475   6.053  10.936  1.1426  0.7437  0.9451
  116OSM   H14C12114   0.333   6.132  10.862  0.2664 -0.3427 -1.8355
  116OSM    C1312115   0.664   6.209  10.862  0.1267  0.5445  0.1269
  116OSM   H13A12116   0.691   6.281  10.939 -1.7764 -0.4746  1.7963
  116OSM   H13B12117   0.720   6.221  10.771  0.3974  1.7711  0.4469
  116OSM   H13C12118   0.684   6.109  10.897  1.0529  1.2188  1.5795
  116OSM    C1212119   0.484   6.367  10.785  0.1262  0.2510  0.3000
  116OSM   H12A12120   0.393   6.358  10.727 -0.5230 -1.2043  1.5370
  116OSM   H12B12121   0.557   6.414  10.720 -0.4800  0.6507 -0.0958
  116OSM    C1112122   0.468   6.456  10.906  1.2428  0.9585 -0.2567
  116OSM   H11A12123   0.385   6.414  10.968 -0.2140  1.3299 -1.9301
  116OSM   H11B12124   0.437   6.551  10.859  1.3404  0.4777 -1.3045
  116OSM      P12125   0.663   6.600  10.995 -0.0903 -0.0732  0.1245
  116OSM    O1312126   0.552   6.685  11.043  0.5582  0.0567 -0.9595
  116OSM    O1412127   0.789   6.587  11.071  0.6004  0.0901  0.2248
  116OSM    O1112128   0.698   6.644  10.846 -0.1574 -0.6331  0.4221
  116OSM    O1212129   0.590   6.458  10.983 -0.0977 -0.0962 -0.3859
  116OSM    C1S12130   0.787   6.576  10.761  0.5774 -0.1133 -0.1559
  116OSM    H1S12131   0.785   6.466  10.776 -1.5940 -0.1875 -0.8017
  116OSM    H1T12132   0.895   6.602  10.771  0.8682 -1.3008 -0.1278
  116OSM     NF12133   0.831   6.531  10.515 -0.4463 -0.3422 -0.0532
  116OSM    HNF12134   0.908   6.587  10.484  0.9010 -1.9038  0.3935
  116OSM    C2S12135   0.748   6.602  10.608 -0.1768  0.3947 -0.2307
  116OSM    H2S12136   0.643   6.568  10.594  0.3937 -1.4919 -0.1593
  116OSM    C3S12137   0.740   6.753  10.572  0.5451 -0.5126 -0.3047
  116OSM    H3S12138   0.839   6.803  10.583 -1.1737  2.4587  2.6453
  116OSM     O312139   0.666   6.835  10.666  0.4135  0.4134  0.1030
  116OSM    HO312140   0.657   6.766  10.732  1.6726 -0.3528 -0.5083
  116OSM    C4S12141   0.673   6.770  10.440 -0.8334 -0.4067 -0.0404
  116OSM    H4S12142   0.564   6.758  10.446 -0.6845 -1.9388 -0.1526
  116OSM    C5S12143   0.728   6.803  10.320  0.4531  0.1822  0.2935
  116OSM    H5S12144   0.836   6.820  10.306  0.5250  1.8058  2.5864
  116OSM    C6S12145   0.640   6.800  10.197 -0.2953 -0.2882 -0.4186
  116OSM    H6S12146   0.699   6.760  10.112 -0.7552  0.2426 -0.9913
  116OSM    H6T12147   0.621   6.906  10.171 -1.3761  0.6942  3.9205
  116OSM    C7S12148   0.504   6.730  10.195 -0.3706 -0.0995  0.3939
  116OSM    H7S12149   0.429   6.784  10.256 -0.6616 -0.1989  0.1255
  116OSM    H7T12150   0.515   6.632  10.246  2.4899  0.1041  0.2583
  116OSM    C8S12151   0.444   6.702  10.060 -0.4136  0.7119 -0.3935
  116OSM    H8S12152   0.445   6.795   9.998  1.9655  1.4413  0.6779
  116OSM    H8T12153   0.342   6.662  10.075  0.0025 -0.0864  0.3324
  116OSM    C9S12154   0.515   6.598   9.984  0.0285 -0.4390 -0.2713
  116OSM    H9S12155   0.488   6.504  10.037  0.1926  1.2712  2.9309
  116OSM    H9T12156   0.626   6.607   9.986  0.0974 -1.2688 -0.2227
  116OSM   C10S12157   0.459   6.589   9.844 -0.1590  0.4811 -0.0633
  116OSM   H10S12158   0.348   6.586   9.841 -0.0723 -0.9461 -2.2449
  116OSM   H10T12159   0.501   6.496   9.800  0.8898  1.0603 -0.3029
  116OSM   C11S12160   0.502   6.712   9.753 -0.1093  0.0537  0.8064
  116OSM   H11S12161   0.610   6.726   9.770  0.4870  1.2481 -3.3393
  116OSM   H11T12162   0.449   6.797   9.801 -1.6803 -0.4952  0.1043
  116OSM   C12S12163   0.454   6.688   9.608  0.4778  0.7137  0.3430
  116OSM   H12S12164   0.463   6.782   9.551  0.1026  2.3731  2.9350
  116OSM   H12T12165   0.347   6.660   9.611  0.6794 -0.2215 -1.0007
  116OSM   C13S12166   0.531   6.581   9.534 -0.7005 -0.3185  0.0321
  116OSM   H13S12167   0.505   6.482   9.578  1.6620 -1.9895 -2.1903
  116OSM   H13T12168   0.638   6.602   9.550 -1.0750  0.3701  1.7397
  116OSM   C14S12169   0.497   6.570   9.384 -0.0381 -1.0084  0.1232
  116OSM   H14S12170   0.533   6.662   9.332 -1.5163  0.4675  1.6515
  116OSM   H14T12171   0.387   6.568   9.365  0.1058  0.1779 -0.9770
  116OSM   C15S12172   0.559   6.449   9.311 -0.6511  0.6707  0.7129
  116OSM   H15S12173   0.496   6.362   9.338 -1.5232  1.4915  1.3427
  116OSM   H15T12174   0.668   6.437   9.329 -0.8523 -1.0239  0.9218
  116OSM   C16S12175   0.554   6.457   9.157 -0.8926 -0.5311 -0.5375
  116OSM   H16S12176   0.499   6.551   9.134 -0.2875 -0.0190  0.1059
  116OSM   H16T12177   0.494   6.377   9.108 -1.1751  0.2765 -1.5297
  116OSM   C17S12178   0.690   6.465   9.092 -0.5496  0.0987 -0.4655
  116OSM   H17S12179   0.748   6.379   9.131  1.1554  0.8658 -1.2587
  116OSM   H17T12180   0.735   6.562   9.121 -0.3862 -0.2393  0.4329
  116OSM   C18S12181   0.676   6.454   8.940  0.1754 -0.7112  0.0400
  116OSM   H18S12182   0.775   6.470   8.892  0.7243  0.3697  1.4929
  116OSM   H18T12183   0.603   6.525   8.895 -0.3464 -2.4027 -1.8480
  116OSM   H18U12184   0.648   6.349   8.919 -0.4468 -0.0353 -2.8065
  116OSM    C1F12185   0.825   6.396  10.491  0.3852  0.1424 -0.5745
  116OSM     OF12186   0.725   6.331  10.521  0.0434  0.1945  0.0141
  116OSM    C2F12187   0.946   6.324  10.437  0.6386  0.2611 -0.1757
  116OSM    H2F12188   0.987   6.267  10.523  0.4811 -1.4880 -1.2341
  116OSM    H2G12189   1.026   6.396  10.410 -0.4826  1.5359 -0.1307
  116OSM    C3F12190   0.909   6.230  10.325 -0.0157 -0.0736 -0.6584
  116OSM    H3F12191   0.881   6.296  10.240  2.5063  1.0623 -0.6524
  116OSM    H3G12192   0.827   6.167  10.366  1.1122 -1.0654  0.1164
  116OSM    C4F12193   1.009   6.131  10.268  0.2001 -0.3373 -0.2387
  116OSM    H4F12194   1.068   6.081  10.348  1.1722  0.8964 -0.1607
  116OSM    H4G12195   1.084   6.183  10.205  0.3899 -0.8104 -0.4057
  116OSM    C5F12196   0.936   6.020  10.195 -0.2986 -0.2188  0.0567
  116OSM    H5F12197   0.873   6.063  10.113  0.0204 -0.4874 -0.3298
  116OSM    H5G12198   0.870   5.964  10.265 -1.0460 -0.7383 -1.0238
  116OSM    C6F12199   1.035   5.911  10.134  0.5335  0.1531 -0.0614
  116OSM    H6F12200   1.103   5.862  10.206 -1.2988 -0.4158  1.2976
  116OSM    H6G12201   1.086   5.967  10.052  0.1045 -0.4436 -0.7461
  116OSM    C7F12202   0.955   5.799  10.060  0.2807 -0.8916 -0.6663
  116OSM    H7F12203   0.884   5.751  10.131  0.9197 -0.3779  0.3114
  116OSM    H7G12204   1.014   5.718  10.011  0.2861 -0.1742 -1.8551
  116OSM    C8F12205   0.859   5.848   9.948 -0.0428 -0.3619  0.3573
  116OSM    H8F12206   0.785   5.921   9.987 -1.5964 -2.9222  2.3455
  116OSM    H8G12207   0.810   5.762   9.899 -1.7094  1.1824 -0.7026
  116OSM    C9F12208   0.936   5.930   9.845  0.4168  0.2698  0.5792
  116OSM    H9F12209   0.933   6.039   9.855 -2.5777  0.3321 -0.4650
  116OSM   C10F12210   0.988   5.887   9.726  0.5854 -0.7666 -0.4105
  116OSM   H10F12211   1.046   5.952   9.658 -0.0452 -0.7682 -0.9549
  116OSM   C11F12212   0.971   5.749   9.680 -0.2748 -0.7184 -0.3471
  116OSM   H11F12213   0.862   5.733   9.665  0.4026 -4.2022 -2.0428
  116OSM   H11G12214   0.994   5.668   9.752 -3.3874 -1.3270  0.0441
  116OSM   C12F12215   1.060   5.715   9.561  0.2174 -0.3130 -0.0495
  116OSM   H12F12216   1.079   5.606   9.553 -1.2336 -0.4502 -2.0455
  116OSM   H12G12217   1.153   5.770   9.588 -0.8288  0.5955  1.8424
  116OSM   C13F12218   1.014   5.771   9.427 -0.3839  0.6205 -0.3084
  116OSM   H13F12219   1.007   5.881   9.435  4.0274  0.9704 -0.1125
  116OSM   H13G12220   0.912   5.731   9.409 -0.1039 -0.5924  0.6603
  116OSM   C14F12221   1.105   5.731   9.313  0.4308  0.6083 -0.3684
  116OSM   H14F12222   1.082   5.625   9.291  1.5708  0.4695 -0.9428
  116OSM   H14G12223   1.212   5.746   9.339  0.4900  0.5547 -0.5818
  116OSM   C15F12224   1.086   5.813   9.189  0.1127 -0.3291 -0.2868
  116OSM   H15F12225   1.138   5.911   9.202  2.1884 -1.4110 -0.2606
  116OSM   H15G12226   0.977   5.826   9.172 -0.5470 -0.3737  3.4511
  116OSM   C16F12227   1.154   5.739   9.072 -1.1329 -0.7101 -0.1756
  116OSM   H16F12228   1.093   5.649   9.050  0.5751 -2.1469  0.8485
  116OSM   H16G12229   1.247   5.692   9.111 -0.5068 -0.2556 -1.0962
  116OSM   C17F12230   1.182   5.819   8.947 -0.5425  0.1832 -0.0339
  116OSM   H17F12231   1.226   5.918   8.972 -0.0515 -0.2019  0.6395
  116OSM   H17G12232   1.082   5.845   8.905 -1.1565 -0.0269  1.2817
  116OSM   C18F12233   1.266   5.733   8.848 -0.6037  0.0714  0.0123
  116OSM   H18F12234   1.258   5.800   8.759 -2.4176  2.2146  1.7023
  116OSM   H18G12235   1.230   5.631   8.825  0.3025 -0.4685  0.9903
  116OSM   H18H12236   1.371   5.735   8.885  0.8309  1.8735 -3.8614
  117OSM      N12237   4.803   0.221  11.030  0.2626 -0.1033 -0.4001
  117OSM    C1512238   4.871   0.256  11.161 -0.5271  0.0788 -0.3743
  117OSM   H15A12239   4.890   0.362  11.168 -0.5104 -0.0038  0.8913
  117OSM   H15B12240   4.973   0.221  11.154 -0.9523 -2.0701  3.3807
  117OSM   H15C12241   4.818   0.222  11.248 -0.1883 -0.6502 -0.4529
  117OSM    C1412242   4.802   0.072  11.015  0.8513  0.4815  0.1900
  117OSM   H14A12243   4.902   0.033  11.004 -0.2364 -2.0968 -0.8472
  117OSM   H14B12244   4.745   0.046  10.927  4.0454 -0.6712 -1.5900
  117OSM   H14C12245   4.755   0.022  11.098  1.8144 -0.5100  0.1442
  117OSM    C1312246   4.656   0.261  11.047 -0.0038  0.6906  0.1771
  117OSM   H13A12247   4.607   0.241  11.141 -1.6707  0.8865 -0.6306
  117OSM   H13B12248   4.592   0.214  10.975  1.4751 -0.3598 -0.4744
  117OSM   H13C12249   4.646   0.367  11.029 -1.7068  0.5816  0.3879
  117OSM    C1212250   4.866   0.286  10.913 -1.0853 -0.1717  0.3730
  117OSM   H12A12251   4.828   0.250  10.818  0.6329  0.6744 -0.6551
  117OSM   H12B12252   4.966   0.252  10.893 -1.1344  0.3401 -0.7712
  117OSM    C1112253   4.866   0.434  10.932 -0.0391  0.3603  0.1458
  117OSM   H11A12254   4.770   0.485  10.956 -0.0344  1.3401 -1.8012
  117OSM   H11B12255   4.899   0.485  10.839  1.1710  1.4895  1.1602
  117OSM      P12256   5.112   0.455  10.995  0.0483 -0.2092  0.1687
  117OSM    O1312257   5.185   0.586  11.013  0.2233  0.0295 -0.0720
  117OSM    O1412258   5.161   0.342  11.078 -0.1950  0.1293  0.3272
  117OSM    O1112259   5.124   0.400  10.846 -0.5704 -0.6733 -0.1833
  117OSM    O1212260   4.962   0.477  11.026 -0.1527  0.6901 -0.3346
  117OSM    C1S12261   5.246   0.395  10.784 -0.6157 -0.6127 -0.8383
  117OSM    H1S12262   5.299   0.299  10.801 -0.2882 -0.8763 -3.2706
  117OSM    H1T12263   5.323   0.470  10.812 -0.0298 -2.2124  2.0212
  117OSM     NF12264   5.358   0.353  10.573  0.7525 -0.4011 -0.1566
  117OSM    HNF12265   5.417   0.421  10.530 -0.8444  0.5161 -0.9459
  117OSM    C2S12266   5.232   0.404  10.629  0.4507 -0.4091 -0.5895
  117OSM    H2S12267   5.149   0.337  10.598 -1.5123  2.0498 -0.7257
  117OSM    C3S12268   5.177   0.541  10.594  0.1530  0.0007 -0.1487
  117OSM    H3S12269   5.242   0.619  10.638  1.4494  0.0328 -2.0417
  117OSM     O312270   5.049   0.561  10.642 -0.3016  0.5509  0.8309
  117OSM    HO312271   5.047   0.523  10.730 -0.7338 -3.0927 -0.6801
  117OSM    C4S12272   5.170   0.546  10.436 -0.5392  0.3517 -0.6105
  117OSM    H4S12273   5.080   0.499  10.393 -1.0401  0.4473  0.3129
  117OSM    C5S12274   5.256   0.615  10.355 -0.0433  0.2453  0.8683
  117OSM    H5S12275   5.339   0.670  10.402  2.0709 -1.0357 -1.2357
  117OSM    C6S12276   5.242   0.627  10.204 -0.2275  0.0137 -0.5864
  117OSM    H6S12277   5.265   0.525  10.167 -0.1316 -0.3865  0.5625
  117OSM    H6T12278   5.308   0.699  10.152  1.3680 -1.2146 -0.2942
  117OSM    C7S12279   5.092   0.655  10.159 -0.0813 -0.3304 -0.4453
  117OSM    H7S12280   5.051   0.741  10.216  1.2511  0.4082 -0.5848
  117OSM    H7T12281   5.039   0.562  10.188  1.8251 -0.4634  2.8861
  117OSM    C8S12282   5.064   0.695  10.012 -0.1433 -0.2590 -0.1905
  117OSM    H8S12283   5.086   0.804  10.001  1.4529 -0.4419  1.0561
  117OSM    H8T12284   4.954   0.686  10.004 -0.0671 -0.3685 -1.1337
  117OSM    C9S12285   5.133   0.613   9.902  0.6858 -0.0920 -0.1732
  117OSM    H9S12286   5.089   0.511   9.903  0.7348 -0.1186 -0.5997
  117OSM    H9T12287   5.242   0.615   9.924  0.8643 -0.3858 -1.0299
  117OSM   C10S12288   5.092   0.666   9.766  0.2631 -0.0911  0.6204
  117OSM   H10S12289   5.140   0.765   9.750 -0.0151 -0.2858 -1.6217
  117OSM   H10T12290   4.984   0.690   9.771  0.1519  0.0379 -1.6700
  117OSM   C11S12291   5.121   0.581   9.646  0.4806  0.3039 -0.2589
  117OSM   H11S12292   5.076   0.482   9.670 -0.1491  0.7862  0.5704
  117OSM   H11T12293   5.229   0.554   9.640  0.6805  1.1723 -0.6388
  117OSM   C12S12294   5.073   0.644   9.511  0.2748 -0.0025  0.2083
  117OSM   H12S12295   5.131   0.735   9.485 -0.5133  0.7819  1.1253
  117OSM   H12T12296   4.969   0.683   9.523  1.2415  2.6558  0.1673
  117OSM   C13S12297   5.066   0.541   9.396 -0.3394  0.4526 -0.5991
  117OSM   H13S12298   5.012   0.450   9.430  0.7012 -0.4259 -1.2361
  117OSM   H13T12299   5.170   0.501   9.393 -0.7491 -0.7467  0.6160
  117OSM   C14S12300   5.017   0.592   9.268 -0.3213  0.2062  0.0479
  117OSM   H14S12301   5.066   0.690   9.254 -0.2957  0.3980  1.4646
  117OSM   H14T12302   4.909   0.618   9.264  0.0476  2.1899  2.3885
  117OSM   C15S12303   5.053   0.502   9.147 -0.1554  0.5676 -0.5380
  117OSM   H15S12304   4.994   0.408   9.148  1.9351 -0.7768  2.1692
  117OSM   H15T12305   5.158   0.467   9.144 -0.2553  0.3172 -1.1572
  117OSM   C16S12306   5.028   0.573   9.014 -0.9528  0.1766 -0.5649
  117OSM   H16S12307   5.090   0.664   9.003 -0.5399 -0.0684 -0.2794
  117OSM   H16T12308   4.920   0.598   9.000 -1.4009 -2.0068 -1.2501
  117OSM   C17S12309   5.055   0.485   8.887 -0.2056 -0.0168  0.2767
  117OSM   H17S12310   4.992   0.394   8.894  0.4543 -0.4637  0.4571
  117OSM   H17T12311   5.148   0.427   8.904  0.4856  1.1542  0.6102
  117OSM   C18S12312   5.038   0.558   8.760 -0.6603 -0.2074 -0.3549
  117OSM   H18S12313   4.932   0.581   8.734 -0.5779  0.0758 -0.4527
  117OSM   H18T12314   5.083   0.511   8.670  2.2357  3.0958 -0.7472
  117OSM   H18U12315   5.083   0.660   8.754  0.3212 -0.7697 -3.6094
  117OSM    C1F12316   5.375   0.220  10.561 -0.8953 -0.1475  0.0373
  117OSM     OF12317   5.293   0.140  10.599 -0.8473  0.1399  0.3028
  117OSM    C2F12318   5.504   0.167  10.508 -0.0466 -0.3655 -0.5500
  117OSM    H2F12319   5.532   0.076  10.566  2.2860  1.7901  1.8078
  117OSM    H2G12320   5.581   0.243  10.532  0.6584 -1.2761  0.1216
  117OSM    C3F12321   5.501   0.121  10.360  0.2994  0.0193  0.5990
  117OSM    H3F12322   5.405   0.070  10.335 -0.7852  2.1053  0.3287
  117OSM    H3G12323   5.576   0.040  10.349  0.5505  0.5430 -1.7683
  117OSM    C4F12324   5.492   0.245  10.266 -0.3436  0.0846 -0.4177
  117OSM    H4F12325   5.560   0.330  10.288 -0.3234  0.3391 -1.4056
  117OSM    H4G12326   5.394   0.294  10.286 -1.4222 -2.0880 -0.3395
  117OSM    C5F12327   5.495   0.213  10.119  0.0933 -0.3314  0.0719
  117OSM    H5F12328   5.449   0.113  10.103 -0.6533 -0.2232  1.4308
  117OSM    H5G12329   5.603   0.201  10.096  0.8583  0.3844  2.9990
  117OSM    C6F12330   5.456   0.319  10.015  0.7273 -0.2590 -0.5958
  117OSM    H6F12331   5.499   0.418  10.041 -0.9453  0.5808 -0.9203
  117OSM    H6G12332   5.346   0.335  10.012  0.7105 -0.2544  0.0481
  117OSM    C7F12333   5.504   0.277   9.875 -0.5593  0.3898  0.5120
  117OSM    H7F12334   5.442   0.188   9.850 -0.1930  0.3150 -0.1241
  117OSM    H7G12335   5.610   0.245   9.877 -0.4630  0.7618  1.2395
  117OSM    C8F12336   5.489   0.401   9.784 -0.4470  0.3105  0.3546
  117OSM    H8F12337   5.563   0.472   9.826 -2.0193  1.4620  1.2160
  117OSM    H8G12338   5.383   0.432   9.791 -0.9139 -1.4253  1.1281
  117OSM    C9F12339   5.515   0.374   9.642  0.1114 -0.7351 -0.2139
  117OSM    H9F12340   5.501   0.269   9.614 -1.5994 -1.7800  4.2141
  117OSM   C10F12341   5.554   0.452   9.540  0.0407 -0.3146 -0.5571
  117OSM   H10F12342   5.566   0.408   9.440 -0.7431 -0.5806 -0.5411
  117OSM   C11F12343   5.593   0.598   9.550  0.4546 -0.3052 -0.2133
  117OSM   H11F12344   5.683   0.605   9.486  0.1298  1.4693 -0.4887
  117OSM   H11G12345   5.608   0.635   9.654 -1.0914 -1.1145  0.3241
  117OSM   C12F12346   5.496   0.692   9.474 -0.2802  0.0740  0.2297
  117OSM   H12F12347   5.515   0.801   9.486 -1.7794  0.3399  0.3212
  117OSM   H12G12348   5.393   0.670   9.511 -0.2817 -1.2117 -0.5041
  117OSM   C13F12349   5.482   0.659   9.317 -0.0851 -0.1476 -0.6041
  117OSM   H13F12350   5.459   0.553   9.292  1.7830 -0.4078 -1.3247
  117OSM   H13G12351   5.579   0.682   9.269 -1.2307  0.6740 -2.5898
  117OSM   C14F12352   5.394   0.760   9.255 -0.1029 -0.1146 -0.4922
  117OSM   H14F12353   5.441   0.861   9.246 -0.9551  0.3390  0.1428
  117OSM   H14G12354   5.298   0.762   9.311 -0.2441  3.0863 -0.7350
  117OSM   C15F12355   5.353   0.728   9.113 -0.5182 -0.0354 -0.2481
  117OSM   H15F12356   5.274   0.799   9.084  0.3851  0.6681 -1.0062
  117OSM   H15G12357   5.308   0.626   9.108  0.6330 -0.8465  3.7746
  117OSM   C16F12358   5.459   0.737   9.005  0.5901  0.3394 -0.6148
  117OSM   H16F12359   5.524   0.648   9.023  2.1530  0.7027 -4.0822
  117OSM   H16G12360   5.523   0.826   9.023  1.1694 -0.4962  1.5661
  117OSM   C17F12361   5.410   0.743   8.864  0.1538 -0.5672 -1.0506
  117OSM   H17F12362   5.342   0.830   8.849 -0.9864 -1.2853 -0.1668
  117OSM   H17G12363   5.340   0.656   8.859 -0.7935  0.1349 -0.0498
  117OSM   C18F12364   5.508   0.741   8.747 -0.2257 -0.7155  0.2672
  117OSM   H18F12365   5.594   0.810   8.760 -0.8790 -0.1257  1.5138
  117OSM   H18G12366   5.459   0.767   8.651 -0.2439 -1.5498  0.0445
  117OSM   H18H12367   5.555   0.641   8.735 -0.1909 -0.3544 -3.0015
  118OSM      N12368   5.751   1.671  11.356 -0.4024 -0.0438 -0.5314
  118OSM    C1512369   5.853   1.613  11.439 -0.2663 -0.4492  0.4643
  118OSM   H15A12370   5.931   1.685  11.459 -2.2912  1.5197  1.4345
  118OSM   H15B12371   5.898   1.528  11.389 -0.1607 -0.1150 -0.0056
  118OSM   H15C12372   5.814   1.572  11.531 -0.3758  1.2859  1.2093
  118OSM    C1412373   5.638   1.575  11.326  0.7615 -0.0895  1.0831
  118OSM   H14A12374   5.672   1.483  11.281  0.2190  1.4711 -2.6361
  118OSM   H14B12375   5.577   1.623  11.252 -0.2666  0.4452  2.2539
  118OSM   H14C12376   5.589   1.544  11.418 -1.0053  3.2307  1.3070
  118OSM    C1312377   5.687   1.781  11.425 -0.6578 -0.4981  0.8989
  118OSM   H13A12378   5.599   1.812  11.371 -0.2734  0.4715  0.8257
  118OSM   H13B12379   5.741   1.872  11.444 -2.3104  0.8492 -0.7921
  118OSM   H13C12380   5.644   1.733  11.512 -2.1823  1.0990  1.0538
  118OSM    C1212381   5.801   1.714  11.219  0.7054 -0.8296 -0.3341
  118OSM   H12A12382   5.877   1.791  11.226  0.1923 -0.2462 -1.0893
  118OSM   H12B12383   5.718   1.752  11.162  0.4708  0.1465  0.6443
  118OSM    C1112384   5.869   1.614  11.122 -0.2743 -0.3315  0.2514
  118OSM   H11A12385   5.856   1.672  11.028  1.0784 -1.1762 -0.4721
  118OSM   H11B12386   5.819   1.516  11.106 -0.9956  0.1887 -0.7758
  118OSM      P12387   6.124   1.626  11.065  0.4508  0.3242  0.4858
  118OSM    O1312388   6.196   1.749  11.092  0.2801  0.1399 -0.4916
  118OSM    O1412389   6.203   1.500  11.066  0.2595 -0.4066  0.1872
  118OSM    O1112390   6.064   1.631  10.922  0.1294  0.0819  0.7699
  118OSM    O1212391   6.007   1.610  11.164 -0.7159 -0.0251  0.9004
  118OSM    C1S12392   6.145   1.666  10.809  0.2442  0.3739  0.2465
  118OSM    H1S12393   6.208   1.579  10.781  0.0252 -0.3044  1.7874
  118OSM    H1T12394   6.205   1.757  10.832  0.5767  0.0387  0.7266
  118OSM     NF12395   6.132   1.698  10.551  0.3391  0.5290 -0.6112
  118OSM    HNF12396   6.157   1.790  10.520  0.7467  0.9092  0.7842
  118OSM    C2S12397   6.058   1.684  10.680 -0.1926  0.2474 -0.0153
  118OSM    H2S12398   5.984   1.604  10.657 -2.2440  1.8417  0.7951
  118OSM    C3S12399   5.970   1.818  10.709  0.0296  0.0230 -0.3743
  118OSM    H3S12400   6.027   1.913  10.704 -2.8084  1.8471  0.6880
  118OSM     O312401   5.903   1.824  10.835 -0.5450  0.1217  0.2610
  118OSM    HO312402   5.917   1.737  10.873 -0.6118  0.4674  1.1057
  118OSM    C4S12403   5.869   1.842  10.597 -0.2376  0.7501 -0.1524
  118OSM    H4S12404   5.907   1.912  10.522 -0.6423 -0.2982 -1.3699
  118OSM    C5S12405   5.753   1.773  10.574  0.0662  0.7148 -0.0715
  118OSM    H5S12406   5.732   1.690  10.643 -2.3268 -0.5332 -2.2215
  118OSM    C6S12407   5.652   1.786  10.459 -0.0181 -0.1606  0.7748
  118OSM    H6S12408   5.578   1.864  10.487 -1.4657 -1.1921 -0.0761
  118OSM    H6T12409   5.602   1.692  10.427  1.6847 -0.9494  0.3697
  118OSM    C7S12410   5.712   1.855  10.331  0.0671  0.0080  0.4094
  118OSM    H7S12411   5.797   1.791  10.298 -0.2260  1.0840 -2.5680
  118OSM    H7T12412   5.764   1.950  10.354  2.1202 -1.2281  0.9510
  118OSM    C8S12413   5.607   1.872  10.219 -0.5021  1.2959  0.7060
  118OSM    H8S12414   5.540   1.953  10.257  1.2387  2.1748  1.9638
  118OSM    H8T12415   5.546   1.780  10.219  0.6973  0.4853  0.4430
  118OSM    C9S12416   5.664   1.920  10.086 -0.3391  0.7507  0.4793
  118OSM    H9S12417   5.727   1.844  10.035  0.2037  0.6570  1.2654
  118OSM    H9T12418   5.723   2.013  10.103 -1.4316  1.0765  2.6716
  118OSM   C10S12419   5.550   1.958   9.990 -0.6537 -0.7242 -0.0376
  118OSM   H10S12420   5.493   2.035  10.047  2.2535  0.2085  1.7028
  118OSM   H10T12421   5.485   1.869   9.974  2.5894 -3.3849  1.0503
  118OSM   C11S12422   5.605   2.029   9.862 -0.7798 -0.3005 -0.0805
  118OSM   H11S12423   5.689   2.095   9.892 -0.8770  0.1545 -0.7990
  118OSM   H11T12424   5.519   2.081   9.815  0.8687  1.8451 -0.7920
  118OSM   C12S12425   5.653   1.927   9.755  0.2013  1.3956 -0.3391
  118OSM   H12S12426   5.578   1.853   9.720 -1.1275  2.1460  0.8491
  118OSM   H12T12427   5.740   1.875   9.800 -0.1975  1.1133  0.1200
  118OSM   C13S12428   5.714   1.985   9.632  0.6279  0.5395 -0.2874
  118OSM   H13S12429   5.762   2.081   9.661 -0.4168  1.1111 -0.4386
  118OSM   H13T12430   5.634   2.020   9.564 -0.4477 -0.1768  0.5951
  118OSM   C14S12431   5.806   1.892   9.551  0.0398 -0.3292  0.7150
  118OSM   H14S12432   5.747   1.802   9.521 -1.6241  0.7357  0.7307
  118OSM   H14T12433   5.893   1.866   9.614  0.3035  0.3603  0.6453
  118OSM   C15S12434   5.871   1.957   9.425  0.3468  0.6057  0.1801
  118OSM   H15S12435   5.790   2.006   9.368  1.1803  2.9895  0.9680
  118OSM   H15T12436   5.927   1.889   9.357 -0.3106  2.5806 -2.4424
  118OSM   C16S12437   5.973   2.072   9.465  0.5325  0.0932 -0.8131
  118OSM   H16S12438   6.045   2.035   9.541  1.6957  0.4073 -1.7363
  118OSM   H16T12439   5.910   2.150   9.513 -0.4011 -2.8170  2.9407
  118OSM   C17S12440   6.037   2.129   9.338 -0.2965 -0.4613 -0.6393
  118OSM   H17S12441   5.951   2.172   9.284 -0.5879  0.3673  0.4753
  118OSM   H17T12442   6.082   2.046   9.279 -1.7690 -1.0396 -0.9784
  118OSM   C18S12443   6.132   2.240   9.370 -0.0755  0.1218 -0.3913
  118OSM   H18S12444   6.174   2.287   9.278  0.9879  1.3453  0.6899
  118OSM   H18T12445   6.225   2.206   9.419  0.6945  1.4720 -0.8868
  118OSM   H18U12446   6.091   2.328   9.424 -0.3743 -0.0329 -0.3634
  118OSM    C1F12447   6.202   1.599  10.498 -1.0103  0.4615 -0.1298
  118OSM     OF12448   6.196   1.479  10.533 -0.3409 -0.1002 -0.6458
  118OSM    C2F12449   6.282   1.630  10.377 -0.8489 -0.1641 -0.0993
  118OSM    H2F12450   6.369   1.561  10.375  0.2620  1.2460 -1.3301
  118OSM    H2G12451   6.318   1.735  10.380 -3.9663  0.9272  0.8662
  118OSM    C3F12452   6.194   1.606  10.252  0.3792  0.3327  0.1507
  118OSM    H3F12453   6.159   1.501  10.243  0.4162  0.4902 -2.3301
  118OSM    H3G12454   6.252   1.617  10.157 -2.1574  2.6248 -1.2214
  118OSM    C4F12455   6.074   1.698  10.230  0.5567  0.2701  0.2063
  118OSM    H4F12456   6.101   1.806  10.233  1.5475  0.0515 -0.4072
  118OSM    H4G12457   6.003   1.678  10.313  2.3749  2.2117  2.3118
  118OSM    C5F12458   5.996   1.685  10.095  0.3005 -0.5500 -0.1332
  118OSM    H5F12459   5.889   1.665  10.118 -0.2694  1.1988 -1.0969
  118OSM    H5G12460   6.029   1.593  10.042  0.7398 -0.5475  0.1356
  118OSM    C6F12461   6.001   1.801   9.996  0.3692 -0.2208  0.1441
  118OSM    H6F12462   5.965   1.888  10.056  0.3171 -1.4324  1.9185
  118OSM    H6G12463   5.925   1.782   9.918 -0.1066 -2.9300  1.2008
  118OSM    C7F12464   6.143   1.810   9.926 -0.0295  0.0425 -0.6824
  118OSM    H7F12465   6.227   1.791   9.996 -0.3263  1.1485 -0.0099
  118OSM    H7G12466   6.148   1.915   9.888 -0.5599  0.6905  0.9891
  118OSM    C8F12467   6.147   1.733   9.788 -0.1951 -0.7814 -0.6085
  118OSM    H8F12468   6.064   1.772   9.725  2.2334 -0.9354 -4.0452
  118OSM    H8G12469   6.122   1.628   9.812 -3.4840 -0.5213 -2.5397
  118OSM    C9F12470   6.285   1.744   9.721  1.1637 -0.2146  0.5547
  118OSM    H9F12471   6.373   1.732   9.786  0.9264 -0.5558  0.8115
  118OSM   C10F12472   6.308   1.764   9.592  0.0450  0.6406 -0.2602
  118OSM   H10F12473   6.410   1.773   9.554  0.6455 -2.2638  0.5531
  118OSM   C11F12474   6.199   1.775   9.482  0.7890 -0.2849  0.2768
  118OSM   H11F12475   6.164   1.880   9.466 -0.1503 -0.9515 -2.3677
  118OSM   H11G12476   6.118   1.704   9.510  1.0571 -1.5476 -2.0308
  118OSM   C12F12477   6.250   1.740   9.337  0.3169 -0.2625 -0.6038
  118OSM   H12F12478   6.315   1.650   9.344  0.0538 -0.4972 -1.1535
  118OSM   H12G12479   6.313   1.822   9.295  0.9934 -1.4305 -1.9166
  118OSM   C13F12480   6.141   1.703   9.234 -0.1456 -0.1968 -0.6948
  118OSM   H13F12481   6.067   1.787   9.232 -0.6924 -0.6329  0.7472
  118OSM   H13G12482   6.096   1.607   9.266  0.7293 -0.3520  0.0783
  118OSM   C14F12483   6.208   1.679   9.105  0.3253 -0.0949  0.1865
  118OSM   H14F12484   6.220   1.571   9.085 -0.7480 -0.0341 -0.8797
  118OSM   H14G12485   6.315   1.707   9.110 -0.1271  1.7228  0.2919
  118OSM   C15F12486   6.142   1.757   8.990 -1.2383  0.1605 -0.3413
  118OSM   H15F12487   6.155   1.864   9.016  0.3949 -0.2072  0.3891
  118OSM   H15G12488   6.034   1.731   8.994 -1.1366 -0.0547  1.2637
  118OSM   C16F12489   6.226   1.732   8.865  0.3767 -0.4778  0.9257
  118OSM   H16F12490   6.246   1.623   8.858 -0.4632 -0.6508  1.1821
  118OSM   H16G12491   6.332   1.765   8.877  0.0240  1.2012 -0.5008
  118OSM   C17F12492   6.175   1.778   8.735  0.1718 -0.2811 -0.2936
  118OSM   H17F12493   6.066   1.800   8.735 -0.0692 -1.3560 -1.9411
  118OSM   H17G12494   6.199   1.722   8.641 -0.6408 -0.9860 -0.0883
  118OSM   C18F12495   6.243   1.920   8.710  0.0281 -0.1041 -0.0129
  118OSM   H18F12496   6.238   1.991   8.796 -0.8987 -0.1841  0.0015
  118OSM   H18G12497   6.189   1.976   8.631  0.1469  2.3813  1.5994
  118OSM   H18H12498   6.348   1.898   8.682  0.3456  1.6396 -0.2258
  119OSM      N12499   6.109   0.929  11.296  0.2331  0.2730 -0.4664
  119OSM    C1512500   5.984   0.973  11.355 -0.1767 -0.0769 -0.4534
  119OSM   H15A12501   5.986   0.998  11.460 -2.1458 -1.1577 -0.1489
  119OSM   H15B12502   5.903   0.907  11.329 -0.0656 -0.7368  0.8372
  119OSM   H15C12503   5.950   1.065  11.309 -0.1946  0.0233 -0.2420
  119OSM    C1412504   6.216   1.033  11.308  0.6122  0.3211 -0.8146
  119OSM   H14A12505   6.225   1.063  11.411  0.7984  0.6367 -0.9199
  119OSM   H14B12506   6.188   1.122  11.253  0.2253 -0.5824 -2.1186
  119OSM   H14C12507   6.308   0.985  11.280 -0.4027 -2.3982  0.2965
  119OSM    C1312508   6.160   0.804  11.350 -0.1723  0.7413 -0.5064
  119OSM   H13A12509   6.244   0.771  11.291  0.5783 -1.4209  1.7097
  119OSM   H13B12510   6.084   0.727  11.341  0.2041  0.5617 -2.4727
  119OSM   H13C12511   6.186   0.809  11.454 -2.2138 -1.3906  0.1694
  119OSM    C1212512   6.087   0.905  11.146  0.2041 -0.1329 -0.2087
  119OSM   H12A12513   6.044   0.993  11.101  0.6108  0.3975  0.4268
  119OSM   H12B12514   6.025   0.818  11.133 -0.7998  0.9724 -3.2639
  119OSM    C1112515   6.211   0.871  11.054 -0.0470  0.7026  0.0302
  119OSM   H11A12516   6.292   0.946  11.070  0.5682  0.0010  0.1888
  119OSM   H11B12517   6.176   0.869  10.949 -3.2344 -0.1034  1.0578
  119OSM      P12518   6.201   0.606  11.042  0.3105 -0.3066 -0.5456
  119OSM    O1312519   6.316   0.517  11.036 -0.1519  0.3003  0.0305
  119OSM    O1412520   6.086   0.565  11.127  0.2317  0.1369  0.5830
  119OSM    O1112521   6.133   0.629  10.906 -0.0960 -0.2688  0.3563
  119OSM    O1212522   6.254   0.741  11.091 -0.1567 -0.2498  0.2620
  119OSM    C1S12523   6.122   0.522  10.812 -0.0478 -0.5232  0.5507
  119OSM    H1S12524   6.023   0.481  10.840 -0.6364  1.1571  0.9966
  119OSM    H1T12525   6.204   0.449  10.825 -0.7488 -1.4926 -0.3175
  119OSM     NF12526   6.107   0.460  10.582 -0.0248 -0.2892 -0.1207
  119OSM    HNF12527   6.193   0.431  10.541 -0.4424  0.3097 -1.4835
  119OSM    C2S12528   6.127   0.577  10.665  0.7032 -0.9143 -0.3170
  119OSM    H2S12529   6.038   0.638  10.638  2.4562  0.9290 -2.1519
  119OSM    C3S12530   6.249   0.653  10.644 -0.1557  0.0128  0.2079
  119OSM    H3S12531   6.332   0.594  10.689 -0.8903 -0.3538  1.1030
  119OSM     O312532   6.251   0.782  10.705  0.3345  0.3445  0.5511
  119OSM    HO312533   6.195   0.764  10.781 -2.8881 -2.1430 -2.2303
  119OSM    C4S12534   6.274   0.670  10.492  0.1841  0.3863  0.0918
  119OSM    H4S12535   6.222   0.762  10.459  1.3380  1.2758  0.7115
  119OSM    C5S12536   6.349   0.592  10.414 -0.4685 -1.0513  0.4870
  119OSM    H5S12537   6.405   0.510  10.461  2.8724  0.7456 -0.2555
  119OSM    C6S12538   6.380   0.617  10.271  0.4376 -0.5070  0.8815
  119OSM    H6S12539   6.404   0.518  10.228  2.5694  0.0772  0.6493
  119OSM    H6T12540   6.482   0.661  10.277  0.2815 -0.2701  1.9533
  119OSM    C7S12541   6.272   0.692  10.187  0.6915 -0.1822 -0.5025
  119OSM    H7S12542   6.257   0.793  10.231  0.2204 -0.5900  0.2786
  119OSM    H7T12543   6.176   0.636  10.196  0.7533 -0.0443  1.1975
  119OSM    C8S12544   6.302   0.713  10.039  0.0020 -0.7459  0.5043
  119OSM    H8S12545   6.307   0.616   9.985 -2.1532 -1.3051  1.2534
  119OSM    H8T12546   6.403   0.758  10.032 -0.0940 -0.6761 -0.4993
  119OSM    C9S12547   6.195   0.788   9.964  0.5612  0.1092  0.4810
  119OSM    H9S12548   6.210   0.895   9.989  2.4914  0.7327 -2.9554
  119OSM    H9T12549   6.097   0.739   9.983 -0.4169  1.5622 -0.6241
  119OSM   C10S12550   6.216   0.799   9.809 -0.0648  0.4869  0.3034
  119OSM   H10S12551   6.115   0.828   9.772 -0.1919 -0.0187  0.2400
  119OSM   H10T12552   6.234   0.697   9.769  1.0511  0.5225  0.7041
  119OSM   C11S12553   6.326   0.885   9.755  0.5466  0.2267  0.3540
  119OSM   H11S12554   6.418   0.833   9.787  0.1044 -1.0202 -0.3481
  119OSM   H11T12555   6.329   0.990   9.792  0.8996  0.5124 -0.4628
  119OSM   C12S12556   6.326   0.888   9.595 -0.6158 -0.5436  0.5942
  119OSM   H12S12557   6.400   0.967   9.569  0.7001 -1.5205  1.3314
  119OSM   H12T12558   6.226   0.916   9.554 -1.6207 -1.7434  2.1937
  119OSM   C13S12559   6.363   0.759   9.522  0.0705 -0.4015 -0.0262
  119OSM   H13S12560   6.268   0.701   9.525  1.0227 -2.0797 -1.0620
  119OSM   H13T12561   6.434   0.695   9.578  0.3173 -2.2414 -2.3521
  119OSM   C14S12562   6.405   0.779   9.374 -0.0364 -0.1380  0.1367
  119OSM   H14S12563   6.493   0.719   9.345 -0.6270 -1.0841  0.2816
  119OSM   H14T12564   6.429   0.886   9.359 -0.2078  0.0104  0.8895
  119OSM   C15S12565   6.293   0.757   9.275  0.2021  0.8625  0.0108
  119OSM   H15S12566   6.213   0.831   9.296 -0.8677 -0.4250  0.5342
  119OSM   H15T12567   6.249   0.655   9.280  1.7939  0.1382 -0.4284
  119OSM   C16S12568   6.331   0.781   9.129  0.1652  0.4747 -0.4412
  119OSM   H16S12569   6.408   0.705   9.102 -0.2402  0.3110 -1.1334
  119OSM   H16T12570   6.382   0.880   9.121  0.5376  0.6595  3.3902
  119OSM   C17S12571   6.209   0.776   9.038 -0.0853 -0.1989  0.6097
  119OSM   H17S12572   6.139   0.855   9.073 -0.5571 -1.4605  2.6447
  119OSM   H17T12573   6.162   0.677   9.056  1.4933 -1.0708  0.0424
  119OSM   C18S12574   6.247   0.778   8.891 -0.1049 -0.0695 -0.2098
  119OSM   H18S12575   6.331   0.707   8.883 -0.9823 -0.9749 -1.7682
  119OSM   H18T12576   6.293   0.874   8.859 -0.0121  0.8067  2.4873
  119OSM   H18U12577   6.158   0.746   8.832  0.5106  1.3820 -1.9716
  119OSM    C1F12578   5.985   0.410  10.568 -0.2798  0.5411 -0.3547
  119OSM     OF12579   5.889   0.458  10.629 -0.3662  0.5975  0.1091
  119OSM    C2F12580   5.968   0.287  10.488 -1.0177  0.6449 -0.3846
  119OSM    H2F12581   5.915   0.209  10.545 -0.3156  0.1377 -0.4236
  119OSM    H2G12582   6.069   0.246  10.467 -0.2135  2.3175  0.0748
  119OSM    C3F12583   5.894   0.303  10.358 -0.0232  0.6247 -0.3811
  119OSM    H3F12584   5.786   0.326  10.366 -0.3103 -1.2504  2.0476
  119OSM    H3G12585   5.902   0.202  10.312 -1.1716  0.3472  0.0112
  119OSM    C4F12586   5.961   0.402  10.256 -0.5727  0.0276  0.6052
  119OSM    H4F12587   6.066   0.366  10.251 -1.0172 -1.2480  0.4606
  119OSM    H4G12588   5.965   0.508  10.289 -0.1144  1.5275 -3.9226
  119OSM    C5F12589   5.889   0.386  10.124 -0.4347 -0.1198  0.0516
  119OSM    H5F12590   5.783   0.416  10.140 -0.3247 -1.1384  2.9104
  119OSM    H5G12591   5.886   0.276  10.105 -2.1935  0.1807 -1.6289
  119OSM    C6F12592   5.953   0.460   9.999 -0.2770 -0.2273 -0.1636
  119OSM    H6F12593   6.064   0.451  10.006 -0.3774 -1.6167 -0.1952
  119OSM    H6G12594   5.932   0.569  10.001 -0.4988 -0.2276 -1.8911
  119OSM    C7F12595   5.891   0.404   9.877 -0.7520 -0.6456 -0.3294
  119OSM    H7F12596   5.784   0.388   9.904 -0.0187 -1.1805  2.3482
  119OSM    H7G12597   5.935   0.309   9.840 -1.5852 -0.6419 -1.3727
  119OSM    C8F12598   5.886   0.516   9.764  0.8998 -0.5420 -0.2335
  119OSM    H8F12599   5.848   0.611   9.808 -0.1153 -0.5567 -1.0625
  119OSM    H8G12600   5.806   0.484   9.695 -1.3172 -0.3168  2.1659
  119OSM    C9F12601   6.022   0.525   9.700  0.2739  0.0073 -0.4180
  119OSM    H9F12602   6.109   0.542   9.765 -0.1792 -1.0820  0.4829
  119OSM   C10F12603   6.057   0.494   9.571 -0.0228 -0.3478  0.1377
  119OSM   H10F12604   6.162   0.505   9.541 -0.3040  0.5779 -0.5630
  119OSM   C11F12605   5.963   0.456   9.457 -0.3540 -0.2695  0.3808
  119OSM   H11F12606   5.861   0.470   9.498 -0.4085  0.6233 -0.0521
  119OSM   H11G12607   5.982   0.348   9.437 -0.4812  0.0190 -1.3861
  119OSM   C12F12608   5.977   0.542   9.332  0.0048 -0.3058 -0.0190
  119OSM   H12F12609   6.065   0.516   9.269 -1.1739 -0.5900 -1.5654
  119OSM   H12G12610   5.972   0.652   9.347 -1.8662 -0.7347  2.8937
  119OSM   C13F12611   5.860   0.520   9.237 -0.2796  0.4781  0.6015
  119OSM   H13F12612   5.855   0.608   9.170 -0.1331  0.0378  0.0141
  119OSM   H13G12613   5.762   0.508   9.288 -0.7168  1.1944 -0.0613
  119OSM   C14F12614   5.877   0.384   9.168  0.0175  0.1725 -0.6926
  119OSM   H14F12615   5.914   0.307   9.239 -0.6090  0.4764 -0.0301
  119OSM   H14G12616   5.943   0.410   9.082  1.4043 -0.5087  0.1449
  119OSM   C15F12617   5.744   0.335   9.111  0.4412  0.2873 -0.9372
  119OSM   H15F12618   5.715   0.421   9.046  0.1963  1.3431  0.5372
  119OSM   H15G12619   5.671   0.339   9.195  0.0139 -0.5657 -1.2674
  119OSM   C16F12620   5.756   0.198   9.040 -0.1134  0.0721 -0.8037
  119OSM   H16F12621   5.814   0.129   9.105 -1.7143  0.5101  1.1302
  119OSM   H16G12622   5.815   0.209   8.947  0.2455  0.3661 -0.5462
  119OSM   C17F12623   5.615   0.145   9.007  0.8265 -0.4821  0.4697
  119OSM   H17F12624   5.556   0.220   8.951  2.4100 -0.0322 -0.6234
  119OSM   H17G12625   5.561   0.128   9.103 -1.0764  1.4062 -0.2197
  119OSM   C18F12626   5.624   0.016   8.925  0.5652  0.6253 -0.6588
  119OSM   H18F12627   5.525  -0.026   8.899  0.5344 -1.0198  1.9910
  119OSM   H18G12628   5.673  -0.065   8.983  1.7572 -0.4594 -3.1146
  119OSM   H18H12629   5.690   0.028   8.836  1.2341 -0.6601 -0.3490
  120OSM      N12630   5.711   4.671  11.011 -0.6111 -0.4764  0.8293
  120OSM    C1512631   5.810   4.568  10.970 -0.0965 -0.0689 -0.8440
  120OSM   H15A12632   5.841   4.530  11.066  0.1000  1.3460 -0.3400
  120OSM   H15B12633   5.890   4.613  10.914  0.9890  0.1604  0.8465
  120OSM   H15C12634   5.766   4.489  10.911  0.0791 -1.3904  0.7579
  120OSM    C1412635   5.613   4.594  11.091  0.2058  0.3658 -0.7300
  120OSM   H14A12636   5.551   4.655  11.155 -0.4172 -1.9992  1.0190
  120OSM   H14B12637   5.669   4.535  11.163 -0.5589  0.4216 -0.0841
  120OSM   H14C12638   5.552   4.531  11.027  1.0474 -1.7254  0.4698
  120OSM    C1312639   5.772   4.784  11.080 -0.2868  0.0986  0.1978
  120OSM   H13A12640   5.835   4.751  11.161  3.2632  2.0308 -1.6540
  120OSM   H13B12641   5.707   4.858  11.125  1.4709  1.6705  0.2415
  120OSM   H13C12642   5.836   4.838  11.012 -1.4414  1.3019  0.0261
  120OSM    C1212643   5.641   4.727  10.887 -0.2978 -0.3710  0.4434
  120OSM   H12A12644   5.562   4.786  10.930  0.9334 -0.1663  2.5143
  120OSM   H12B12645   5.594   4.648  10.831  0.6759 -0.7605  0.1630
  120OSM    C1112646   5.725   4.805  10.783 -0.2437 -0.5725  0.0147
  120OSM   H11A12647   5.788   4.885  10.828 -0.9411 -1.3288  2.4671
  120OSM   H11B12648   5.653   4.862  10.722 -0.3331 -1.2596 -0.5331
  120OSM      P12649   5.755   4.618  10.602 -0.4136  0.1397 -0.0658
  120OSM    O1312650   5.873   4.551  10.546  0.4576 -0.2657  0.1023
  120OSM    O1412651   5.649   4.535  10.657 -0.8988 -0.2269 -0.3914
  120OSM    O1112652   5.699   4.712  10.490 -0.6599 -0.3230 -0.0697
  120OSM    O1212653   5.806   4.718  10.708 -0.4314 -0.5988 -0.1208
  120OSM    C1S12654   5.779   4.784  10.398 -0.1153  0.0299 -0.0387
  120OSM    H1S12655   5.889   4.784  10.408 -0.1781 -2.4145  1.0297
  120OSM    H1T12656   5.743   4.888  10.411  1.5662  0.3171  2.6781
  120OSM     NF12657   5.843   4.803  10.161  0.5280 -0.3434  0.0079
  120OSM    HNF12658   5.802   4.874  10.104 -0.7807 -0.0474  1.2792
  120OSM    C2S12659   5.758   4.734  10.253 -0.0011  0.1525 -0.5274
  120OSM    H2S12660   5.769   4.624  10.244  1.3865  0.0590  1.8367
  120OSM    C3S12661   5.611   4.760  10.211 -0.0440  0.5216  0.9270
  120OSM    H3S12662   5.609   4.870  10.226  2.5094  0.7897 -0.4830
  120OSM     O312663   5.506   4.696  10.275 -0.4331  0.6661 -0.0624
  120OSM    HO312664   5.545   4.649  10.349 -1.0604  2.9010  1.7219
  120OSM    C4S12665   5.587   4.733  10.064 -0.5107  0.8300 -0.4971
  120OSM    H4S12666   5.605   4.629  10.030  2.2848  0.7494  1.0325
  120OSM    C5S12667   5.553   4.833   9.981  0.2046  0.9885 -0.3714
  120OSM    H5S12668   5.552   4.935  10.023 -0.0832  0.4092  1.0876
  120OSM    C6S12669   5.549   4.822   9.832 -0.3571  1.0635 -0.1151
  120OSM    H6S12670   5.528   4.918   9.780  2.6800  1.2622 -1.0902
  120OSM    H6T12671   5.460   4.761   9.806 -0.8311  1.1903  1.1825
  120OSM    C7S12672   5.681   4.778   9.761 -0.1381 -0.6318 -0.1758
  120OSM    H7S12673   5.719   4.678   9.793  1.3953 -0.0523 -0.1621
  120OSM    H7T12674   5.760   4.852   9.787 -0.9966  0.1667  0.2096
  120OSM    C8S12675   5.673   4.774   9.597  0.3781  0.0724 -0.3959
  120OSM    H8S12676   5.566   4.764   9.570 -0.0675  0.7487  1.0286
  120OSM    H8T12677   5.743   4.695   9.563  2.6710  0.3032  3.3992
  120OSM    C9S12678   5.743   4.893   9.531  0.0222  0.4709  0.5065
  120OSM    H9S12679   5.825   4.930   9.595  0.0471  1.1899  0.0690
  120OSM    H9T12680   5.665   4.972   9.542 -0.4019  0.1721 -0.2921
  120OSM   C10S12681   5.786   4.882   9.387 -1.0008 -0.0240 -0.0280
  120OSM   H10S12682   5.831   4.977   9.351  0.4562 -0.7494 -0.1934
  120OSM   H10T12683   5.696   4.857   9.328 -1.5867 -2.3236  1.7719
  120OSM   C11S12684   5.883   4.761   9.368  0.2897 -0.2214 -0.5932
  120OSM   H11S12685   5.813   4.675   9.361  0.7144 -0.5327 -1.0193
  120OSM   H11T12686   5.947   4.724   9.452  0.5259 -0.2044 -0.7637
  120OSM   C12S12687   5.951   4.758   9.233 -0.2799 -0.2549  0.7642
  120OSM   H12S12688   5.999   4.858   9.220 -1.3824  0.2026  0.0657
  120OSM   H12T12689   5.868   4.773   9.160  0.2511 -0.4804  0.1203
  120OSM   C13S12690   6.040   4.634   9.216 -0.4224  0.0761  0.1310
  120OSM   H13S12691   5.985   4.546   9.257 -3.2061  1.8514  0.2732
  120OSM   H13T12692   6.133   4.636   9.278 -0.4495 -0.0993  0.1762
  120OSM   C14S12693   6.082   4.607   9.073 -1.1687 -0.0734  0.2432
  120OSM   H14S12694   6.166   4.535   9.082 -0.0447  0.9663 -1.8085
  120OSM   H14T12695   6.115   4.699   9.022 -0.2807  1.0666  2.7868
  120OSM   C15S12696   5.966   4.553   8.990 -0.4701 -0.4390 -0.4383
  120OSM   H15S12697   5.884   4.627   8.987 -1.1306 -1.0052  2.0733
  120OSM   H15T12698   5.924   4.458   9.029 -1.8528  0.3436 -0.0039
  120OSM   C16S12699   6.004   4.503   8.847  0.6125 -0.6683  0.0413
  120OSM   H16S12700   6.082   4.424   8.844  2.0540  0.6619  1.2083
  120OSM   H16T12701   6.030   4.600   8.798 -0.8359 -1.2333 -1.8816
  120OSM   C17S12702   5.876   4.454   8.777 -0.2624 -0.4389 -0.3379
  120OSM   H17S12703   5.797   4.532   8.779  1.5027  1.4177 -0.9675
  120OSM   H17T12704   5.849   4.366   8.840 -1.0739 -0.6001 -0.9105
  120OSM   C18S12705   5.886   4.424   8.626  0.4430 -0.4930  0.2229
  120OSM   H18S12706   5.787   4.394   8.585 -0.5050  1.8230  0.7300
  120OSM   H18T12707   5.956   4.341   8.605  0.5756 -0.3896  0.2593
  120OSM   H18U12708   5.914   4.517   8.572 -1.0184 -0.0997  0.1084
  120OSM    C1F12709   5.972   4.792  10.172  0.2398  0.9202 -0.3350
  120OSM     OF12710   6.024   4.704  10.242  0.4127 -0.0927 -0.5944
  120OSM    C2F12711   6.059   4.896  10.105 -0.1630  0.7142 -0.2041
  120OSM    H2F12712   6.121   4.954  10.176  2.4894  1.5432 -3.1021
  120OSM    H2G12713   5.999   4.973  10.051 -0.6128  2.2173  2.3527
  120OSM    C3F12714   6.164   4.838  10.009 -0.0744 -0.4741  0.5905
  120OSM    H3F12715   6.236   4.783  10.072  0.8340  0.5159  0.4273
  120OSM    H3G12716   6.217   4.929   9.974  1.9187 -1.7019  0.3075
  120OSM    C4F12717   6.109   4.756   9.888 -0.7265 -0.4404 -0.2207
  120OSM    H4F12718   6.010   4.715   9.916  0.0827 -2.5190 -0.2904
  120OSM    H4G12719   6.184   4.675   9.873  0.5310  0.1639  2.6106
  120OSM    C5F12720   6.087   4.835   9.753  0.0671  0.5796  0.6020
  120OSM    H5F12721   6.043   4.931   9.788 -1.9585  0.2202 -0.8669
  120OSM    H5G12722   6.019   4.773   9.691  1.9896  0.1808 -1.1709
  120OSM    C6F12723   6.220   4.842   9.681  0.1744  0.1233  0.9456
  120OSM    H6F12724   6.257   4.738   9.667 -1.5521 -0.6730  2.2420
  120OSM    H6G12725   6.300   4.904   9.727  0.0666  0.4988  0.6346
  120OSM    C7F12726   6.214   4.904   9.536  0.7825 -0.4265 -0.0812
  120OSM    H7F12727   6.189   5.012   9.534  0.4270 -0.5190 -1.5594
  120OSM    H7G12728   6.140   4.848   9.475 -1.1240  0.3939  1.4261
  120OSM    C8F12729   6.362   4.884   9.481 -0.5759  0.2803 -0.1332
  120OSM    H8F12730   6.395   4.782   9.508 -0.8646  0.3891  0.6456
  120OSM    H8G12731   6.420   4.951   9.549 -1.2222  0.0299  0.6735
  120OSM    C9F12732   6.382   4.907   9.331 -0.1270 -0.0681  0.8709
  120OSM    H9F12733   6.347   4.823   9.270  1.6871 -1.5667  1.8636
  120OSM   C10F12734   6.427   5.026   9.278  0.1600 -0.1978  0.1848
  120OSM   H10F12735   6.430   5.034   9.168  1.6129 -1.9358  0.0826
  120OSM   C11F12736   6.487   5.144   9.353  0.3268  0.2193  0.1439
  120OSM   H11F12737   6.557   5.104   9.430  1.2429 -3.5472 -2.4997
  120OSM   H11G12738   6.415   5.209   9.407 -0.8959 -0.4870 -0.6022
  120OSM   C12F12739   6.563   5.248   9.256  0.3052  0.0438  1.0102
  120OSM   H12F12740   6.599   5.331   9.321 -2.0239  0.8831  1.2712
  120OSM   H12G12741   6.495   5.300   9.185 -1.1504 -1.8744  0.9607
  120OSM   C13F12742   6.674   5.201   9.163 -0.5066 -0.4097  0.1261
  120OSM   H13F12743   6.625   5.136   9.087  0.7652 -0.3800 -0.7413
  120OSM   H13G12744   6.741   5.125   9.209 -1.0157 -0.6999  0.3880
  120OSM   C14F12745   6.756   5.314   9.100 -0.1940 -0.1829 -0.3602
  120OSM   H14F12746   6.828   5.355   9.175 -1.0283  0.6917 -0.0238
  120OSM   H14G12747   6.692   5.404   9.087  1.7933  1.6805  2.1821
  120OSM   C15F12748   6.816   5.280   8.970 -0.0971 -0.0214  0.2725
  120OSM   H15F12749   6.746   5.223   8.905  0.7207 -2.7622  1.7328
  120OSM   H15G12750   6.903   5.216   8.996  1.4144  0.8863 -2.3300
  120OSM   C16F12751   6.863   5.406   8.892  0.0957  0.1397 -0.5904
  120OSM   H16F12752   6.925   5.383   8.803 -1.7649 -0.6869 -1.7213
  120OSM   H16G12753   6.933   5.456   8.962  0.7851  0.4924 -1.5234
  120OSM   C17F12754   6.745   5.491   8.835 -0.1666 -0.1022 -0.1852
  120OSM   H17F12755   6.688   5.542   8.915  1.8208  0.8390  0.6480
  120OSM   H17G12756   6.676   5.419   8.785 -0.4896 -1.4015  2.0671
  120OSM   C18F12757   6.793   5.585   8.729 -0.0705  0.0776 -0.6076
  120OSM   H18F12758   6.861   5.661   8.773 -2.2352  1.9556 -0.4323
  120OSM   H18G12759   6.712   5.641   8.677 -0.3170  0.2179 -0.0737
  120OSM   H18H12760   6.849   5.533   8.648  0.3489  1.3505 -1.1596
  121OSM      N12761   4.254   0.852  10.846  0.9187 -0.0699 -0.2259
  121OSM    C1512762   4.230   0.702  10.844 -0.5584 -0.7661 -0.6994
  121OSM   H15A12763   4.281   0.652  10.763  1.2590 -0.8527  0.4469
  121OSM   H15B12764   4.125   0.678  10.840 -1.1467  2.1256 -3.7623
  121OSM   H15C12765   4.272   0.645  10.926 -1.0613 -3.6497 -2.3613
  121OSM    C1412766   4.176   0.917  10.733 -0.1676 -0.2151 -0.4376
  121OSM   H14A12767   4.075   0.880  10.722 -0.9590  1.1309  1.7966
  121OSM   H14B12768   4.237   0.909  10.645 -1.6625 -4.0424 -1.2063
  121OSM   H14C12769   4.173   1.025  10.745  3.6172 -0.2657  1.9014
  121OSM    C1312770   4.193   0.901  10.975  0.3856  0.1106 -0.5801
  121OSM   H13A12771   4.088   0.879  10.978  0.6927 -1.4069 -0.5137
  121OSM   H13B12772   4.207   1.008  10.975  1.7627 -0.0429 -2.2068
  121OSM   H13C12773   4.247   0.853  11.056  0.3533  1.5347  0.3004
  121OSM    C1212774   4.402   0.886  10.836 -0.3584  0.0040 -0.7080
  121OSM   H12A12775   4.447   0.819  10.764 -1.6156 -3.3218  1.4477
  121OSM   H12B12776   4.444   0.840  10.924  1.3081  2.1389 -0.3361
  121OSM    C1112777   4.435   1.027  10.845 -0.5328 -0.8621  0.3261
  121OSM   H11A12778   4.388   1.063  10.939 -0.6316 -1.7267  0.6111
  121OSM   H11B12779   4.397   1.086  10.759  0.4789 -3.4950 -1.9953
  121OSM      P12780   4.652   1.003  10.987 -0.0671 -0.0082  0.2771
  121OSM    O1312781   4.695   1.132  11.045 -0.1620  0.3813  0.4986
  121OSM    O1412782   4.571   0.911  11.078 -0.1874 -0.0825 -0.3484
  121OSM    O1112783   4.784   0.930  10.958  0.0682 -0.1053 -0.1324
  121OSM    O1212784   4.577   1.033  10.850  0.7036  0.0468  0.4657
  121OSM    C1S12785   4.790   0.832  10.852  0.7877  0.1753 -0.4979
  121OSM    H1S12786   4.689   0.796  10.825  0.8429 -1.0023  0.8197
  121OSM    H1T12787   4.842   0.740  10.886 -1.0144 -1.3790 -1.8352
  121OSM     NF12788   4.887   0.799  10.630 -0.0291 -0.4609  0.5014
  121OSM    HNF12789   4.950   0.722  10.635 -0.8865 -1.4226 -2.3694
  121OSM    C2S12790   4.876   0.891  10.734  0.1052 -0.2038 -0.1919
  121OSM    H2S12791   4.831   0.985  10.696  1.4750  1.2034  1.5956
  121OSM    C3S12792   5.018   0.933  10.784  0.6004 -0.2304  0.6986
  121OSM    H3S12793   5.072   0.853  10.840 -1.0198 -1.4937  0.4909
  121OSM     O312794   5.001   1.041  10.876 -0.4787  0.8172  0.5767
  121OSM    HO312795   4.921   1.017  10.923  0.7853  1.6567  3.2825
  121OSM    C4S12796   5.103   0.990  10.669  0.7305  0.0342  0.1510
  121OSM    H4S12797   5.056   1.053  10.592  0.3844  1.0270  1.1582
  121OSM    C5S12798   5.235   0.975  10.661 -0.0715  0.2242  0.1047
  121OSM    H5S12799   5.284   0.915  10.739 -0.5219  1.5729  1.4506
  121OSM    C6S12800   5.309   1.023  10.535 -0.0724 -0.1766 -0.0675
  121OSM    H6S12801   5.265   0.965  10.451  0.1024 -1.4459  0.7006
  121OSM    H6T12802   5.417   0.996  10.537  0.3454  1.3993 -0.3512
  121OSM    C7S12803   5.301   1.172  10.505 -0.1372 -0.0816 -0.0628
  121OSM    H7S12804   5.346   1.221  10.594 -1.3333 -0.8109  0.9615
  121OSM    H7T12805   5.192   1.193  10.506  0.2120  1.7725  1.1405
  121OSM    C8S12806   5.374   1.211  10.381 -0.4827  0.4370 -0.4392
  121OSM    H8S12807   5.467   1.151  10.368 -0.6412 -0.7383  3.1505
  121OSM    H8T12808   5.393   1.320  10.380 -0.2104  0.3939 -0.0633
  121OSM    C9S12809   5.290   1.174  10.257  0.5142  0.4279 -0.3086
  121OSM    H9S12810   5.185   1.201  10.280  0.4798 -0.1923  0.2816
  121OSM    H9T12811   5.289   1.063  10.251  0.3650  0.3046  1.6683
  121OSM   C10S12812   5.344   1.217  10.124 -0.5695 -0.3223  0.1319
  121OSM   H10S12813   5.451   1.192  10.107 -0.3639 -0.0229  0.9974
  121OSM   H10T12814   5.329   1.327  10.119  0.7119 -0.0527  1.7949
  121OSM   C11S12815   5.262   1.153  10.008  0.0432  0.9857 -0.1081
  121OSM   H11S12816   5.158   1.186  10.027  0.6126  1.3079  2.6694
  121OSM   H11T12817   5.263   1.043   9.997  0.5095  0.7444  2.1928
  121OSM   C12S12818   5.311   1.203   9.868 -0.9446 -0.7293  0.0184
  121OSM   H12S12819   5.420   1.181   9.858 -0.1272  0.9306  4.1954
  121OSM   H12T12820   5.311   1.313   9.859  1.1218 -0.6713  0.5017
  121OSM   C13S12821   5.249   1.116   9.760  0.0959  0.0649 -0.6759
  121OSM   H13S12822   5.139   1.127   9.767  0.0309 -1.1968  0.3265
  121OSM   H13T12823   5.271   1.011   9.789  2.8653  0.4814 -1.0899
  121OSM   C14S12824   5.288   1.158   9.626  0.5540  0.1457 -0.0253
  121OSM   H14S12825   5.397   1.135   9.625  0.3963 -0.6941  1.0483
  121OSM   H14T12826   5.276   1.265   9.600  0.3868  0.2185  0.3445
  121OSM   C15S12827   5.231   1.083   9.508  0.3347  0.4210  0.3589
  121OSM   H15S12828   5.121   1.072   9.513  0.4524  0.2903  4.2447
  121OSM   H15T12829   5.265   0.977   9.505 -0.3361  0.1695  1.5969
  121OSM   C16S12830   5.257   1.146   9.366  0.0012  0.4310  0.4137
  121OSM   H16S12831   5.224   1.252   9.353  2.2101  0.9836 -1.0693
  121OSM   H16T12832   5.193   1.090   9.295  0.0938  1.3987 -0.4549
  121OSM   C17S12833   5.403   1.150   9.326  0.3899  0.1941  0.6358
  121OSM   H17S12834   5.458   1.056   9.352  0.5745  0.2313  0.3787
  121OSM   H17T12835   5.464   1.229   9.376  2.6604 -0.9407 -0.2949
  121OSM   C18S12836   5.410   1.169   9.174  0.7506 -0.5168 -0.2828
  121OSM   H18S12837   5.512   1.192   9.136  1.2945 -0.6174  1.0862
  121OSM   H18T12838   5.335   1.241   9.133 -0.2630 -2.6884 -2.3671
  121OSM   H18U12839   5.378   1.078   9.118  0.1062 -0.5394  0.1203
  121OSM    C1F12840   4.793   0.787  10.534  0.3707  0.2722 -0.3854
  121OSM     OF12841   4.692   0.855  10.538  0.4229  0.0063  0.2468
  121OSM    C2F12842   4.817   0.694  10.421  0.1934 -1.0759  0.2069
  121OSM    H2F12843   4.883   0.613  10.460 -3.2282 -3.4161  1.3830
  121OSM    H2G12844   4.860   0.755  10.339  2.0134  1.2702  2.7805
  121OSM    C3F12845   4.675   0.641  10.372  0.9891 -0.3672 -0.3884
  121OSM    H3F12846   4.607   0.727  10.350 -1.0135 -1.4731  1.3235
  121OSM    H3G12847   4.634   0.580  10.455 -1.3847  0.4628 -0.9110
  121OSM    C4F12848   4.688   0.557  10.244 -0.6917 -0.1200  0.8145
  121OSM    H4F12849   4.596   0.495  10.239 -0.7380 -0.0531  0.8458
  121OSM    H4G12850   4.774   0.486  10.246 -2.8084 -2.8872 -1.4166
  121OSM    C5F12851   4.670   0.639  10.114  1.1430  0.2809  0.0952
  121OSM    H5F12852   4.753   0.711  10.098  1.2961  0.4386  1.5348
  121OSM    H5G12853   4.572   0.690  10.130  0.3157 -0.9052 -1.0260
  121OSM    C6F12854   4.671   0.546   9.994 -0.3104 -0.0324 -0.0020
  121OSM    H6F12855   4.598   0.464  10.005 -0.8971  0.6069  0.9293
  121OSM    H6G12856   4.769   0.496   9.979 -1.2588 -1.2946 -2.2390
  121OSM    C7F12857   4.636   0.614   9.864  0.7080 -0.0059 -0.2593
  121OSM    H7F12858   4.709   0.694   9.838  0.2247  0.4329 -0.2601
  121OSM    H7G12859   4.538   0.664   9.873  0.5412 -0.0686 -1.5307
  121OSM    C8F12860   4.628   0.529   9.729  0.2788 -0.3774  0.6347
  121OSM    H8F12861   4.581   0.586   9.647  0.0133  1.2619  1.9188
  121OSM    H8G12862   4.565   0.441   9.754 -1.1319  0.1680 -0.9632
  121OSM    C9F12863   4.752   0.467   9.675 -0.4017  0.7224 -0.2161
  121OSM    H9F12864   4.844   0.496   9.728 -0.0978  0.7354 -0.7455
  121OSM   C10F12865   4.761   0.369   9.580  0.2098 -0.1036  0.0533
  121OSM   H10F12866   4.861   0.347   9.541 -0.3839 -0.9645 -1.0232
  121OSM   C11F12867   4.643   0.315   9.494  0.1063  1.0238 -0.0920
  121OSM   H11F12868   4.543   0.311   9.541 -0.1005  1.5928 -0.4970
  121OSM   H11G12869   4.669   0.208   9.476  0.4351  0.9685  0.6595
  121OSM   C12F12870   4.619   0.385   9.354 -0.1163 -0.1969 -0.0251
  121OSM   H12F12871   4.665   0.485   9.370 -0.6484 -0.3732  2.9916
  121OSM   H12G12872   4.509   0.392   9.339 -0.1001  0.5245  0.2068
  121OSM   C13F12873   4.687   0.316   9.240  0.4815  0.0993 -0.0072
  121OSM   H13F12874   4.651   0.211   9.239  0.4019  0.1190  0.6115
  121OSM   H13G12875   4.798   0.312   9.243  0.3847 -2.4017  1.2107
  121OSM   C14F12876   4.636   0.368   9.103  0.2257 -0.2935  0.2355
  121OSM   H14F12877   4.691   0.464   9.091  0.2528 -0.0440  2.1867
  121OSM   H14G12878   4.526   0.387   9.110  0.1957 -0.5998  0.6275
  121OSM   C15F12879   4.661   0.272   8.987  0.0379  0.0428  0.7403
  121OSM   H15F12880   4.576   0.204   8.969  0.4369  0.4831 -3.2584
  121OSM   H15G12881   4.754   0.215   9.011  0.1014  0.9253  2.7187
  121OSM   C16F12882   4.689   0.358   8.854 -0.4992  0.8369 -0.1072
  121OSM   H16F12883   4.763   0.440   8.870  0.4516  0.5133 -2.6766
  121OSM   H16G12884   4.585   0.397   8.849 -0.0555  2.1542  0.8130
  121OSM   C17F12885   4.704   0.281   8.725  1.0742  0.0735  1.3046
  121OSM   H17F12886   4.641   0.189   8.728  0.1070  0.7024  0.5884
  121OSM   H17G12887   4.809   0.246   8.716  0.6508 -1.5352  2.3079
  121OSM   C18F12888   4.670   0.362   8.606 -0.3863  0.2935 -0.0886
  121OSM   H18F12889   4.560   0.373   8.596 -0.4813  0.9969  1.4544
  121OSM   H18G12890   4.706   0.316   8.512  1.6985  1.0737  0.3052
  121OSM   H18H12891   4.723   0.459   8.617  1.2252 -0.6031  0.2964
  122OSM      N12892   5.598   5.709  11.264  0.1618  0.0844 -0.0158
  122OSM    C1512893   5.512   5.686  11.391 -0.2515 -0.4943  0.1945
  122OSM   H15A12894   5.414   5.656  11.357 -0.4968 -2.1672  2.3138
  122OSM   H15B12895   5.502   5.776  11.451 -0.9653 -0.8614  0.6240
  122OSM   H15C12896   5.551   5.604  11.449  0.8235  0.3048  0.6371
  122OSM    C1412897   5.734   5.742  11.305  0.0046  0.2283  0.3310
  122OSM   H14A12898   5.794   5.663  11.349 -0.4769  0.5909  1.6772
  122OSM   H14B12899   5.733   5.825  11.374 -2.9727  0.6130 -0.1314
  122OSM   H14C12900   5.790   5.779  11.221 -0.1393 -0.3487 -0.0196
  122OSM    C1312901   5.605   5.570  11.195 -1.1647  0.0962  0.6612
  122OSM   H13A12902   5.650   5.507  11.270  1.2017  1.4509  0.4422
  122OSM   H13B12903   5.667   5.586  11.107 -1.1594 -0.2761  0.5981
  122OSM   H13C12904   5.510   5.539  11.154  0.0329 -1.4609 -1.0295
  122OSM    C1212905   5.536   5.804  11.176  0.4374  0.2491 -0.1170
  122OSM   H12A12906   5.546   5.904  11.214  2.2169 -0.2025  0.6380
  122OSM   H12B12907   5.431   5.782  11.159  0.4933  0.8039 -1.1907
  122OSM    C1112908   5.593   5.823  11.030 -0.0051 -0.2562  0.6390
  122OSM   H11A12909   5.699   5.853  11.041  0.1779 -1.1192  1.3047
  122OSM   H11B12910   5.550   5.916  10.987 -0.4875 -0.3675  0.8708
  122OSM      P12911   5.440   5.674  10.877  0.5679 -0.2318 -0.7311
  122OSM    O1312912   5.450   5.536  10.832 -0.2565  0.5673  0.5711
  122OSM    O1412913   5.333   5.709  10.980 -0.3109  0.4585 -0.4203
  122OSM    O1112914   5.434   5.764  10.749 -0.4421 -0.2832  0.2146
  122OSM    O1212915   5.575   5.714  10.946 -0.5631  0.0969 -0.1775
  122OSM    C1S12916   5.544   5.792  10.666  0.0918 -0.3337  0.7641
  122OSM    H1S12917   5.621   5.711  10.665  0.1460 -0.2768  0.1089
  122OSM    H1T12918   5.601   5.883  10.693  1.5901 -0.5836 -1.3790
  122OSM     NF12919   5.614   5.803  10.418  1.1296 -0.0146  0.1119
  122OSM    HNF12920   5.640   5.890  10.378  3.4644 -0.6610  0.1230
  122OSM    C2S12921   5.502   5.804  10.515 -0.2369 -0.0457 -0.4892
  122OSM    H2S12922   5.437   5.718  10.486 -1.2324  0.0018  1.4621
  122OSM    C3S12923   5.410   5.939  10.505 -0.7077 -0.2169  0.0544
  122OSM    H3S12924   5.465   6.035  10.517 -3.2114  1.1619  1.0503
  122OSM     O312925   5.310   5.955  10.606  0.0977  0.2636  0.0145
  122OSM    HO312926   5.340   5.895  10.674 -0.2260 -0.1639 -0.2182
  122OSM    C4S12927   5.340   5.947  10.375 -0.0439  0.2558 -0.4966
  122OSM    H4S12928   5.255   5.877  10.372 -0.3189  0.6231 -1.4654
  122OSM    C5S12929   5.345   6.031  10.274  0.2451 -0.6528 -0.2020
  122OSM    H5S12930   5.409   6.121  10.277 -0.5360 -0.0499 -1.3895
  122OSM    C6S12931   5.252   6.023  10.155 -0.4524  0.4147 -0.2051
  122OSM    H6S12932   5.196   6.117  10.134 -1.8007 -0.0287  1.2666
  122OSM    H6T12933   5.175   5.943  10.161  0.5513 -0.5707 -0.5036
  122OSM    C7S12934   5.330   5.997  10.027 -0.2247  0.3694 -0.4962
  122OSM    H7S12935   5.378   5.896  10.027  0.0940  0.5155 -1.6173
  122OSM    H7T12936   5.415   6.068  10.033  2.1837 -2.4758  1.0298
  122OSM    C8S12937   5.238   6.009   9.904 -0.2345 -0.4366  0.5035
  122OSM    H8S12938   5.205   6.115   9.896 -0.4751 -0.4340  1.4614
  122OSM    H8T12939   5.158   5.933   9.915  0.2211 -0.7191  1.9779
  122OSM    C9S12940   5.304   5.975   9.772  0.3299 -0.9824  0.6786
  122OSM    H9S12941   5.222   5.978   9.698  1.0174 -1.0604 -0.0940
  122OSM    H9T12942   5.344   5.871   9.774  0.4736 -0.9404  0.1356
  122OSM   C10S12943   5.420   6.053   9.717 -0.7289 -0.1124 -0.5165
  122OSM   H10S12944   5.510   6.027   9.776 -0.2859 -1.1220 -1.6143
  122OSM   H10T12945   5.402   6.162   9.720 -1.8827 -0.3399  1.3763
  122OSM   C11S12946   5.455   6.020   9.571 -0.2182 -0.6651 -0.2428
  122OSM   H11S12947   5.464   5.909   9.566  1.5158 -0.5748  0.4287
  122OSM   H11T12948   5.553   6.065   9.545 -0.6933  0.8343  0.5069
  122OSM   C12S12949   5.347   6.082   9.476  0.2998 -0.7250 -0.1765
  122OSM   H12S12950   5.357   6.192   9.470  0.6378 -0.7390  0.0838
  122OSM   H12T12951   5.246   6.049   9.510  0.0051  1.3773  1.0232
  122OSM   C13S12952   5.347   6.046   9.327  0.5059 -0.1551 -0.8316
  122OSM   H13S12953   5.249   6.078   9.284 -0.5724 -1.3822  0.6536
  122OSM   H13T12954   5.354   5.936   9.313 -1.7383 -0.4873  0.3072
  122OSM   C14S12955   5.460   6.102   9.238  0.3669  0.1311 -0.1003
  122OSM   H14S12956   5.560   6.089   9.286 -0.2250 -3.2769  0.3456
  122OSM   H14T12957   5.453   6.213   9.239  2.5919  0.3041 -0.3055
  122OSM   C15S12958   5.463   6.043   9.103 -0.3479  0.2393 -0.0134
  122OSM   H15S12959   5.472   5.933   9.111 -1.8713  0.1636  0.8368
  122OSM   H15T12960   5.560   6.059   9.052 -0.4503 -2.2592 -1.0410
  122OSM   C16S12961   5.342   6.058   9.008 -0.1889 -0.2092 -0.4590
  122OSM   H16S12962   5.323   6.166   8.993 -3.4833 -0.7509 -0.5102
  122OSM   H16T12963   5.248   6.014   9.048 -1.0632  0.9965 -1.1621
  122OSM   C17S12964   5.381   6.005   8.868 -1.1196  0.2002 -0.0629
  122OSM   H17S12965   5.396   5.895   8.861 -2.5089  0.0743 -1.1359
  122OSM   H17T12966   5.477   6.056   8.844 -0.5673  0.4212  2.3978
  122OSM   C18S12967   5.284   6.037   8.756 -1.2511  0.0658 -0.2911
  122OSM   H18S12968   5.332   6.017   8.658  0.5849 -0.6169  0.7125
  122OSM   H18T12969   5.255   6.143   8.740 -1.8078 -0.4674 -3.1370
  122OSM   H18U12970   5.191   5.976   8.758 -2.4863  1.9573  0.7086
  122OSM    C1F12971   5.672   5.693  10.396  0.4317  1.0083  0.2498
  122OSM     OF12972   5.618   5.590  10.440 -0.1069 -0.1825  0.7226
  122OSM    C2F12973   5.806   5.705  10.324  0.1840 -0.0991 -0.6287
  122OSM    H2F12974   5.876   5.768  10.382  0.9359 -1.7986  0.3520
  122OSM    H2G12975   5.797   5.766  10.231 -0.2213 -0.5425 -0.8855
  122OSM    C3F12976   5.875   5.569  10.291  0.2968 -0.3064  0.2496
  122OSM    H3F12977   5.810   5.511  10.222  0.9094  3.9689 -4.2345
  122OSM    H3G12978   5.890   5.509  10.384  3.4442 -1.0004 -0.6227
  122OSM    C4F12979   6.017   5.571  10.214  0.0239  0.8028  0.2642
  122OSM    H4F12980   6.092   5.622  10.278 -0.1482  0.8332  0.4436
  122OSM    H4G12981   6.024   5.626  10.118  1.7518 -3.0472 -1.9096
  122OSM    C5F12982   6.068   5.422  10.204 -0.0502  0.0045  0.4035
  122OSM    H5F12983   5.988   5.377  10.140  0.3583  0.1469 -0.2150
  122OSM    H5G12984   6.067   5.375  10.304  2.7492  1.5962  1.2180
  122OSM    C6F12985   6.209   5.417  10.146  0.7098 -0.0984 -0.2613
  122OSM    H6F12986   6.279   5.435  10.230 -0.0823 -0.1751  0.4071
  122OSM    H6G12987   6.227   5.494  10.068 -0.0879  0.9941  0.6286
  122OSM    C7F12988   6.229   5.271  10.101 -0.5593 -0.4237 -0.1555
  122OSM    H7F12989   6.158   5.234  10.024 -1.3026 -0.3465  0.4919
  122OSM    H7G12990   6.217   5.217  10.197 -1.2706  0.6690  0.3833
  122OSM    C8F12991   6.377   5.243  10.058 -0.1587  0.1374  0.2767
  122OSM    H8F12992   6.434   5.252  10.153  1.5515  0.6353 -0.7922
  122OSM    H8G12993   6.412   5.327   9.994 -1.2174 -0.0543 -0.5781
  122OSM    C9F12994   6.406   5.117   9.992 -0.3511  0.6615 -0.5606
  122OSM    H9F12995   6.415   5.027  10.054 -0.1964 -0.0885 -1.6637
  122OSM   C10F12996   6.435   5.090   9.867 -0.1140 -0.0551 -0.1944
  122OSM   H10F12997   6.457   4.986   9.838  2.7768  0.6546 -0.7220
  122OSM   C11F12998   6.447   5.186   9.755  0.3386 -0.4414 -0.0487
  122OSM   H11F12999   6.368   5.263   9.767  1.7229  1.3310 -1.8990
  122OSM   H11G13000   6.428   5.141   9.655  0.5879 -0.1885 -0.2107
  122OSM   C12F13001   6.576   5.270   9.762 -0.4774  0.2536 -0.5152
  122OSM   H12F13002   6.590   5.313   9.864 -1.2464 -0.7239  0.0075
  122OSM   H12G13003   6.555   5.348   9.685 -0.3090  0.1764 -0.6395
  122OSM   C13F13004   6.704   5.197   9.721  0.3213  0.4881 -0.7085
  122OSM   H13F13005   6.691   5.158   9.618  2.5263 -2.5800  0.0897
  122OSM   H13G13006   6.751   5.117   9.783 -0.3090 -1.6844 -2.9616
  122OSM   C14F13007   6.814   5.311   9.724 -0.0485  0.8289 -0.1756
  122OSM   H14F13008   6.810   5.360   9.824  1.5715 -1.1008  0.8706
  122OSM   H14G13009   6.779   5.400   9.668  3.5526  3.2156  1.1729
  122OSM   C15F13010   6.952   5.266   9.684 -1.0713 -0.8036  0.6689
  122OSM   H15F13011   6.996   5.180   9.739  0.1685  0.0592  1.0344
  122OSM   H15G13012   7.020   5.350   9.707  1.8720 -1.6947 -4.2053
  122OSM   C16F13013   6.969   5.240   9.528 -0.3974 -0.3202 -0.1910
  122OSM   H16F13014   6.923   5.322   9.468 -0.1281  1.1821  1.6156
  122OSM   H16G13015   6.925   5.147   9.487 -1.0282 -0.1736  0.1490
  122OSM   C17F13016   7.113   5.238   9.474 -0.0504 -0.1963  0.2477
  122OSM   H17F13017   7.172   5.158   9.524  0.5021 -0.4237 -0.7453
  122OSM   H17G13018   7.167   5.329   9.506  1.1276 -1.0739  0.7919
  122OSM   C18F13019   7.124   5.218   9.324  0.4640 -1.0513 -0.7648
  122OSM   H18F13020   7.108   5.115   9.286  1.6638 -1.9193  1.0371
  122OSM   H18G13021   7.228   5.240   9.292  0.9993 -2.6296 -0.1665
  122OSM   H18H13022   7.064   5.284   9.258  0.6160 -0.3643 -0.2211
  123OSM      N13023   3.539   3.758   6.434  0.3904 -0.2283 -0.4045
  123OSM    C1513024   3.513   3.806   6.578 -0.0468  1.1625  0.0375
  123OSM   H15A13025   3.530   3.912   6.568 -2.1081  1.5944  0.8407
  123OSM   H15B13026   3.577   3.764   6.654 -1.4340 -2.5013 -0.7336
  123OSM   H15C13027   3.413   3.792   6.617  0.3974  1.0126  1.1409
  123OSM    C1413028   3.529   3.611   6.416  0.0288  0.1635 -0.2953
  123OSM   H14A13029   3.437   3.576   6.461  0.0729  2.5759  1.7499
  123OSM   H14B13030   3.603   3.555   6.472  1.8912  1.3330 -1.5537
  123OSM   H14C13031   3.541   3.578   6.314 -0.5032  0.6827 -0.5277
  123OSM    C1313032   3.437   3.817   6.337  0.0318  0.7591  0.2046
  123OSM   H13A13033   3.341   3.783   6.374  1.5069 -0.6199  2.9526
  123OSM   H13B13034   3.451   3.781   6.236  1.9265 -0.6557  0.9363
  123OSM   H13C13035   3.432   3.924   6.347  0.8864  0.9003 -0.8113
  123OSM    C1213036   3.677   3.807   6.390 -0.3470 -0.3370  0.5189
  123OSM   H12A13037   3.685   3.775   6.287 -2.5845 -0.9015  0.5029
  123OSM   H12B13038   3.751   3.758   6.451 -1.4601 -1.8638  0.6555
  123OSM    C1113039   3.715   3.952   6.394  0.0978  0.7690 -0.3658
  123OSM   H11A13040   3.821   3.968   6.367 -0.2016 -0.3685 -2.3236
  123OSM   H11B13041   3.711   4.002   6.493  0.8927  0.9775 -0.4359
  123OSM      P13042   3.666   4.010   6.149  0.0862  0.1931  0.4156
  123OSM    O1313043   3.663   3.867   6.115 -0.8056 -0.7738  0.4300
  123OSM    O1413044   3.573   4.099   6.076  0.0815  0.1728  0.2005
  123OSM    O1113045   3.815   4.062   6.138  0.7207 -0.0919 -0.1208
  123OSM    O1213046   3.631   4.026   6.302  0.4758  0.0510  0.5436
  123OSM    C1S13047   3.845   4.191   6.200 -0.5225  0.5420 -0.2680
  123OSM    H1S13048   3.775   4.219   6.281  0.8225  0.0900  1.0624
  123OSM    H1T13049   3.827   4.271   6.125 -1.9901 -0.6927 -1.2691
  123OSM     NF13050   4.015   4.322   6.326 -0.9191 -0.4262 -0.1544
  123OSM    HNF13051   4.067   4.398   6.288 -0.6748 -1.6924 -2.4484
  123OSM    C2S13052   3.995   4.204   6.239 -0.7653  0.1116 -0.1250
  123OSM    H2S13053   4.017   4.115   6.302  1.2273  1.0302  0.4893
  123OSM    C3S13054   4.083   4.193   6.113 -0.0207 -0.6931 -0.3735
  123OSM    H3S13055   4.050   4.272   6.043  2.0787 -1.0361 -1.7920
  123OSM     O313056   4.073   4.062   6.060  0.4059 -0.2108  0.3086
  123OSM    HO313057   4.002   4.020   6.109 -0.4706 -0.7648 -1.4029
  123OSM    C4S13058   4.223   4.217   6.148 -0.1396  1.0407 -0.5269
  123OSM    H4S13059   4.271   4.130   6.194 -0.9200  1.4793  1.1780
  123OSM    C5S13060   4.288   4.332   6.153  0.5163  0.0639  0.2539
  123OSM    H5S13061   4.234   4.428   6.147 -2.1609 -1.4732 -1.4540
  123OSM    C6S13062   4.431   4.345   6.199 -0.3256  0.7821 -0.0416
  123OSM    H6S13063   4.483   4.418   6.133 -0.2244  0.4760 -0.3030
  123OSM    H6T13064   4.483   4.250   6.176 -1.1947  0.4675 -0.7547
  123OSM    C7S13065   4.441   4.383   6.344  0.2191 -0.7382 -0.1039
  123OSM    H7S13066   4.369   4.463   6.371 -1.2127 -2.5965  1.6999
  123OSM    H7T13067   4.541   4.432   6.351 -1.1956  1.9772  2.1173
  123OSM    C8S13068   4.421   4.258   6.436  0.2347  0.0362 -0.5619
  123OSM    H8S13069   4.503   4.187   6.411 -0.4987  0.4783 -4.5248
  123OSM    H8T13070   4.323   4.208   6.428  1.6275 -2.7007 -1.2660
  123OSM    C9S13071   4.436   4.289   6.585  0.3870 -0.2125  0.8406
  123OSM    H9S13072   4.462   4.195   6.638  0.0020 -0.3611  0.7708
  123OSM    H9T13073   4.339   4.329   6.622 -0.1166 -1.0275  0.4166
  123OSM   C10S13074   4.551   4.383   6.610  0.4680  0.1509 -0.5267
  123OSM   H10S13075   4.527   4.483   6.570 -0.3437 -0.0623 -0.5924
  123OSM   H10T13076   4.645   4.344   6.567  1.0613 -0.9706  1.7049
  123OSM   C11S13077   4.578   4.399   6.765 -0.1933  0.0152 -0.3618
  123OSM   H11S13078   4.479   4.396   6.815  0.1106 -0.3593  0.2184
  123OSM   H11T13079   4.633   4.492   6.791  1.5226 -1.9210  3.3045
  123OSM   C12S13080   4.672   4.294   6.817  0.4106 -0.3218 -0.2900
  123OSM   H12S13081   4.765   4.289   6.756  0.0244  0.6321 -0.9657
  123OSM   H12T13082   4.624   4.195   6.800 -1.4037 -0.0272  2.8394
  123OSM   C13S13083   4.730   4.308   6.958 -0.2273  0.4014 -0.5856
  123OSM   H13S13084   4.795   4.398   6.971  0.7860 -0.5865  1.3531
  123OSM   H13T13085   4.791   4.216   6.973 -0.5409 -0.0461 -1.9946
  123OSM   C14S13086   4.618   4.321   7.063 -1.3617  0.0665 -0.4602
  123OSM   H14S13087   4.544   4.239   7.055 -1.5872  0.2870 -0.6532
  123OSM   H14T13088   4.549   4.404   7.036 -1.5853  0.4138  1.1778
  123OSM   C15S13089   4.663   4.318   7.210 -0.3261  0.2396 -0.7185
  123OSM   H15S13090   4.572   4.341   7.270 -1.7727 -0.3091 -2.6473
  123OSM   H15T13091   4.727   4.409   7.216 -1.9583  1.2729  2.4985
  123OSM   C16S13092   4.729   4.190   7.265  0.6562 -0.2340  0.6375
  123OSM   H16S13093   4.814   4.164   7.198  1.0676  3.8354 -0.5546
  123OSM   H16T13094   4.652   4.111   7.265 -0.6807  1.0509  0.8194
  123OSM   C17S13095   4.777   4.192   7.412 -0.1274  0.3187 -0.8211
  123OSM   H17S13096   4.813   4.297   7.420  1.2858 -0.1743 -0.4177
  123OSM   H17T13097   4.862   4.124   7.434 -0.6805 -0.7500 -1.9751
  123OSM   C18S13098   4.670   4.178   7.520  1.3531 -0.0850  0.4757
  123OSM   H18S13099   4.625   4.077   7.507  1.9645 -0.2433 -0.5151
  123OSM   H18T13100   4.582   4.244   7.508  0.1602 -1.5447  1.1210
  123OSM   H18U13101   4.709   4.167   7.624  1.9909 -0.8617  0.1647
  123OSM    C1F13102   3.964   4.317   6.449 -1.3752 -0.9197 -0.0318
  123OSM     OF13103   3.929   4.217   6.509  0.9628  0.1310 -0.1696
  123OSM    C2F13104   3.948   4.454   6.509  0.2241  0.3336  0.4055
  123OSM    H2F13105   3.849   4.461   6.558 -0.0861  0.5692 -0.2455
  123OSM    H2G13106   3.945   4.525   6.424  2.1440  2.2100  1.8791
  123OSM    C3F13107   4.052   4.501   6.604 -0.2958 -0.3582 -0.5424
  123OSM    H3F13108   4.048   4.611   6.615  1.2999 -0.2063 -1.2404
  123OSM    H3G13109   4.152   4.477   6.562  0.2121  3.5082 -1.6986
  123OSM    C4F13110   4.036   4.439   6.741  0.7531 -0.3744  0.2118
  123OSM    H4F13111   4.056   4.330   6.731 -2.0742 -1.0255  1.1048
  123OSM    H4G13112   3.935   4.457   6.783  0.5777 -1.0156  0.0621
  123OSM    C5F13113   4.145   4.492   6.828 -1.4344 -0.4506 -0.0319
  123OSM    H5F13114   4.143   4.602   6.841  1.4744 -0.0986 -2.1257
  123OSM    H5G13115   4.239   4.461   6.777 -0.7756  1.7585 -0.1960
  123OSM    C6F13116   4.150   4.418   6.965  0.0604 -0.2876 -0.1018
  123OSM    H6F13117   4.047   4.419   7.007 -0.2557 -2.1455 -0.7995
  123OSM    H6G13118   4.208   4.488   7.029 -0.8586  1.6599 -1.3453
  123OSM    C7F13119   4.213   4.282   6.947  0.6627  0.8524 -0.5193
  123OSM    H7F13120   4.308   4.296   6.891  0.0161  0.3227 -1.7658
  123OSM    H7G13121   4.145   4.216   6.889  1.4435  0.1110 -0.5921
  123OSM    C8F13122   4.235   4.208   7.080  0.3420  0.1416 -0.6513
  123OSM    H8F13123   4.313   4.260   7.141  0.7358  0.3975 -1.3684
  123OSM    H8G13124   4.267   4.103   7.065 -1.2594 -0.4003 -0.3772
  123OSM    C9F13125   4.100   4.197   7.150 -0.0215 -0.9582  1.3552
  123OSM    H9F13126   4.024   4.160   7.080  1.2775  2.2656 -1.9551
  123OSM   C10F13127   4.060   4.238   7.270  0.3054  0.2497 -0.5689
  123OSM   H10F13128   3.959   4.211   7.304  0.8875 -2.7052 -1.0295
  123OSM   C11F13129   4.143   4.308   7.376  0.3268 -1.3049  0.1537
  123OSM   H11F13130   4.088   4.402   7.397  1.6019 -0.7734  1.1074
  123OSM   H11G13131   4.239   4.343   7.334  0.2232 -2.0666 -0.7315
  123OSM   C12F13132   4.167   4.221   7.498 -0.4016 -0.0638  0.6739
  123OSM   H12F13133   4.248   4.275   7.552 -0.1774  0.0992  0.1816
  123OSM   H12G13134   4.220   4.130   7.465  1.1756  1.6205 -1.6325
  123OSM   C13F13135   4.043   4.190   7.578  0.0603  0.0955  0.4192
  123OSM   H13F13136   3.977   4.127   7.514  1.7829 -1.4778  0.1338
  123OSM   H13G13137   3.990   4.286   7.595  0.8292  0.5479  0.2955
  123OSM   C14F13138   4.066   4.116   7.704 -0.5435  0.0566  0.1771
  123OSM   H14F13139   4.159   4.134   7.762  0.3398 -0.6455 -1.0085
  123OSM   H14G13140   4.077   4.010   7.673  0.3056  0.6222 -1.4966
  123OSM   C15F13141   3.951   4.125   7.800 -0.1451 -0.3795 -0.1985
  123OSM   H15F13142   3.850   4.135   7.756 -0.1613  0.2963 -0.0190
  123OSM   H15G13143   3.970   4.215   7.862  0.0067  0.2722 -1.1766
  123OSM   C16F13144   3.957   4.014   7.903  0.5542  0.4675 -0.0743
  123OSM   H16F13145   4.058   3.971   7.891  0.9554  2.1266 -3.2790
  123OSM   H16G13146   3.896   3.925   7.877  2.1404 -0.0120 -2.3127
  123OSM   C17F13147   3.928   4.059   8.051  0.3137 -0.4782  0.3411
  123OSM   H17F13148   3.823   4.096   8.050 -1.0193 -4.0956 -1.0513
  123OSM   H17G13149   3.991   4.149   8.069 -0.0209  0.0873 -1.2557
  123OSM   C18F13150   3.953   3.962   8.169 -0.1027 -0.3745  0.3813
  123OSM   H18F13151   4.060   3.960   8.198  0.3769  1.3828 -1.1561
  123OSM   H18G13152   3.916   3.859   8.149 -0.3104  0.2236 -2.5777
  123OSM   H18H13153   3.895   4.012   8.250 -0.8051  0.6877 -0.7471
  124OSM      N13154   0.494   2.019   6.222  0.8049 -0.3545  0.1639
  124OSM    C1513155   0.499   2.159   6.163  0.1772 -0.4123 -0.2501
  124OSM   H15A13156   0.599   2.191   6.135 -0.3712  0.7296 -0.9282
  124OSM   H15B13157   0.451   2.229   6.229  0.3757 -0.4226 -0.0958
  124OSM   H15C13158   0.429   2.169   6.081  0.6111  1.9836 -0.3696
  124OSM    C1413159   0.533   1.916   6.124  0.1555  0.0045  0.4567
  124OSM   H14A13160   0.639   1.922   6.103  0.2263  0.7781  0.9884
  124OSM   H14B13161   0.473   1.926   6.035  0.2223 -0.1301  0.3965
  124OSM   H14C13162   0.512   1.820   6.168 -1.5537  1.1921  2.3537
  124OSM    C1313163   0.588   2.007   6.337 -0.1219 -0.0900  0.5751
  124OSM   H13A13164   0.579   2.087   6.409 -0.3319  0.1400  0.2945
  124OSM   H13B13165   0.686   2.003   6.290 -0.9328  0.3648 -1.2140
  124OSM   H13C13166   0.558   1.920   6.392 -2.3400  0.1860 -0.1424
  124OSM    C1213167   0.356   1.989   6.281  0.1365 -0.6280  0.1496
  124OSM   H12A13168   0.361   1.889   6.322  0.4128 -0.2647  1.0181
  124OSM   H12B13169   0.285   1.988   6.200 -3.1131 -1.3874  2.8560
  124OSM    C1113170   0.305   2.078   6.397 -0.0579  0.1372  1.1886
  124OSM   H11A13171   0.370   2.051   6.482 -1.2420  0.9344  2.3739
  124OSM   H11B13172   0.206   2.043   6.435  0.0154 -1.7031 -0.2142
  124OSM      P13173   0.173   2.294   6.325  0.4821 -0.1290  0.2353
  124OSM    O1313174   0.207   2.441   6.306 -0.0036 -0.0043 -0.3867
  124OSM    O1413175   0.119   2.229   6.208 -0.1015  0.4176  0.3395
  124OSM    O1113176   0.086   2.280   6.451  0.1725  0.2443  0.1557
  124OSM    O1213177   0.306   2.216   6.373 -0.6917  0.0597  0.2915
  124OSM    C1S13178   0.141   2.308   6.583  0.2166 -0.1768  1.0570
  124OSM    H1S13179   0.170   2.414   6.592  3.0076 -0.6669 -1.4785
  124OSM    H1T13180   0.231   2.250   6.612 -0.6387 -0.4843  3.1874
  124OSM     NF13181   0.045   2.323   6.817  0.5303  0.2412  0.6320
  124OSM    HNF13182   0.035   2.253   6.888 -1.8823 -0.8919 -0.7981
  124OSM    C2S13183   0.022   2.282   6.680 -0.4352  0.6133 -0.3693
  124OSM    H2S13184  -0.055   2.355   6.648 -1.9200 -1.5874 -1.9503
  124OSM    C3S13185  -0.034   2.138   6.668 -0.2823 -0.3740  0.5617
  124OSM    H3S13186   0.045   2.066   6.699  1.1265  1.7820  2.0806
  124OSM     O313187  -0.059   2.087   6.536 -0.4227  0.4423 -0.0442
  124OSM    HO313188  -0.018   2.153   6.480  1.8911 -2.2125 -1.6171
  124OSM    C4S13189  -0.154   2.119   6.761  0.3089 -0.4909 -0.0628
  124OSM    H4S13190  -0.128   2.064   6.852  1.5627 -0.1114 -0.1912
  124OSM    C5S13191  -0.285   2.168   6.742 -0.3412  0.5222 -0.0362
  124OSM    H5S13192  -0.309   2.241   6.663 -0.5444 -0.9935 -1.4093
  124OSM    C6S13193  -0.405   2.147   6.830 -0.3532 -0.1359  0.2124
  124OSM    H6S13194  -0.447   2.050   6.796 -1.0907  0.2486  0.0080
  124OSM    H6T13195  -0.487   2.219   6.810 -0.6614 -0.6108 -0.2645
  124OSM    C7S13196  -0.368   2.135   6.987 -0.7079 -0.8648 -0.4508
  124OSM    H7S13197  -0.307   2.044   7.006  4.2220  2.1560 -1.0902
  124OSM    H7T13198  -0.466   2.135   7.040  0.1280 -1.0729  1.1515
  124OSM    C8S13199  -0.290   2.256   7.051  0.3112  0.4825 -0.3473
  124OSM    H8S13200  -0.322   2.355   7.010 -0.2451 -0.4186 -2.1389
  124OSM    H8T13201  -0.186   2.231   7.022  0.5381 -0.5543  1.3117
  124OSM    C9S13202  -0.315   2.252   7.201 -0.2088  0.3359  0.3315
  124OSM    H9S13203  -0.296   2.153   7.248 -3.4223 -1.4654 -2.0318
  124OSM    H9T13204  -0.417   2.271   7.241 -0.0718  2.0072 -0.0908
  124OSM   C10S13205  -0.216   2.353   7.275 -0.5038 -0.0650  0.2043
  124OSM   H10S13206  -0.235   2.459   7.248 -1.3726  0.1756  1.6819
  124OSM   H10T13207  -0.113   2.327   7.244  0.2731  4.3435 -1.2707
  124OSM   C11S13208  -0.233   2.336   7.429 -0.3489  0.2106 -0.2932
  124OSM   H11S13209  -0.232   2.230   7.461 -0.8238 -0.2217 -1.6762
  124OSM   H11T13210  -0.329   2.384   7.457  0.0978  2.1016 -1.8900
  124OSM   C12S13211  -0.132   2.410   7.524 -0.6344  0.4270  0.0605
  124OSM   H12S13212  -0.129   2.514   7.484 -1.9539 -0.6361 -3.0069
  124OSM   H12T13213  -0.031   2.374   7.496  1.3374  4.6173  1.3767
  124OSM   C13S13214  -0.171   2.416   7.668 -0.1721  0.2731 -0.6978
  124OSM   H13S13215  -0.278   2.441   7.686  0.5896  2.8389  0.5024
  124OSM   H13T13216  -0.115   2.502   7.711 -1.3002  2.0684 -2.7612
  124OSM   C14S13217  -0.137   2.289   7.760  0.1751  0.1267  0.1465
  124OSM   H14S13218  -0.026   2.289   7.748  0.1453 -0.8342 -0.1328
  124OSM   H14T13219  -0.183   2.197   7.719  1.1364 -0.5312  0.5283
  124OSM   C15S13220  -0.183   2.321   7.901  0.2067 -0.5674 -0.8461
  124OSM   H15S13221  -0.157   2.243   7.975  2.9703  2.8652  1.9898
  124OSM   H15T13222  -0.294   2.334   7.897  0.3271  0.7253 -0.2901
  124OSM   C16S13223  -0.130   2.454   7.956 -0.1801 -0.2489 -0.2417
  124OSM   H16S13224  -0.176   2.540   7.903  0.3075  0.3596  0.3123
  124OSM   H16T13225  -0.021   2.449   7.932 -0.0842 -0.6530  0.2602
  124OSM   C17S13226  -0.138   2.479   8.108 -0.4829 -0.0955 -0.4766
  124OSM   H17S13227  -0.109   2.390   8.167  1.7233 -1.3615 -3.3777
  124OSM   H17T13228  -0.245   2.502   8.131 -0.4890 -0.1637 -0.4350
  124OSM   C18S13229  -0.056   2.605   8.166 -0.0857 -0.4096  0.2827
  124OSM   H18S13230  -0.084   2.698   8.110 -0.0066 -0.4687  0.1457
  124OSM   H18T13231   0.053   2.595   8.149 -0.1756  0.6130 -1.0289
  124OSM   H18U13232  -0.073   2.624   8.274  0.7396 -1.6046  0.6248
  124OSM    C1F13233   0.076   2.442   6.862 -0.1407 -0.2382  0.1351
  124OSM     OF13234   0.076   2.542   6.791  0.5537  0.0002  0.0602
  124OSM    C2F13235   0.112   2.449   7.003 -0.4047 -0.0758 -0.2423
  124OSM    H2F13236   0.197   2.388   7.038 -0.4678 -0.5604 -0.9126
  124OSM    H2G13237   0.025   2.431   7.069 -0.2384  1.7617  0.5099
  124OSM    C3F13238   0.152   2.595   7.041 -0.4883 -0.2672  0.6179
  124OSM    H3F13239   0.060   2.655   7.025 -2.3547 -3.5060 -1.2089
  124OSM    H3G13240   0.231   2.626   6.968 -0.0625 -1.0219  0.7600
  124OSM    C4F13241   0.222   2.605   7.172 -0.5076  0.4911 -0.6550
  124OSM    H4F13242   0.262   2.708   7.180 -1.9045  0.8426  2.3262
  124OSM    H4G13243   0.307   2.533   7.167  0.7437  2.0072 -1.7298
  124OSM    C5F13244   0.137   2.575   7.303  0.1782 -0.1444 -0.3130
  124OSM    H5F13245   0.141   2.467   7.326 -1.9421  0.1632  1.6736
  124OSM    H5G13246   0.032   2.593   7.271  0.1379 -1.3355 -0.8744
  124OSM    C6F13247   0.163   2.660   7.426  0.2495  0.1324 -0.1985
  124OSM    H6F13248   0.080   2.666   7.501  1.2381  2.7260  0.7542
  124OSM    H6G13249   0.181   2.765   7.394 -1.4191  1.2777  2.3480
  124OSM    C7F13250   0.277   2.600   7.507 -0.0210  0.5472  0.3157
  124OSM    H7F13251   0.362   2.608   7.436 -0.9383  2.7193 -0.5760
  124OSM    H7G13252   0.267   2.490   7.522 -0.5425  0.5917  0.3020
  124OSM    C8F13253   0.313   2.677   7.633  0.1688  0.5220 -0.5756
  124OSM    H8F13254   0.344   2.779   7.601  0.8014  0.1871 -1.0380
  124OSM    H8G13255   0.406   2.633   7.675 -0.7169 -1.0857 -0.2687
  124OSM    C9F13256   0.193   2.695   7.729 -0.6366  0.1317  0.1495
  124OSM    H9F13257   0.107   2.754   7.694 -1.7374 -1.8205 -0.4501
  124OSM   C10F13258   0.176   2.631   7.842 -0.0794  0.6352 -0.1979
  124OSM   H10F13259   0.085   2.657   7.898  1.5408  0.6593  2.5488
  124OSM   C11F13260   0.263   2.523   7.905 -0.1188 -0.4262  0.6690
  124OSM   H11F13261   0.332   2.471   7.836 -1.1995 -0.0254 -0.7305
  124OSM   H11G13262   0.210   2.447   7.966 -3.2120  0.7510 -0.4529
  124OSM   C12F13263   0.351   2.598   8.005  0.2602  1.3861 -0.5247
  124OSM   H12F13264   0.294   2.654   8.083  1.3321  1.7465  0.0098
  124OSM   H12G13265   0.403   2.677   7.948 -0.6163  1.9696 -0.5323
  124OSM   C13F13266   0.465   2.516   8.066  0.0950 -0.1504 -0.8982
  124OSM   H13F13267   0.555   2.513   8.000  0.8139 -1.4616  0.1317
  124OSM   H13G13268   0.432   2.410   8.061 -0.2090 -0.2030  1.6326
  124OSM   C14F13269   0.497   2.548   8.213 -0.5344 -0.2135  0.8777
  124OSM   H14F13270   0.407   2.573   8.274 -1.1695  0.2666 -0.2503
  124OSM   H14G13271   0.558   2.642   8.209 -0.1174 -0.5422 -0.5796
  124OSM   C15F13272   0.577   2.450   8.294  0.5443  0.8232  0.3798
  124OSM   H15F13273   0.679   2.436   8.253  0.5546  0.8584  0.3942
  124OSM   H15G13274   0.522   2.353   8.296  0.0539  1.0499 -1.4870
  124OSM   C16F13275   0.591   2.506   8.440 -0.0214  0.4555  0.0606
  124OSM   H16F13276   0.494   2.544   8.477  0.8439  0.0431  2.8969
  124OSM   H16G13277   0.658   2.594   8.451 -1.3397  1.3268  1.2053
  124OSM   C17F13278   0.644   2.401   8.541 -0.2436 -0.4889  0.0764
  124OSM   H17F13279   0.582   2.309   8.533 -2.7124  1.2306 -1.0156
  124OSM   H17G13280   0.649   2.440   8.645  0.8295 -1.6187  0.4689
  124OSM   C18F13281   0.785   2.357   8.508  0.5977  0.3074 -0.7201
  124OSM   H18F13282   0.843   2.452   8.510  0.3484  0.4407  1.7607
  124OSM   H18G13283   0.797   2.302   8.412  0.3141  1.6058 -1.5039
  124OSM   H18H13284   0.827   2.295   8.589 -1.4182 -0.4757 -0.2567
  125OSM      N13285   6.044   3.752   5.924 -0.1358  1.1093 -0.2862
  125OSM    C1513286   6.014   3.876   6.008 -0.2081 -0.5271  0.1358
  125OSM   H15A13287   6.049   3.968   5.965 -0.9249  0.5524  1.7857
  125OSM   H15B13288   6.072   3.871   6.099 -0.7022 -0.3166  0.4643
  125OSM   H15C13289   5.907   3.885   6.026 -0.2552  0.9588 -0.8068
  125OSM    C1413290   5.947   3.777   5.812  0.7932 -0.1291 -0.2340
  125OSM   H14A13291   5.966   3.874   5.768 -0.4299 -0.3692 -1.3562
  125OSM   H14B13292   5.841   3.775   5.836  0.7541  0.7962 -0.3189
  125OSM   H14C13293   5.957   3.706   5.732  2.0178 -0.9113  0.6108
  125OSM    C1313294   6.186   3.764   5.873 -0.3965 -1.1455 -0.4258
  125OSM   H13A13295   6.223   3.680   5.817 -0.8127 -1.5441 -0.1066
  125OSM   H13B13296   6.249   3.758   5.961 -1.4411 -3.6632  0.2106
  125OSM   H13C13297   6.199   3.858   5.822 -2.9319 -0.7141 -0.3560
  125OSM    C1213298   6.006   3.617   5.984  0.1288  0.1062 -0.5553
  125OSM   H12A13299   6.034   3.533   5.922 -0.0296  0.6553 -1.3826
  125OSM   H12B13300   5.898   3.608   5.984  0.1666 -0.8472  2.7489
  125OSM    C1113301   6.058   3.592   6.135  0.5764 -0.2965 -0.1219
  125OSM   H11A13302   6.025   3.497   6.182 -2.0368 -0.2468 -1.7219
  125OSM   H11B13303   6.009   3.668   6.200  0.1420 -2.2018  1.8350
  125OSM      P13304   6.286   3.475   6.120  0.3005  0.4993 -0.1309
  125OSM    O1313305   6.233   3.385   6.011 -0.5189  0.0396 -1.4974
  125OSM    O1413306   6.423   3.525   6.112  0.3108  0.5913 -0.3695
  125OSM    O1113307   6.267   3.406   6.263 -0.7110  0.4783  0.0320
  125OSM    O1213308   6.197   3.599   6.124 -0.3500 -0.0819 -0.0186
  125OSM    C1S13309   6.268   3.479   6.385  0.3060 -0.4692  0.0709
  125OSM    H1S13310   6.182   3.550   6.387  1.1564  0.6301 -1.6962
  125OSM    H1T13311   6.362   3.536   6.399 -1.1625  1.8547  0.7034
  125OSM     NF13312   6.233   3.475   6.621  0.5023 -0.0891 -0.1861
  125OSM    HNF13313   6.315   3.510   6.665  1.7025 -1.3570 -1.3424
  125OSM    C2S13314   6.255   3.390   6.511  0.0504 -0.3644  0.1611
  125OSM    H2S13315   6.166   3.326   6.490  1.3787 -2.3698  0.4873
  125OSM    C3S13316   6.377   3.294   6.527 -0.0253 -0.1039  0.1048
  125OSM    H3S13317   6.467   3.360   6.526  0.2124 -0.4223  0.3291
  125OSM     O313318   6.390   3.208   6.412 -0.0124 -0.1351  0.0390
  125OSM    HO313319   6.337   3.256   6.349  0.1385 -1.3006 -0.9934
  125OSM    C4S13320   6.366   3.215   6.657 -0.6189  0.3539 -0.1910
  125OSM    H4S13321   6.265   3.180   6.687  0.3305 -1.4236  1.0451
  125OSM    C5S13322   6.469   3.187   6.735 -0.1052  0.1432 -0.2620
  125OSM    H5S13323   6.568   3.219   6.699 -0.4771 -0.9577 -2.3321
  125OSM    C6S13324   6.458   3.112   6.866 -0.4359  0.1510  0.4722
  125OSM    H6S13325   6.520   3.020   6.873  2.0825  1.6106 -1.4994
  125OSM    H6T13326   6.356   3.079   6.893  0.7798 -1.4306  3.3571
  125OSM    C7S13327   6.515   3.194   6.982 -0.2486  0.1179  0.0728
  125OSM    H7S13328   6.612   3.246   6.962  0.4108 -2.0641 -2.7044
  125OSM    H7T13329   6.525   3.133   7.074 -1.2280  2.9903  2.1234
  125OSM    C8S13330   6.420   3.304   7.026  0.1922 -0.1893  0.6730
  125OSM    H8S13331   6.310   3.286   7.019  0.0613  0.2179  1.6478
  125OSM    H8T13332   6.445   3.393   6.965  0.8403 -0.6126  0.3128
  125OSM    C9S13333   6.453   3.351   7.174  0.5591  0.1856 -0.2173
  125OSM    H9S13334   6.400   3.449   7.183  1.6300  0.5330  3.0574
  125OSM    H9T13335   6.562   3.374   7.176  0.7726 -0.7934 -0.5751
  125OSM   C10S13336   6.401   3.261   7.288 -0.0560 -0.1600 -0.3772
  125OSM   H10S13337   6.448   3.160   7.288  1.6774  0.6313  0.5121
  125OSM   H10T13338   6.291   3.266   7.270  0.2476  2.1879 -1.8837
  125OSM   C11S13339   6.443   3.323   7.423  0.3036 -0.1629  0.4543
  125OSM   H11S13340   6.445   3.433   7.414 -0.1938 -0.1827  0.0903
  125OSM   H11T13341   6.547   3.297   7.450  0.7013 -1.2553 -1.9762
  125OSM   C12S13342   6.351   3.289   7.547  0.2552  0.2382 -0.4075
  125OSM   H12S13343   6.330   3.180   7.552 -0.5433  0.4412  1.2254
  125OSM   H12T13344   6.257   3.346   7.531  0.4097 -0.0609 -2.5778
  125OSM   C13S13345   6.423   3.337   7.676 -0.2133 -0.0986  0.5334
  125OSM   H13S13346   6.456   3.438   7.644 -0.1174 -0.1211  0.5636
  125OSM   H13T13347   6.516   3.277   7.689  0.1230  0.1917 -0.4777
  125OSM   C14S13348   6.340   3.349   7.804  0.4401  0.2979  0.2627
  125OSM   H14S13349   6.301   3.249   7.833  0.7997  0.1645  0.2957
  125OSM   H14T13350   6.245   3.404   7.788 -0.2240 -0.8886  0.0193
  125OSM   C15S13351   6.412   3.413   7.920 -0.7420 -0.1060 -0.5987
  125OSM   H15S13352   6.462   3.505   7.884 -1.2166  0.0388 -0.9045
  125OSM   H15T13353   6.489   3.343   7.958  0.1914 -0.1735 -2.5247
  125OSM   C16S13354   6.320   3.470   8.028 -0.2443  0.3876  0.5761
  125OSM   H16S13355   6.262   3.390   8.078 -0.5099  0.2023 -0.0180
  125OSM   H16T13356   6.243   3.532   7.978 -0.3111 -0.1355  0.0156
  125OSM   C17S13357   6.390   3.547   8.145 -0.0423 -0.2310 -0.1364
  125OSM   H17S13358   6.445   3.636   8.109  1.7971 -1.1049  0.4239
  125OSM   H17T13359   6.468   3.481   8.189  1.9445  2.5167  0.5961
  125OSM   C18S13360   6.284   3.588   8.242  0.2862 -0.4737 -0.1967
  125OSM   H18S13361   6.202   3.646   8.194  0.2253 -0.1181  0.3290
  125OSM   H18T13362   6.329   3.649   8.324  1.2657  1.2481 -1.9775
  125OSM   H18U13363   6.233   3.498   8.283  0.2057 -0.0833  0.5710
  125OSM    C1F13364   6.117   3.529   6.652 -0.2784 -0.0411  0.4510
  125OSM     OF13365   6.018   3.493   6.586 -0.3495  0.7421 -0.3905
  125OSM    C2F13366   6.107   3.625   6.774 -0.0258  0.4182  0.4850
  125OSM    H2F13367   6.146   3.726   6.747  0.2639  0.2019  0.0864
  125OSM    H2G13368   6.170   3.575   6.851 -0.7124 -1.7434 -0.3119
  125OSM    C3F13369   5.960   3.638   6.815  0.3113  0.5095  0.0238
  125OSM    H3F13370   5.924   3.533   6.825 -0.0391  0.5608 -0.6951
  125OSM    H3G13371   5.898   3.697   6.745  0.3989  1.6238  0.8695
  125OSM    C4F13372   5.950   3.703   6.951 -0.3016  0.6934 -0.2326
  125OSM    H4F13373   6.009   3.797   6.948  3.6952 -1.6902  0.0283
  125OSM    H4G13374   6.012   3.642   7.020 -3.6229  0.1575  2.3618
  125OSM    C5F13375   5.814   3.729   7.005  0.4378 -0.0567  0.1166
  125OSM    H5F13376   5.743   3.645   7.022 -0.3292  0.6430  0.4525
  125OSM    H5G13377   5.761   3.783   6.923  1.0197  0.6203  0.1794
  125OSM    C6F13378   5.815   3.806   7.138 -0.8377 -0.1428  0.1732
  125OSM    H6F13379   5.891   3.886   7.122 -0.1011 -1.1285 -1.4696
  125OSM    H6G13380   5.865   3.734   7.207  1.9069  1.0192 -0.5139
  125OSM    C7F13381   5.678   3.846   7.181 -0.3270  0.4223  0.2263
  125OSM    H7F13382   5.602   3.795   7.117  1.6738 -0.3557 -1.6128
  125OSM    H7G13383   5.670   3.955   7.159 -1.2500  0.2679 -0.2262
  125OSM    C8F13384   5.659   3.818   7.337  0.2177 -0.3017  0.0091
  125OSM    H8F13385   5.742   3.857   7.399 -0.9698  1.6637  0.4008
  125OSM    H8G13386   5.672   3.708   7.344  2.3033 -0.2016 -1.7885
  125OSM    C9F13387   5.518   3.847   7.386 -0.1682 -0.0041  0.0197
  125OSM    H9F13388   5.446   3.790   7.326 -0.4936 -0.6358  0.9806
  125OSM   C10F13389   5.480   3.913   7.497  0.4497  0.2959  0.4231
  125OSM   H10F13390   5.372   3.918   7.519  0.3458  0.7621 -0.1606
  125OSM   C11F13391   5.560   3.977   7.609 -0.1953  0.3824  0.2535
  125OSM   H11F13392   5.527   4.083   7.611 -2.2419 -0.2003 -0.6866
  125OSM   H11G13393   5.669   3.970   7.590 -0.5009 -3.1321 -0.6695
  125OSM   C12F13394   5.527   3.921   7.749 -0.7260 -0.1356  0.4949
  125OSM   H12F13395   5.608   3.944   7.821 -0.2082 -0.9490  0.1732
  125OSM   H12G13396   5.515   3.810   7.750  1.9299 -0.4937 -1.7654
  125OSM   C13F13397   5.394   3.988   7.806 -0.1377 -0.6877  0.7776
  125OSM   H13F13398   5.315   4.003   7.729 -0.2694  0.7131  1.1666
  125OSM   H13G13399   5.405   4.094   7.835 -1.7717  0.8652 -3.8454
  125OSM   C14F13400   5.338   3.920   7.929 -0.9618  0.7152  0.3367
  125OSM   H14F13401   5.417   3.886   8.000  0.5786 -2.0485 -2.5600
  125OSM   H14G13402   5.288   3.824   7.904  0.2950  0.8030 -2.8459
  125OSM   C15F13403   5.240   4.012   8.007  0.2054  0.5485  0.3211
  125OSM   H15F13404   5.136   4.008   7.967 -0.0783 -0.3486  1.1401
  125OSM   H15G13405   5.266   4.119   8.001 -0.1193  0.7374  2.2109
  125OSM   C16F13406   5.261   3.990   8.160 -0.0027  0.5825  0.5004
  125OSM   H16F13407   5.186   4.054   8.213  0.5200  1.5647  0.0696
  125OSM   H16G13408   5.359   4.028   8.196  0.1704  1.2299 -0.6440
  125OSM   C17F13409   5.226   3.844   8.209  0.6345 -0.5090 -0.1899
  125OSM   H17F13410   5.238   3.846   8.319 -1.2368 -1.2896  0.0381
  125OSM   H17G13411   5.295   3.773   8.159 -0.5259 -0.7287 -1.5086
  125OSM   C18F13412   5.087   3.790   8.176 -0.0195 -0.6875  0.1794
  125OSM   H18F13413   5.018   3.851   8.239  1.6590  0.2618  1.1401
  125OSM   H18G13414   5.080   3.681   8.193 -3.8215 -1.0962 -3.2085
  125OSM   H18H13415   5.070   3.816   8.069 -1.7426 -0.5319  0.4837
  126OSM      N13416   4.162   2.590   6.606 -0.7927  0.8214  0.3873
  126OSM    C1513417   4.242   2.700   6.561 -1.0291 -0.0722  0.3984
  126OSM   H15A13418   4.260   2.692   6.454  0.3766  1.5433  0.4881
  126OSM   H15B13419   4.342   2.716   6.599 -0.5809  0.5370 -1.0053
  126OSM   H15C13420   4.195   2.796   6.572 -2.0617 -0.6430  1.0088
  126OSM    C1413421   4.220   2.468   6.548  0.1787  0.3135  0.2245
  126OSM   H14A13422   4.327   2.472   6.533  0.3324 -1.4098  0.7099
  126OSM   H14B13423   4.190   2.455   6.445  0.8885  0.7231 -0.0402
  126OSM   H14C13424   4.193   2.372   6.590 -1.0322  0.5231 -0.0667
  126OSM    C1313425   4.163   2.576   6.761 -0.4465  0.5067 -0.9331
  126OSM   H13A13426   4.122   2.667   6.802 -2.7525 -1.1935  0.6285
  126OSM   H13B13427   4.265   2.561   6.795 -1.4972 -0.8487  1.8222
  126OSM   H13C13428   4.112   2.486   6.793  0.9507  0.0174 -0.0166
  126OSM    C1213429   4.024   2.609   6.552 -0.4893 -0.0294  0.0152
  126OSM   H12A13430   3.956   2.534   6.590 -2.1910  0.0586 -2.7157
  126OSM   H12B13431   4.026   2.598   6.444  1.4323 -0.0517  0.0441
  126OSM    C1113432   3.949   2.737   6.579  0.7010  0.1893 -0.0966
  126OSM   H11A13433   3.952   2.765   6.687 -1.1530  1.3750 -0.3331
  126OSM   H11B13434   3.841   2.720   6.562  0.5864  0.9554 -0.1398
  126OSM      P13435   3.969   2.985   6.524 -0.3985 -0.5656  0.2881
  126OSM    O1313436   4.053   3.062   6.432  0.1209  0.0164 -0.1647
  126OSM    O1413437   3.824   3.011   6.523 -0.2150  0.3847 -0.1973
  126OSM    O1113438   4.020   3.000   6.673  0.2365 -0.3230 -0.3651
  126OSM    O1213439   3.996   2.839   6.484 -0.0494 -0.5805 -0.0757
  126OSM    C1S13440   3.987   3.102   6.765  0.1218  0.0436  0.3445
  126OSM    H1S13441   3.908   3.176   6.739  0.4654 -0.1245 -1.2285
  126OSM    H1T13442   4.072   3.171   6.784  0.0738  0.1712  0.0978
  126OSM     NF13443   3.917   3.172   6.995  0.2401 -0.1145 -0.4118
  126OSM    HNF13444   3.980   3.183   7.072  0.2645 -1.9271 -0.1495
  126OSM    C2S13445   3.946   3.055   6.914 -0.0275 -0.5392 -0.0716
  126OSM    H2S13446   3.855   2.993   6.902 -0.0975 -1.1695  3.3010
  126OSM    C3S13447   4.052   2.959   6.970  0.5745  0.1333 -0.1662
  126OSM    H3S13448   4.147   3.015   6.987  0.9365 -0.1670 -1.1305
  126OSM     O313449   4.102   2.861   6.880  0.0752 -0.1263  0.7292
  126OSM    HO313450   4.074   2.908   6.801  0.4383  0.0073  0.6764
  126OSM    C4S13451   3.993   2.892   7.089  0.3510 -0.0488  0.4101
  126OSM    H4S13452   4.011   2.951   7.180  0.9073 -1.2952  1.1321
  126OSM    C5S13453   3.927   2.773   7.106 -0.1038  0.1782  0.6426
  126OSM    H5S13454   3.902   2.712   7.018  0.0636  1.7378 -0.5173
  126OSM    C6S13455   3.884   2.728   7.240  0.3945 -0.9861 -0.7731
  126OSM    H6S13456   3.896   2.618   7.241  1.2413 -0.8958  1.9020
  126OSM    H6T13457   3.773   2.736   7.239  0.3185 -1.8450  0.0050
  126OSM    C7S13458   3.954   2.788   7.364  0.0692 -0.7016 -0.5813
  126OSM    H7S13459   3.935   2.895   7.384 -0.1577 -0.7682 -0.4282
  126OSM    H7T13460   4.063   2.781   7.346 -0.2829 -3.1525 -1.9468
  126OSM    C8S13461   3.924   2.706   7.493  0.1461  0.8359 -0.1381
  126OSM    H8S13462   3.925   2.595   7.484  1.6606  0.9051 -1.0891
  126OSM    H8T13463   3.816   2.727   7.507 -0.3104 -1.8150  0.5076
  126OSM    C9S13464   3.986   2.754   7.626  0.4784 -0.3570 -0.3654
  126OSM    H9S13465   3.941   2.700   7.711  0.0221 -1.0769 -1.0540
  126OSM    H9T13466   3.953   2.859   7.632  3.0209  0.5572 -1.5130
  126OSM   C10S13467   4.136   2.743   7.626 -0.4816 -0.0553  0.8418
  126OSM   H10S13468   4.187   2.826   7.573  0.5520 -1.0046  0.3356
  126OSM   H10T13469   4.173   2.647   7.582  1.4372  0.0911  2.0630
  126OSM   C11S13470   4.194   2.723   7.768 -0.0307 -0.1752  0.3350
  126OSM   H11S13471   4.156   2.800   7.839 -1.8093 -0.3496 -0.3964
  126OSM   H11T13472   4.304   2.738   7.764 -0.1770  0.9428  0.5466
  126OSM   C12S13473   4.170   2.575   7.806  0.6428  0.2182 -0.5787
  126OSM   H12S13474   4.193   2.508   7.721 -0.4353 -0.8264 -0.0570
  126OSM   H12T13475   4.061   2.555   7.820  0.2586  2.1629 -0.6361
  126OSM   C13S13476   4.232   2.533   7.931 -1.1050 -0.2329 -0.3861
  126OSM   H13S13477   4.203   2.606   8.009 -1.6698  0.0103 -0.8246
  126OSM   H13T13478   4.342   2.520   7.923 -1.5960 -5.4528 -0.4584
  126OSM   C14S13479   4.190   2.391   7.976  0.4784 -0.2365  0.0880
  126OSM   H14S13480   4.262   2.382   8.061  1.2495 -0.6894 -0.6071
  126OSM   H14T13481   4.210   2.314   7.899 -0.6549  0.3454 -0.8028
  126OSM   C15S13482   4.046   2.365   8.039 -0.5551  0.0096  0.3309
  126OSM   H15S13483   4.050   2.275   8.104  2.5216  0.7569  1.2580
  126OSM   H15T13484   3.970   2.336   7.964  0.6665 -3.5817  0.3901
  126OSM   C16S13485   3.999   2.466   8.137  0.4543 -0.1153  0.0111
  126OSM   H16S13486   3.997   2.568   8.093 -1.7819 -0.6524 -1.1606
  126OSM   H16T13487   4.064   2.472   8.227  0.0978 -0.3034  0.2841
  126OSM   C17S13488   3.865   2.430   8.190  0.5363 -0.2557 -0.5006
  126OSM   H17S13489   3.874   2.340   8.256 -0.7362  2.4846  3.5885
  126OSM   H17T13490   3.804   2.383   8.110  0.5316  1.3711 -1.4544
  126OSM   C18S13491   3.784   2.538   8.263  0.0852  0.5348  0.0777
  126OSM   H18S13492   3.687   2.507   8.308 -0.0102  1.3381  0.4361
  126OSM   H18T13493   3.748   2.617   8.195 -0.2387  0.1259 -0.2230
  126OSM   H18U13494   3.842   2.584   8.347  1.3894 -1.0349  0.0825
  126OSM    C1F13495   3.804   3.241   6.995  0.7315  0.1380  0.3626
  126OSM     OF13496   3.707   3.216   6.923  0.0398 -0.1507  0.1222
  126OSM    C2F13497   3.791   3.359   7.093 -0.6333  0.7065 -0.2149
  126OSM    H2F13498   3.832   3.448   7.041  1.7212 -1.1963 -1.7389
  126OSM    H2G13499   3.843   3.343   7.190 -0.5840 -1.5929 -0.5889
  126OSM    C3F13500   3.639   3.384   7.128  0.3387  0.4021  0.3514
  126OSM    H3F13501   3.604   3.283   7.158 -3.4444  0.6059 -2.9241
  126OSM    H3G13502   3.580   3.418   7.041 -1.4930 -0.0523  1.3878
  126OSM    C4F13503   3.616   3.475   7.244 -0.5339 -0.0441  0.3473
  126OSM    H4F13504   3.653   3.578   7.228  2.5333 -0.9968  0.9781
  126OSM    H4G13505   3.676   3.446   7.333 -0.2565  0.3214  0.2779
  126OSM    C5F13506   3.472   3.472   7.296  0.3318 -0.1731 -0.4431
  126OSM    H5F13507   3.443   3.369   7.325  0.3394 -0.3401 -1.0253
  126OSM    H5G13508   3.407   3.492   7.208  1.2564  0.1073 -1.0687
  126OSM    C6F13509   3.450   3.572   7.413 -0.2920 -0.0775 -0.1284
  126OSM    H6F13510   3.427   3.674   7.375  0.4528  0.0786 -0.1491
  126OSM    H6G13511   3.542   3.587   7.472 -0.1469  0.7866 -0.5634
  126OSM    C7F13512   3.335   3.525   7.500 -0.2187 -0.1603  0.4411
  126OSM    H7F13513   3.339   3.417   7.523 -0.1322 -0.5349 -1.2480
  126OSM    H7G13514   3.237   3.540   7.449  0.5975 -0.1557 -1.1507
  126OSM    C8F13515   3.329   3.621   7.622  0.0674 -0.4529  0.0268
  126OSM    H8F13516   3.229   3.602   7.668 -1.0163 -1.2559 -2.5502
  126OSM    H8G13517   3.327   3.721   7.574  1.3972 -0.3373  0.2144
  126OSM    C9F13518   3.441   3.615   7.714 -0.4648 -0.2152  0.2249
  126OSM    H9F13519   3.533   3.666   7.681 -0.3732  1.0693  2.3166
  126OSM   C10F13520   3.451   3.553   7.831  0.0996 -0.4734  0.0908
  126OSM   H10F13521   3.546   3.536   7.884 -0.2023  0.8645  1.0845
  126OSM   C11F13522   3.347   3.458   7.891  0.4209  0.6575  0.4781
  126OSM   H11F13523   3.393   3.359   7.913  0.7647  0.9319  1.0044
  126OSM   H11G13524   3.259   3.435   7.827  0.2253  1.4711  0.4480
  126OSM   C12F13525   3.273   3.522   8.011  0.3371  0.1605 -0.2826
  126OSM   H12F13526   3.164   3.533   7.991  0.6026  0.1205 -1.7981
  126OSM   H12G13527   3.309   3.624   8.035 -0.1175  0.5298 -1.1411
  126OSM   C13F13528   3.275   3.428   8.131  0.4358  0.1426  0.5511
  126OSM   H13F13529   3.381   3.420   8.162  0.9717  1.1327 -0.9734
  126OSM   H13G13530   3.234   3.327   8.108 -1.4129  0.6141  1.6276
  126OSM   C14F13531   3.202   3.481   8.259 -0.5069  0.5232  1.0764
  126OSM   H14F13532   3.187   3.396   8.328  1.3009  0.0170  0.8713
  126OSM   H14G13533   3.099   3.504   8.224 -0.5829 -2.4933 -0.8694
  126OSM   C15F13534   3.253   3.612   8.315 -0.7757  0.3677  0.8284
  126OSM   H15F13535   3.242   3.701   8.250 -1.2221  0.3078  0.8192
  126OSM   H15G13536   3.362   3.594   8.326 -0.8952 -3.7036 -3.1462
  126OSM   C16F13537   3.187   3.643   8.446  0.3921 -0.4373  0.1122
  126OSM   H16F13538   3.207   3.560   8.517  0.9040 -0.8693 -0.5324
  126OSM   H16G13539   3.077   3.655   8.451  0.5375  0.9643  0.0548
  126OSM   C17F13540   3.226   3.776   8.506  0.2517  0.6300 -0.1503
  126OSM   H17F13541   3.192   3.861   8.443 -0.6166  0.4396  0.0618
  126OSM   H17G13542   3.336   3.775   8.520  0.0895  1.3108  1.3363
  126OSM   C18F13543   3.161   3.796   8.642  0.3762 -0.3429  0.2967
  126OSM   H18F13544   3.172   3.706   8.707 -0.2355 -0.1719  0.6397
  126OSM   H18G13545   3.060   3.842   8.633 -0.1748 -0.9083  2.9457
  126OSM   H18H13546   3.213   3.881   8.691 -1.2238 -0.5801  2.4853
  127OSM      N13547   5.999   1.211   6.056  0.0486  0.2909 -0.5004
  127OSM    C1513548   6.141   1.227   6.003 -0.1629  0.0978 -0.2582
  127OSM   H15A13549   6.176   1.328   6.013  2.6151 -1.0241  1.9074
  127OSM   H15B13550   6.152   1.201   5.899 -0.1052 -0.8674 -0.0132
  127OSM   H15C13551   6.210   1.159   6.052 -0.5891  0.1353  0.3983
  127OSM    C1413552   5.915   1.283   5.956 -0.0232  0.8252  0.1900
  127OSM   H14A13553   5.924   1.390   5.957 -3.3177  1.2127 -1.6426
  127OSM   H14B13554   5.813   1.248   5.967  1.1025 -2.6078  0.4185
  127OSM   H14C13555   5.949   1.254   5.857  1.1881 -0.8729  1.0800
  127OSM    C1313556   5.964   1.069   6.067  0.8446  0.9053 -0.0761
  127OSM   H13A13557   6.029   1.021   6.139  0.6254 -1.0052 -1.1305
  127OSM   H13B13558   5.973   1.022   5.970  0.9518  0.6159  0.0730
  127OSM   H13C13559   5.862   1.058   6.101  0.4766  2.2702 -0.6978
  127OSM    C1213560   5.986   1.273   6.194  0.2668  0.2334  0.8342
  127OSM   H12A13561   6.007   1.378   6.180 -0.6799  0.2839 -0.2938
  127OSM   H12B13562   6.073   1.234   6.244  1.3671 -0.7415 -1.7255
  127OSM    C1113563   5.854   1.257   6.275 -0.7323  0.5310  0.2666
  127OSM   H11A13564   5.868   1.299   6.377  0.9374  1.9539 -0.5294
  127OSM   H11B13565   5.844   1.147   6.286 -0.0889  0.2646 -1.6503
  127OSM      P13566   5.603   1.252   6.158 -0.2958  0.4835  0.1639
  127OSM    O1313567   5.527   1.358   6.084 -0.0801  0.0457  0.1328
  127OSM    O1413568   5.632   1.134   6.079 -0.2058  0.2797 -0.5104
  127OSM    O1113569   5.528   1.208   6.283  0.1938 -0.6058 -0.1273
  127OSM    O1213570   5.738   1.312   6.217 -0.4143 -0.2796 -0.3941
  127OSM    C1S13571   5.533   1.278   6.410 -0.1310  0.3279 -0.3299
  127OSM    H1S13572   5.520   1.388   6.398  2.5210  0.7691  0.4645
  127OSM    H1T13573   5.632   1.279   6.460 -0.5132  3.1893  0.4495
  127OSM     NF13574   5.449   1.312   6.634  1.1001  0.5889  0.5842
  127OSM    HNF13575   5.499   1.273   6.710  3.3230  0.0850 -1.0902
  127OSM    C2S13576   5.428   1.221   6.518 -0.2841 -0.2121  0.2665
  127OSM    H2S13577   5.328   1.242   6.475 -0.3908 -0.3047  0.4723
  127OSM    C3S13578   5.445   1.078   6.550  0.4160 -0.2185 -0.0225
  127OSM    H3S13579   5.544   1.059   6.596  0.0836 -2.3675 -0.1436
  127OSM     O313580   5.436   0.988   6.435 -0.3699  0.2453 -0.2634
  127OSM    HO313581   5.466   1.051   6.369 -2.7613  0.4397 -1.2208
  127OSM    C4S13582   5.352   1.029   6.657  0.0461 -0.5703 -0.0700
  127OSM    H4S13583   5.388   1.047   6.759  0.0124 -0.1516 -0.1312
  127OSM    C5S13584   5.231   0.982   6.645 -0.0886 -0.0872  0.6659
  127OSM    H5S13585   5.189   0.960   6.546  0.8422 -0.3335  0.3172
  127OSM    C6S13586   5.142   0.937   6.751  0.2323 -0.3466 -0.1628
  127OSM    H6S13587   5.077   0.850   6.726 -0.7517  0.7477 -1.4595
  127OSM    H6T13588   5.073   1.023   6.763  0.3548 -0.3968  0.9978
  127OSM    C7S13589   5.206   0.906   6.892  0.4069 -0.0637 -0.0517
  127OSM    H7S13590   5.253   0.999   6.930  0.5586 -0.8306  1.6376
  127OSM    H7T13591   5.277   0.821   6.884  0.5516 -0.0286  0.8378
  127OSM    C8S13592   5.091   0.861   6.983 -0.0585  0.6743 -0.4579
  127OSM    H8S13593   5.030   0.781   6.937  1.7833 -0.4643 -0.9729
  127OSM    H8T13594   5.019   0.944   7.002  0.3880  1.1064 -0.6520
  127OSM    C9S13595   5.140   0.812   7.119  1.1946 -0.4484  0.0997
  127OSM    H9S13596   5.218   0.879   7.161 -0.0448  0.9892  0.1703
  127OSM    H9T13597   5.201   0.720   7.111  2.1062  0.2575 -1.1844
  127OSM   C10S13598   5.012   0.786   7.205 -0.3775  0.2626 -0.1055
  127OSM   H10S13599   4.943   0.709   7.165  0.8666  0.6227 -3.1071
  127OSM   H10T13600   4.961   0.885   7.206  1.9298  1.4892  3.0694
  127OSM   C11S13601   5.065   0.754   7.353 -0.5932  0.3317  0.6321
  127OSM   H11S13602   5.136   0.838   7.374 -1.2150  0.5851  1.8093
  127OSM   H11T13603   5.131   0.665   7.345  1.4970  1.9894 -1.2310
  127OSM   C12S13604   4.961   0.744   7.465  0.0638  0.3724 -0.0200
  127OSM   H12S13605   4.897   0.655   7.443  1.1360 -0.3774 -0.1498
  127OSM   H12T13606   4.897   0.834   7.456  0.7026  0.8746  0.5138
  127OSM   C13S13607   5.019   0.728   7.607  0.1251 -0.2224 -0.0954
  127OSM   H13S13608   5.083   0.815   7.635  0.5846 -1.2509  2.1937
  127OSM   H13T13609   5.082   0.637   7.614  1.7240  1.0371  3.2011
  127OSM   C14S13610   4.903   0.726   7.706 -0.2669 -0.2083 -0.5484
  127OSM   H14S13611   4.833   0.643   7.682  0.8757 -0.7934 -1.9341
  127OSM   H14T13612   4.862   0.828   7.717  1.5272  1.0617 -4.6142
  127OSM   C15S13613   4.970   0.693   7.840  0.0323 -0.4937  0.9707
  127OSM   H15S13614   5.033   0.776   7.879  0.2750 -0.9435  1.5337
  127OSM   H15T13615   5.040   0.609   7.825 -2.1359 -2.4372  1.4178
  127OSM   C16S13616   4.868   0.643   7.945 -0.3570  0.5295 -0.1461
  127OSM   H16S13617   4.831   0.545   7.910  0.3223 -1.3978  4.3042
  127OSM   H16T13618   4.775   0.703   7.951 -0.4582  0.2298  1.2561
  127OSM   C17S13619   4.927   0.642   8.085  0.3688  0.1723  0.1634
  127OSM   H17S13620   4.964   0.745   8.104 -1.5180  0.7961  0.4841
  127OSM   H17T13621   5.014   0.574   8.101  0.9695  1.1331  1.0511
  127OSM   C18S13622   4.818   0.607   8.189 -0.4871 -0.3341  0.4499
  127OSM   H18S13623   4.864   0.611   8.290 -0.4481  1.0107  0.3894
  127OSM   H18T13624   4.782   0.502   8.179  0.7415 -0.5811 -1.5963
  127OSM   H18U13625   4.741   0.687   8.185  0.2119  0.2820 -1.1805
  127OSM    C1F13626   5.421   1.440   6.628  0.3334  0.5775 -0.2709
  127OSM     OF13627   5.340   1.483   6.548 -0.1170 -0.0839  0.0599
  127OSM    C2F13628   5.487   1.520   6.736 -0.3132  0.0658  0.5528
  127OSM    H2F13629   5.595   1.530   6.715 -0.6148 -1.5295 -2.0020
  127OSM    H2G13630   5.481   1.461   6.830  0.5568  0.3559  0.7945
  127OSM    C3F13631   5.418   1.655   6.768  0.2044 -0.5501 -0.6181
  127OSM    H3F13632   5.310   1.645   6.793 -0.4006  1.7625 -2.1328
  127OSM    H3G13633   5.438   1.715   6.676 -1.7961  0.4647 -0.4194
  127OSM    C4F13634   5.485   1.735   6.886  0.4344 -0.3698 -0.0463
  127OSM    H4F13635   5.452   1.841   6.895 -0.5745 -0.6512 -0.3696
  127OSM    H4G13636   5.595   1.738   6.869  0.4501 -1.0044 -0.0647
  127OSM    C5F13637   5.454   1.679   7.025  0.1133  0.2651  0.2583
  127OSM    H5F13638   5.509   1.583   7.029 -3.4874 -1.8139  1.7435
  127OSM    H5G13639   5.348   1.652   7.044 -0.0591  1.0371  0.4112
  127OSM    C6F13640   5.502   1.757   7.141 -0.0120 -0.4287  0.4121
  127OSM    H6F13641   5.450   1.855   7.153  0.8614 -0.0773  1.3484
  127OSM    H6G13642   5.612   1.768   7.133 -0.0486  0.4462  1.0695
  127OSM    C7F13643   5.479   1.680   7.276 -0.1324 -0.1163  0.3379
  127OSM    H7F13644   5.540   1.589   7.259  2.0484  0.9281  2.2942
  127OSM    H7G13645   5.373   1.656   7.300 -0.5834 -1.1848 -2.5470
  127OSM    C8F13646   5.547   1.763   7.395  0.2714  0.7793 -0.6493
  127OSM    H8F13647   5.648   1.778   7.352  0.5953 -0.9187 -0.5304
  127OSM    H8G13648   5.561   1.710   7.491 -3.8897 -0.1427 -0.4286
  127OSM    C9F13649   5.471   1.891   7.419  0.1041  0.4364 -0.3555
  127OSM    H9F13650   5.461   1.959   7.334  1.7611 -0.6450 -1.4422
  127OSM   C10F13651   5.414   1.920   7.542  0.7616  0.1296 -0.3580
  127OSM   H10F13652   5.361   2.016   7.548 -0.2649 -0.4490 -0.1283
  127OSM   C11F13653   5.418   1.843   7.667  0.0154 -0.3252 -0.1285
  127OSM   H11F13654   5.437   1.733   7.668 -2.2966 -0.7390  0.5972
  127OSM   H11G13655   5.324   1.863   7.723 -0.1839 -0.0798 -0.5575
  127OSM   C12F13656   5.538   1.881   7.752  0.3110  0.2049  0.0443
  127OSM   H12F13657   5.623   1.890   7.682 -0.9629 -2.2710 -1.8967
  127OSM   H12G13658   5.556   1.797   7.824  2.4750  0.0936 -0.6150
  127OSM   C13F13659   5.528   2.027   7.820  0.3025 -0.2382 -0.0230
  127OSM   H13F13660   5.499   2.097   7.739  1.9958  2.8423  1.8946
  127OSM   H13G13661   5.623   2.064   7.865  0.5079  0.2856 -0.8733
  127OSM   C14F13662   5.414   2.040   7.925  0.0674  0.0889 -0.1861
  127OSM   H14F13663   5.347   1.953   7.909 -2.9565  2.3986 -0.6120
  127OSM   H14G13664   5.357   2.135   7.913  1.0516  0.6039 -0.8360
  127OSM   C15F13665   5.474   2.028   8.073 -0.5096  0.4773  0.1865
  127OSM   H15F13666   5.383   2.032   8.138  0.4744 -1.0259  1.7114
  127OSM   H15G13667   5.530   2.120   8.101 -1.3047  1.6231 -1.9427
  127OSM   C16F13668   5.556   1.906   8.109  0.4438  0.2157 -0.3448
  127OSM   H16F13669   5.663   1.905   8.082  1.0334  1.1609  1.8289
  127OSM   H16G13670   5.502   1.826   8.054  0.5430  0.7927 -1.2850
  127OSM   C17F13671   5.539   1.882   8.259 -0.2248 -0.0602  0.2763
  127OSM   H17F13672   5.558   1.775   8.283 -1.4628 -0.3098  0.1446
  127OSM   H17G13673   5.432   1.895   8.286  0.1718  2.2804  0.8270
  127OSM   C18F13674   5.633   1.956   8.351 -0.3877 -0.6314  0.2097
  127OSM   H18F13675   5.623   2.067   8.346  1.4987 -0.4979 -1.2838
  127OSM   H18G13676   5.740   1.938   8.326  0.1633 -0.2450  2.1860
  127OSM   H18H13677   5.613   1.919   8.454 -0.4310  0.0998  0.4693
  128OSM      N13678   1.117   5.054   6.005  0.6404  0.4894  0.2953
  128OSM    C1513679   1.123   4.912   5.974 -0.7542 -0.0970 -0.1917
  128OSM   H15A13680   1.134   4.852   6.063  1.7225  0.6545  0.0499
  128OSM   H15B13681   1.203   4.894   5.904 -1.4171  3.5061 -1.9932
  128OSM   H15C13682   1.027   4.871   5.947 -0.8903 -0.8881  1.4355
  128OSM    C1413683   1.237   5.082   6.085  0.0610  0.4539 -0.1550
  128OSM   H14A13684   1.326   5.079   6.024  1.4830  0.2502  1.8745
  128OSM   H14B13685   1.242   5.027   6.178  1.9182  2.5189  1.0162
  128OSM   H14C13686   1.240   5.185   6.115  0.1463  0.8654 -1.5350
  128OSM    C1313687   1.110   5.129   5.871  0.8518 -0.6710  0.6567
  128OSM   H13A13688   1.019   5.112   5.815  0.7380  1.3998  0.1572
  128OSM   H13B13689   1.186   5.103   5.798  1.7686 -3.7768  2.6218
  128OSM   H13C13690   1.121   5.236   5.881 -0.5805 -0.4645  0.1621
  128OSM    C1213691   0.989   5.092   6.080 -0.3028  0.3089 -0.0058
  128OSM   H12A13692   1.015   5.192   6.113  0.3945  0.1002  0.0931
  128OSM   H12B13693   0.988   5.033   6.171  0.6061  0.9748  0.4501
  128OSM    C1113694   0.852   5.075   6.010  0.0778  0.5866  0.0427
  128OSM   H11A13695   0.834   5.151   5.931 -2.7719  0.6212  0.6608
  128OSM   H11B13696   0.774   5.100   6.085  0.3338 -0.2111  0.5796
  128OSM      P13697   0.800   4.827   6.083  0.0919 -0.0207  0.2679
  128OSM    O1313698   0.759   4.708   6.013 -0.0837 -0.1340  0.2026
  128OSM    O1413699   0.903   4.818   6.187  0.0330  0.0977  0.0529
  128OSM    O1113700   0.677   4.894   6.163 -0.2384 -0.7304  0.3623
  128OSM    O1213701   0.840   4.939   5.969  0.0517  0.2606 -0.2553
  128OSM    C1S13702   0.621   4.823   6.272 -0.3964  0.3183 -0.0551
  128OSM    H1S13703   0.660   4.719   6.273 -0.6629  0.1820 -1.9896
  128OSM    H1T13704   0.510   4.824   6.262 -0.3766 -0.8651 -0.3988
  128OSM     NF13705   0.601   4.800   6.514 -0.4316 -0.4465 -0.1513
  128OSM    HNF13706   0.509   4.805   6.551 -0.1411  1.3022  0.3768
  128OSM    C2S13707   0.642   4.894   6.404 -0.0945  0.1344  0.0287
  128OSM    H2S13708   0.751   4.913   6.417 -0.5013  2.0181  0.8653
  128OSM    C3S13709   0.568   5.032   6.410 -0.2610 -0.2951 -0.5316
  128OSM    H3S13710   0.458   5.018   6.405 -0.1115 -1.3931 -0.7682
  128OSM     O313711   0.601   5.120   6.302  0.3461 -0.1173  0.1656
  128OSM    HO313712   0.649   5.064   6.241 -1.1148 -2.8856  1.4817
  128OSM    C4S13713   0.599   5.111   6.538  0.1377 -0.5891  0.3416
  128OSM    H4S13714   0.520   5.094   6.614  0.1266 -1.1313  0.2091
  128OSM    C5S13715   0.702   5.197   6.548  0.3881 -0.7830 -0.0744
  128OSM    H5S13716   0.780   5.203   6.471  0.1545 -1.8364 -0.4044
  128OSM    C6S13717   0.740   5.277   6.669  0.0994  0.0860  0.6345
  128OSM    H6S13718   0.726   5.380   6.630 -1.1512 -0.3389 -0.0534
  128OSM    H6T13719   0.846   5.249   6.691  0.5076 -0.9172 -2.3525
  128OSM    C7S13720   0.648   5.252   6.792 -0.6718 -0.3585 -0.0405
  128OSM    H7S13721   0.667   5.148   6.824  1.0988  0.2043  0.7938
  128OSM    H7T13722   0.544   5.267   6.756 -0.3465 -0.2268 -0.9409
  128OSM    C8S13723   0.691   5.327   6.917 -0.1644  0.3181  0.1909
  128OSM    H8S13724   0.691   5.437   6.898 -2.0609  0.5768  1.4912
  128OSM    H8T13725   0.792   5.293   6.946  0.2136  1.9968  0.9518
  128OSM    C9S13726   0.603   5.293   7.039  0.2929  0.4640 -0.8684
  128OSM    H9S13727   0.571   5.188   7.028  0.0268  0.4088  0.4579
  128OSM    H9T13728   0.509   5.351   7.028 -0.5654 -0.6085  0.7714
  128OSM   C10S13729   0.659   5.313   7.181 -0.5770  0.5075 -0.2371
  128OSM   H10S13730   0.705   5.414   7.189 -1.4115  1.1952 -3.3609
  128OSM   H10T13731   0.749   5.250   7.198 -0.1913  1.0913 -0.1189
  128OSM   C11S13732   0.554   5.287   7.291  0.1801  0.2668  0.0038
  128OSM   H11S13733   0.543   5.177   7.298  0.0251  0.1827 -1.3799
  128OSM   H11T13734   0.455   5.329   7.262  0.5198  2.7799  2.2828
  128OSM   C12S13735   0.581   5.352   7.423  0.0677  0.0571 -0.5189
  128OSM   H12S13736   0.596   5.462   7.430  1.8104 -0.2813  1.5412
  128OSM   H12T13737   0.676   5.305   7.455 -0.8710 -1.0131  0.7599
  128OSM   C13S13738   0.473   5.335   7.528 -0.0975  0.2540  0.4983
  128OSM   H13S13739   0.462   5.226   7.544 -0.9803  0.2370 -0.1387
  128OSM   H13T13740   0.375   5.367   7.486  0.2874 -0.4998 -1.0281
  128OSM   C14S13741   0.524   5.413   7.656 -0.1120 -0.4293  0.2613
  128OSM   H14S13742   0.531   5.524   7.649 -0.9529 -0.1262  3.3589
  128OSM   H14T13743   0.623   5.371   7.684  0.1904  1.1188  1.6746
  128OSM   C15S13744   0.437   5.376   7.783 -0.2127  0.6065  0.0756
  128OSM   H15S13745   0.455   5.268   7.803  1.7946  0.2892 -3.1027
  128OSM   H15T13746   0.333   5.395   7.748  0.2128 -0.4559 -1.8039
  128OSM   C16S13747   0.464   5.465   7.909  0.4070  0.1482  1.0322
  128OSM   H16S13748   0.456   5.573   7.883  0.4770 -0.0552  0.1489
  128OSM   H16T13749   0.575   5.463   7.922  0.1901  0.0276  3.1108
  128OSM   C17S13750   0.386   5.434   8.035  0.4390  0.0007 -0.1536
  128OSM   H17S13751   0.400   5.325   8.053 -2.0292 -0.1972  0.7068
  128OSM   H17T13752   0.281   5.450   8.005  0.2545 -0.6768  0.1318
  128OSM   C18S13753   0.412   5.522   8.159 -0.1438 -0.8276 -0.1354
  128OSM   H18S13754   0.334   5.503   8.236  2.2893  1.1527  2.9592
  128OSM   H18T13755   0.430   5.631   8.145 -0.5095 -0.8590 -0.8666
  128OSM   H18U13756   0.500   5.481   8.214  0.4140  0.3618 -0.1184
  128OSM    C1F13757   0.677   4.697   6.553  0.0063 -0.8400 -0.3786
  128OSM     OF13758   0.789   4.671   6.513 -0.4118  0.1293  0.2569
  128OSM    C2F13759   0.611   4.615   6.669 -0.0651  0.1420 -0.6311
  128OSM    H2F13760   0.505   4.595   6.641 -0.0173  0.1349 -0.8082
  128OSM    H2G13761   0.625   4.676   6.761  1.7232 -2.3183  0.7861
  128OSM    C3F13762   0.691   4.498   6.704 -0.6595 -0.5445 -0.0492
  128OSM    H3F13763   0.799   4.524   6.702 -0.9199  0.5862  0.1785
  128OSM    H3G13764   0.658   4.417   6.635 -1.8931  0.9832 -1.2974
  128OSM    C4F13765   0.663   4.444   6.844 -0.6052 -0.0544 -0.8227
  128OSM    H4F13766   0.698   4.508   6.927 -2.0326 -0.3717  0.0431
  128OSM    H4G13767   0.729   4.356   6.862 -0.5208  0.2512  0.3667
  128OSM    C5F13768   0.518   4.393   6.878  0.1153 -0.0733 -0.5922
  128OSM    H5F13769   0.493   4.301   6.819 -0.3030 -0.7866  0.6911
  128OSM    H5G13770   0.438   4.470   6.870 -1.7370 -1.8994 -0.1134
  128OSM    C6F13771   0.512   4.335   7.023 -0.0740  0.5142 -0.0403
  128OSM    H6F13772   0.587   4.254   7.035 -0.1996  0.6649  1.9482
  128OSM    H6G13773   0.416   4.280   7.023 -0.3068  0.9149  1.4116
  128OSM    C7F13774   0.538   4.438   7.133 -0.0061  0.1972 -0.6431
  128OSM    H7F13775   0.487   4.532   7.103  0.9491  0.9020 -0.0486
  128OSM    H7G13776   0.647   4.451   7.142  0.1204 -0.9435 -0.3526
  128OSM    C8F13777   0.492   4.396   7.277 -0.1829 -0.2763  0.4257
  128OSM    H8F13778   0.406   4.325   7.278 -0.5482  0.1674  0.3871
  128OSM    H8G13779   0.447   4.479   7.336  0.3888  1.1656 -1.1462
  128OSM    C9F13780   0.601   4.333   7.359 -0.2505  0.0314  0.7089
  128OSM    H9F13781   0.664   4.269   7.295 -1.1081  0.8022 -0.9209
  128OSM   C10F13782   0.651   4.356   7.482  0.3043  0.2419  0.3737
  128OSM   H10F13783   0.733   4.291   7.516  0.0704 -0.4125 -0.2758
  128OSM   C11F13784   0.606   4.458   7.581  0.0513  0.1274 -0.5780
  128OSM   H11F13785   0.531   4.534   7.551 -0.0153  0.1295 -0.4088
  128OSM   H11G13786   0.697   4.512   7.613  0.7154 -0.8042 -0.8783
  128OSM   C12F13787   0.567   4.376   7.709  1.0871  0.6824 -0.7258
  128OSM   H12F13788   0.640   4.294   7.728 -1.1549 -0.8115  1.8650
  128OSM   H12G13789   0.464   4.334   7.698  0.6671  1.0968  1.3848
  128OSM   C13F13790   0.548   4.462   7.837 -0.0187 -0.1600  0.2536
  128OSM   H13F13791   0.439   4.474   7.854 -0.3962 -1.7887 -0.8838
  128OSM   H13G13792   0.595   4.562   7.829 -3.0442  1.6347  3.3116
  128OSM   C14F13793   0.599   4.394   7.964 -0.5582 -0.1999 -0.0056
  128OSM   H14F13794   0.710   4.399   7.967 -0.3826 -1.7131 -2.5291
  128OSM   H14G13795   0.562   4.289   7.965 -0.9396 -0.0672  1.1318
  128OSM   C15F13796   0.555   4.476   8.081 -0.2742 -0.6845  0.0144
  128OSM   H15F13797   0.445   4.486   8.089 -0.3438 -1.3638 -0.1037
  128OSM   H15G13798   0.592   4.577   8.054 -0.4091 -0.6823 -0.1623
  128OSM   C16F13799   0.618   4.412   8.207 -0.0159  0.0493 -0.0517
  128OSM   H16F13800   0.725   4.439   8.221 -0.4483  2.4493 -1.0301
  128OSM   H16G13801   0.614   4.302   8.200  1.4581 -0.0344  0.2648
  128OSM   C17F13802   0.537   4.475   8.334 -0.1798 -0.4531  0.5850
  128OSM   H17F13803   0.441   4.418   8.340 -0.2997 -0.2627  0.4754
  128OSM   H17G13804   0.520   4.581   8.305 -0.1244 -1.2008 -2.2543
  128OSM   C18F13805   0.603   4.460   8.473  0.4666  0.0544 -0.4919
  128OSM   H18F13806   0.526   4.482   8.550  2.3966  1.4329  1.1031
  128OSM   H18G13807   0.699   4.515   8.489  0.4295 -0.1301  0.3776
  128OSM   H18H13808   0.628   4.353   8.494 -1.0718 -0.4450 -1.1278
  129OSM      N13809   5.272   1.186   5.914  0.2252 -0.0061 -0.0578
  129OSM    C1513810   5.139   1.148   5.855  0.3319 -0.6359  0.0048
  129OSM   H15A13811   5.151   1.061   5.791  0.0687  0.0031 -0.9364
  129OSM   H15B13812   5.112   1.228   5.787  0.5573 -2.0522 -1.7947
  129OSM   H15C13813   5.064   1.127   5.929 -0.4056  1.1351 -0.2153
  129OSM    C1413814   5.351   1.258   5.806  0.1083  0.0307 -0.3006
  129OSM   H14A13815   5.349   1.205   5.712  0.3811 -0.2243 -0.1609
  129OSM   H14B13816   5.452   1.277   5.837  0.1715  0.2678 -0.6465
  129OSM   H14C13817   5.305   1.354   5.786  0.7963  0.3319 -0.4540
  129OSM    C1313818   5.252   1.288   6.028 -0.5199  0.8579 -0.0333
  129OSM   H13A13819   5.217   1.231   6.113 -1.7237  3.9182  1.5980
  129OSM   H13B13820   5.185   1.368   6.000 -1.0358  0.5043  0.1728
  129OSM   H13C13821   5.349   1.330   6.048 -1.0310  1.5714  0.9774
  129OSM    C1213822   5.343   1.062   5.969 -0.0659 -0.3816 -0.4817
  129OSM   H12A13823   5.446   1.090   5.976 -0.2655  2.1671 -5.4906
  129OSM   H12B13824   5.339   0.994   5.885  1.3065 -0.3884 -0.5477
  129OSM    C1113825   5.290   0.981   6.094  0.7365 -0.7440  1.3600
  129OSM   H11A13826   5.285   1.038   6.189 -2.6491 -0.9675  1.3831
  129OSM   H11B13827   5.365   0.899   6.088  0.6461 -0.8248  1.3334
  129OSM      P13828   5.043   0.888   6.149 -0.3062 -0.0368  0.4828
  129OSM    O1313829   4.941   0.822   6.065 -0.6807  0.7088 -0.2284
  129OSM    O1413830   5.078   0.817   6.270  0.3635  0.1330 -0.4483
  129OSM    O1113831   4.997   1.036   6.176  0.4503  0.7984 -0.0996
  129OSM    O1213832   5.174   0.905   6.060  0.2267  0.4413  0.4322
  129OSM    C1S13833   4.891   1.069   6.266  0.7191  0.8748 -0.1866
  129OSM    H1S13834   4.816   0.987   6.269 -0.8034  2.3276  2.3239
  129OSM    H1T13835   4.824   1.146   6.222  0.3222  0.4045 -0.4193
  129OSM     NF13836   4.822   1.082   6.505  0.2428 -0.1437  0.7946
  129OSM    HNF13837   4.787   1.163   6.550 -0.1356 -0.5397  1.2263
  129OSM    C2S13838   4.932   1.102   6.416  0.3927 -0.6109  0.2211
  129OSM    H2S13839   5.010   1.027   6.438  2.7447  1.7524  0.2207
  129OSM    C3S13840   4.988   1.250   6.421 -0.1854  0.4397 -0.2146
  129OSM    H3S13841   4.910   1.321   6.385  0.2021  0.7356 -0.4794
  129OSM     O313842   5.099   1.273   6.329 -0.0820 -0.1363  1.0122
  129OSM    HO313843   5.100   1.195   6.274  2.8876  0.2000  0.4988
  129OSM    C4S13844   5.031   1.271   6.566  0.7130 -0.6621  0.4654
  129OSM    H4S13845   5.110   1.203   6.602  0.4321 -0.0007  2.4001
  129OSM    C5S13846   5.006   1.387   6.630  0.3649 -0.4175  0.8178
  129OSM    H5S13847   4.959   1.468   6.572 -2.4796 -3.4814 -1.3211
  129OSM    C6S13848   5.060   1.430   6.768  0.1526 -0.4508 -0.1389
  129OSM    H6S13849   4.990   1.491   6.829  0.1357 -0.5141 -0.0968
  129OSM    H6T13850   5.147   1.501   6.764 -0.5621  0.4362 -0.1060
  129OSM    C7S13851   5.099   1.312   6.860  0.2901 -0.6950  0.4206
  129OSM    H7S13852   5.194   1.271   6.821  0.3760  2.4233 -2.9936
  129OSM    H7T13853   5.030   1.225   6.857  0.5937 -0.8931 -1.7840
  129OSM    C8S13854   5.123   1.354   7.004  0.2665 -0.2257  0.2054
  129OSM    H8S13855   5.055   1.428   7.051  1.6162  0.6049  0.8961
  129OSM    H8T13856   5.224   1.402   7.000  0.7463 -1.3647 -1.7033
  129OSM    C9S13857   5.134   1.240   7.107  0.3879  1.0172 -0.9807
  129OSM    H9S13858   5.218   1.171   7.084 -1.8930 -2.4778  0.6584
  129OSM    H9T13859   5.042   1.177   7.115  0.5430  0.8817 -0.1401
  129OSM   C10S13860   5.151   1.300   7.247  0.4530 -0.7658  0.0635
  129OSM   H10S13861   5.070   1.372   7.272  0.7814  1.2249 -4.1840
  129OSM   H10T13862   5.234   1.373   7.249  1.2914 -1.6019 -1.9008
  129OSM   C11S13863   5.162   1.185   7.350 -0.3063 -0.0262  0.3692
  129OSM   H11S13864   5.238   1.225   7.420 -2.2994  0.8390  2.0934
  129OSM   H11T13865   5.206   1.103   7.289  0.3530  0.0847  0.6864
  129OSM   C12S13866   5.036   1.150   7.420  0.5790 -0.1537  0.2673
  129OSM   H12S13867   4.979   1.092   7.344  0.1813  1.7510 -0.9378
  129OSM   H12T13868   4.985   1.246   7.441  2.1353  0.7697 -0.0858
  129OSM   C13S13869   5.059   1.090   7.560 -0.2090  0.8772  0.2495
  129OSM   H13S13870   5.143   1.016   7.559 -0.7811  0.2060 -2.3552
  129OSM   H13T13871   4.968   1.040   7.597  0.4978 -1.6147 -1.2587
  129OSM   C14S13872   5.091   1.202   7.664 -0.1063  0.3616 -0.0968
  129OSM   H14S13873   5.005   1.272   7.667 -0.6243 -0.2902  0.3117
  129OSM   H14T13874   5.176   1.263   7.628 -2.9445  2.9572 -2.6858
  129OSM   C15S13875   5.098   1.142   7.810 -0.0008 -0.2652  0.1967
  129OSM   H15S13876   5.206   1.116   7.820  0.0898 -0.5686 -1.4198
  129OSM   H15T13877   5.028   1.059   7.833  0.0791 -0.6847 -1.0326
  129OSM   C16S13878   5.066   1.248   7.912  0.3496 -0.2870 -0.3546
  129OSM   H16S13879   4.964   1.289   7.895  1.3723  1.8737 -1.4679
  129OSM   H16T13880   5.134   1.334   7.894  0.0246 -0.3451 -1.8679
  129OSM   C17S13881   5.093   1.216   8.058  0.9481 -0.2448  0.0407
  129OSM   H17S13882   5.198   1.182   8.051  0.5795 -1.5468  0.6861
  129OSM   H17T13883   5.020   1.134   8.072  0.6680 -0.6041 -3.1007
  129OSM   C18S13884   5.083   1.328   8.162 -0.5831 -0.2893 -0.7207
  129OSM   H18S13885   5.162   1.403   8.138 -1.0256  0.3000 -0.3443
  129OSM   H18T13886   5.109   1.293   8.265 -1.1269  0.5287 -0.2965
  129OSM   H18U13887   4.981   1.370   8.170 -0.7000 -0.8175  0.6754
  129OSM    C1F13888   4.793   0.958   6.537 -0.5100  0.2470 -0.1849
  129OSM     OF13889   4.844   0.860   6.484  0.1741  0.1418  0.0403
  129OSM    C2F13890   4.694   0.933   6.645 -0.1923 -0.3201  0.5416
  129OSM    H2F13891   4.697   0.824   6.665 -0.1788 -0.5714 -0.7784
  129OSM    H2G13892   4.590   0.952   6.611 -0.2028 -0.6888  0.3717
  129OSM    C3F13893   4.725   1.008   6.783 -0.4193 -0.0330  1.0982
  129OSM    H3F13894   4.680   1.108   6.770 -1.8544 -0.5210  2.1859
  129OSM    H3G13895   4.835   1.007   6.801 -0.5363  0.2263  1.8707
  129OSM    C4F13896   4.651   0.946   6.900 -0.4562 -0.3977 -0.1543
  129OSM    H4F13897   4.714   0.862   6.937 -2.1129 -1.7117 -0.2676
  129OSM    H4G13898   4.560   0.903   6.855 -1.1181  2.6350 -1.8878
  129OSM    C5F13899   4.628   1.033   7.028 -0.0019  0.8699  0.2545
  129OSM    H5F13900   4.580   0.969   7.105  0.2724 -2.1339 -1.9606
  129OSM    H5G13901   4.569   1.122   7.000 -0.9474 -0.2258 -1.2679
  129OSM    C6F13902   4.761   1.086   7.084  0.3310 -0.0774 -0.0494
  129OSM    H6F13903   4.822   1.127   7.002 -0.8053  1.6545 -0.0543
  129OSM    H6G13904   4.824   1.010   7.135  0.9938  1.2279  1.1406
  129OSM    C7F13905   4.734   1.207   7.173 -0.4020 -0.8978  0.2112
  129OSM    H7F13906   4.687   1.287   7.112  1.6341 -0.0061 -0.2713
  129OSM    H7G13907   4.834   1.250   7.197 -0.8259  0.5006 -0.4227
  129OSM    C8F13908   4.653   1.170   7.298  0.7984  0.4077  0.0305
  129OSM    H8F13909   4.701   1.082   7.345 -1.4853 -1.1563 -0.4852
  129OSM    H8G13910   4.561   1.125   7.255  1.7222 -1.4302 -0.0609
  129OSM    C9F13911   4.624   1.293   7.389 -0.3005  0.1941  0.3354
  129OSM    H9F13912   4.641   1.392   7.342  1.9779  0.9505  2.5934
  129OSM   C10F13913   4.613   1.290   7.519 -0.0966  0.0938 -0.2907
  129OSM   H10F13914   4.579   1.379   7.574 -0.0558 -0.0634 -0.0068
  129OSM   C11F13915   4.624   1.165   7.598  0.1935  0.1048  0.0871
  129OSM   H11F13916   4.708   1.095   7.581 -0.3150 -0.8403  1.3800
  129OSM   H11G13917   4.537   1.104   7.566 -0.0525 -0.1258  1.1858
  129OSM   C12F13918   4.619   1.187   7.748 -0.3760  0.3559  0.6407
  129OSM   H12F13919   4.525   1.244   7.766  0.3918  1.7839  0.2921
  129OSM   H12G13920   4.696   1.256   7.790  0.0252  1.2464 -1.4727
  129OSM   C13F13921   4.601   1.059   7.826  0.0610  0.5287 -0.3856
  129OSM   H13F13922   4.667   0.982   7.780  0.2631 -0.2945  1.2563
  129OSM   H13G13923   4.499   1.018   7.810  0.6166  0.0645 -3.1104
  129OSM   C14F13924   4.638   1.081   7.976  0.2077 -0.3413  0.2717
  129OSM   H14F13925   4.616   1.185   8.008  0.9395 -0.4235  1.0505
  129OSM   H14G13926   4.749   1.079   7.974  0.2294  0.9662 -0.7027
  129OSM   C15F13927   4.572   0.982   8.072 -0.1440 -0.0326  0.2134
  129OSM   H15F13928   4.569   0.882   8.025 -2.4924  0.6724 -1.2168
  129OSM   H15G13929   4.466   1.006   8.095  0.3552  1.5507  0.9399
  129OSM   C16F13930   4.639   0.966   8.207  0.1481  0.3569  0.3884
  129OSM   H16F13931   4.745   0.936   8.193  0.3850  0.5064  1.7072
  129OSM   H16G13932   4.584   0.887   8.262  0.2233  0.7307  1.0087
  129OSM   C17F13933   4.627   1.095   8.293 -0.1880 -1.2206 -0.0999
  129OSM   H17F13934   4.522   1.129   8.307  0.5309  2.0699 -2.0511
  129OSM   H17G13935   4.668   1.180   8.234 -1.4238  0.7059  1.7310
  129OSM   C18F13936   4.713   1.083   8.414 -0.0583  0.6267 -0.3282
  129OSM   H18F13937   4.684   1.136   8.508  0.6484  0.6007 -0.0921
  129OSM   H18G13938   4.814   1.122   8.393  0.2731 -0.0002  0.0606
  129OSM   H18H13939   4.706   0.978   8.453 -0.2232  0.1670 -1.5923
  130OSM      N13940   0.669   3.418   6.061 -0.0028 -0.3154 -1.0331
  130OSM    C1513941   0.637   3.285   5.997  0.1052 -0.1660  0.2322
  130OSM   H15A13942   0.599   3.220   6.074 -0.4713 -0.9920 -0.7319
  130OSM   H15B13943   0.729   3.252   5.951  0.5643 -0.5125  1.3901
  130OSM   H15C13944   0.560   3.312   5.925 -0.0531  1.5064  1.0127
  130OSM    C1413945   0.725   3.509   5.958  0.7479  0.2381  0.3461
  130OSM   H14A13946   0.656   3.517   5.876 -0.5494 -1.2347  1.2575
  130OSM   H14B13947   0.820   3.477   5.918  0.8156 -0.9134  1.3834
  130OSM   H14C13948   0.740   3.608   5.998  2.9132 -0.2139  0.7596
  130OSM    C1313949   0.540   3.478   6.114 -0.2161  0.2905 -0.0195
  130OSM   H13A13950   0.557   3.579   6.150 -0.7961  0.5601 -0.5000
  130OSM   H13B13951   0.495   3.420   6.193 -0.0394  2.3269  1.6340
  130OSM   H13C13952   0.474   3.481   6.029 -0.8087  1.0436  0.4623
  130OSM    C1213953   0.771   3.400   6.172  0.3906  0.7916  0.0733
  130OSM   H12A13954   0.861   3.361   6.128 -2.4041 -0.9423 -4.5555
  130OSM   H12B13955   0.738   3.326   6.243  1.1249  0.8800  0.5070
  130OSM    C1113956   0.809   3.534   6.243  0.3000  0.4488 -0.5757
  130OSM   H11A13957   0.869   3.497   6.329 -1.6654 -0.2686  0.5139
  130OSM   H11B13958   0.721   3.579   6.294 -0.3537 -0.9041 -0.4954
  130OSM      P13959   1.037   3.610   6.142  0.2306  0.1725 -0.0491
  130OSM    O1313960   1.077   3.468   6.107 -0.4436  0.2723  0.3665
  130OSM    O1413961   1.082   3.711   6.043  0.1306 -0.2981  0.1032
  130OSM    O1113962   1.105   3.653   6.273  0.1092  0.9890 -0.2376
  130OSM    O1213963   0.879   3.627   6.165  0.2433 -0.9467  0.0797
  130OSM    C1S13964   1.065   3.777   6.341 -0.6916  0.4238  1.1154
  130OSM    H1S13965   0.988   3.832   6.283 -1.7968  0.4292  2.5560
  130OSM    H1T13966   1.157   3.836   6.360  0.6056 -1.5819  1.2672
  130OSM     NF13967   0.963   3.876   6.545 -0.9012 -0.3505 -0.0710
  130OSM    HNF13968   1.016   3.917   6.618 -0.5979  0.8273 -0.9354
  130OSM    C2S13969   1.007   3.745   6.483 -0.0608  0.0002 -0.2808
  130OSM    H2S13970   0.917   3.682   6.466  0.3814 -0.8637  0.5596
  130OSM    C3S13971   1.105   3.666   6.573  0.0387 -0.5914  0.1689
  130OSM    H3S13972   1.206   3.711   6.582  0.0488 -0.4799 -0.4597
  130OSM     O313973   1.122   3.538   6.512  0.2606  0.5063 -0.4556
  130OSM    HO313974   1.096   3.556   6.421  0.2546 -1.4389 -0.8498
  130OSM    C4S13975   1.056   3.650   6.716 -0.4471 -0.4799 -0.4052
  130OSM    H4S13976   0.989   3.565   6.735 -2.0429  0.5513 -1.2244
  130OSM    C5S13977   1.103   3.720   6.820  0.3752 -0.1896  0.2438
  130OSM    H5S13978   1.174   3.801   6.801 -1.9106  1.4238 -1.6415
  130OSM    C6S13979   1.056   3.700   6.965 -0.2036  0.6341  0.6215
  130OSM    H6S13980   1.027   3.593   6.976 -1.7182  0.9813  0.1483
  130OSM    H6T13981   0.965   3.761   6.984 -0.8025 -0.3967  1.1489
  130OSM    C7S13982   1.155   3.757   7.072  0.1086  0.1102 -1.0940
  130OSM    H7S13983   1.139   3.866   7.083 -2.2073 -0.1127 -1.9779
  130OSM    H7T13984   1.261   3.730   7.049  0.3921 -0.3894  0.7755
  130OSM    C8S13985   1.111   3.696   7.204  0.1723  0.2876 -0.5414
  130OSM    H8S13986   1.126   3.586   7.203  2.8902  0.6358 -2.9770
  130OSM    H8T13987   1.002   3.714   7.218  0.1903 -0.7378  1.1708
  130OSM    C9S13988   1.191   3.752   7.317 -0.0634  0.1657  0.1218
  130OSM    H9S13989   1.194   3.863   7.311  0.6594  0.1605  0.2837
  130OSM    H9T13990   1.297   3.719   7.320  0.2893  1.3594  2.1648
  130OSM   C10S13991   1.123   3.714   7.446  0.7288  0.1986  0.4347
  130OSM   H10S13992   1.124   3.603   7.438 -0.9997  0.0951  1.3748
  130OSM   H10T13993   1.017   3.746   7.455  0.6131 -0.3931  1.2350
  130OSM   C11S13994   1.188   3.778   7.567 -0.0775 -0.5149  0.5296
  130OSM   H11S13995   1.174   3.888   7.559  0.8005 -0.3987  0.5508
  130OSM   H11T13996   1.297   3.759   7.566 -0.0619 -0.3926 -0.4612
  130OSM   C12S13997   1.117   3.732   7.693  0.1578  0.1174  0.2382
  130OSM   H12S13998   1.120   3.621   7.689 -1.6717  0.0821 -1.4179
  130OSM   H12T13999   1.017   3.779   7.679 -0.2424  0.4735  3.8473
  130OSM   C13S14000   1.165   3.806   7.824  0.6791  0.7372  0.2109
  130OSM   H13S14001   1.140   3.914   7.824  0.3385  0.6731 -1.4227
  130OSM   H13T14002   1.276   3.805   7.821  0.6849  1.8862 -0.1153
  130OSM   C14S14003   1.113   3.724   7.946 -0.8544  0.2142  0.3117
  130OSM   H14S14004   1.136   3.616   7.935  2.9636  0.9847  0.1337
  130OSM   H14T14005   1.002   3.734   7.947 -0.9031 -0.3488  2.7122
  130OSM   C15S14006   1.164   3.784   8.077 -0.3783  0.3153  0.1303
  130OSM   H15S14007   1.153   3.894   8.072 -1.9626  0.1961  0.8358
  130OSM   H15T14008   1.265   3.750   8.108 -0.0364  0.2322 -1.0613
  130OSM   C16S14009   1.073   3.744   8.198 -0.4365 -0.3390  0.2596
  130OSM   H16S14010   1.051   3.635   8.201 -1.0510 -0.1852  3.4738
  130OSM   H16T14011   0.969   3.781   8.186  0.1078  0.6495 -1.4314
  130OSM   C17S14012   1.126   3.799   8.334  0.4473 -0.8280  0.4635
  130OSM   H17S14013   1.106   3.908   8.342 -0.6320 -1.0265  0.5044
  130OSM   H17T14014   1.234   3.788   8.356  0.7942  0.7178 -0.4197
  130OSM   C18S14015   1.068   3.726   8.458 -0.2513 -0.2237  0.3403
  130OSM   H18S14016   1.106   3.756   8.558 -1.6570 -0.9656  1.1190
  130OSM   H18T14017   1.075   3.617   8.442 -1.3443 -0.1633 -0.6308
  130OSM   H18U14018   0.961   3.757   8.457 -0.7327 -1.5784  3.7771
  130OSM    C1F14019   0.861   3.943   6.492  0.3310 -0.0317 -0.9149
  130OSM     OF14020   0.796   3.897   6.401 -0.2395 -0.2959  0.2386
  130OSM    C2F14021   0.826   4.070   6.548  0.6598 -0.7282 -0.4473
  130OSM    H2F14022   0.800   4.136   6.462 -1.4119 -1.2332 -0.2400
  130OSM    H2G14023   0.912   4.117   6.600  1.0016  1.8570 -3.1454
  130OSM    C3F14024   0.720   4.056   6.655  0.4780  0.4411 -0.1023
  130OSM    H3F14025   0.630   3.998   6.625  1.1366 -0.9999  0.7276
  130OSM    H3G14026   0.674   4.157   6.669 -0.5399 -0.1574  0.9118
  130OSM    C4F14027   0.767   3.995   6.791  0.0810  0.0317 -0.1784
  130OSM    H4F14028   0.860   4.040   6.832  1.0292  0.4619 -2.7183
  130OSM    H4G14029   0.805   3.894   6.762 -0.7969  0.1310 -1.7055
  130OSM    C5F14030   0.657   3.969   6.893 -0.2991 -0.6359  0.0288
  130OSM    H5F14031   0.594   3.888   6.849 -0.4096  0.2118 -1.3988
  130OSM    H5G14032   0.597   4.062   6.907  1.5730  1.3976 -4.3640
  130OSM    C6F14033   0.708   3.913   7.024 -0.2734 -0.1424  0.3047
  130OSM    H6F14034   0.798   3.969   7.057  1.2375 -1.2877 -1.7760
  130OSM    H6G14035   0.749   3.811   7.016 -2.7576 -1.2598  1.3090
  130OSM    C7F14036   0.619   3.924   7.145 -0.1707  0.1931 -0.3348
  130OSM    H7F14037   0.531   3.856   7.136 -0.0820  0.2710 -1.8613
  130OSM    H7G14038   0.580   4.028   7.160  1.6858  0.6477  1.4996
  130OSM    C8F14039   0.708   3.900   7.270  0.6856 -0.0519  0.2190
  130OSM    H8F14040   0.799   3.964   7.274  1.3542 -0.8536 -1.6771
  130OSM    H8G14041   0.758   3.801   7.260 -0.2147 -0.4003 -0.9070
  130OSM    C9F14042   0.618   3.899   7.393  0.2357 -0.0448  0.6469
  130OSM    H9F14043   0.514   3.891   7.360  0.8972 -1.7637 -1.0568
  130OSM   C10F14044   0.659   3.900   7.520  0.0447  0.3371 -0.0825
  130OSM   H10F14045   0.583   3.889   7.599  2.2395  0.0135  2.0541
  130OSM   C11F14046   0.805   3.891   7.562  0.2563 -0.2677 -0.4949
  130OSM   H11F14047   0.872   3.927   7.482  1.6889  1.8066  1.5783
  130OSM   H11G14048   0.845   3.790   7.584  1.2329  0.3126  0.4164
  130OSM   C12F14049   0.829   3.975   7.685  0.1732 -0.1878  0.1041
  130OSM   H12F14050   0.787   4.077   7.671 -0.3427 -0.5502 -0.9787
  130OSM   H12G14051   0.939   3.985   7.696  0.1395  0.8904 -0.5076
  130OSM   C13F14052   0.754   3.933   7.818  0.0260 -0.0617 -0.4470
  130OSM   H13F14053   0.767   3.823   7.823 -0.1855 -0.0461  0.3868
  130OSM   H13G14054   0.645   3.949   7.815  0.0375 -0.0706 -4.3445
  130OSM   C14F14055   0.818   3.989   7.944  0.0388  0.0221  0.0990
  130OSM   H14F14056   0.836   4.099   7.948 -0.8072  0.2168 -1.0966
  130OSM   H14G14057   0.917   3.941   7.957 -0.0437  0.3039  1.9516
  130OSM   C15F14058   0.738   3.965   8.067  0.3283  0.5694  0.3661
  130OSM   H15F14059   0.722   3.858   8.091 -0.1839  0.7756  0.9728
  130OSM   H15G14060   0.632   3.994   8.049  0.1599  1.2439  2.3116
  130OSM   C16F14061   0.797   4.042   8.183  0.8548 -0.3168 -0.2197
  130OSM   H16F14062   0.794   4.151   8.165 -2.4589  0.0845  2.3012
  130OSM   H16G14063   0.904   4.014   8.190  0.9801  0.1849 -0.1726
  130OSM   C17F14064   0.723   4.032   8.322  0.6807  0.2545 -0.0714
  130OSM   H17F14065   0.762   4.109   8.392  2.6593 -0.4723 -0.3332
  130OSM   H17G14066   0.754   3.936   8.370  1.7544  0.4880 -0.2716
  130OSM   C18F14067   0.572   4.031   8.316  0.6665  0.3757 -0.3635
  130OSM   H18F14068   0.532   4.015   8.419 -0.5653 -0.3300 -0.9373
  130OSM   H18G14069   0.535   3.943   8.260  0.8819 -0.1368  0.2847
  130OSM   H18H14070   0.531   4.123   8.269  1.0776  1.4524  1.3381
  131OSM      N14071   5.611   6.668   5.678  0.4107  0.3084  0.1364
  131OSM    C1514072   5.567   6.688   5.540 -0.3025 -0.2280 -0.6047
  131OSM   H15A14073   5.589   6.786   5.502  3.7343 -0.0691  1.8731
  131OSM   H15B14074   5.461   6.668   5.530 -0.6275  0.6437  1.0086
  131OSM   H15C14075   5.625   6.620   5.479 -0.9873 -1.6124  0.2330
  131OSM    C1414076   5.757   6.687   5.690  0.2503 -0.6520 -0.6226
  131OSM   H14A14077   5.788   6.784   5.655  0.5667 -0.1090  1.1080
  131OSM   H14B14078   5.813   6.608   5.642  0.8005  0.8152 -2.4267
  131OSM   H14C14079   5.785   6.702   5.794  0.0745 -0.8912 -0.5399
  131OSM    C1314080   5.531   6.764   5.757  0.2689 -0.3330 -0.2618
  131OSM   H13A14081   5.427   6.760   5.728  0.4382  0.1454 -0.9431
  131OSM   H13B14082   5.566   6.865   5.748  1.1581 -0.8416 -3.3568
  131OSM   H13C14083   5.537   6.719   5.855  0.9331 -1.2605 -0.7193
  131OSM    C1214084   5.581   6.524   5.708 -0.0163 -0.3238 -0.0521
  131OSM   H12A14085   5.624   6.464   5.629  2.2549  2.1524 -0.8066
  131OSM   H12B14086   5.477   6.523   5.679 -0.2685  2.3474  0.5904
  131OSM    C1114087   5.599   6.480   5.857  0.6977  0.1103  0.2590
  131OSM   H11A14088   5.698   6.510   5.898  1.1514 -0.1313 -0.6514
  131OSM   H11B14089   5.606   6.369   5.855 -2.6824 -0.1731  1.6855
  131OSM      P14090   5.346   6.465   5.930 -0.3337 -0.2143 -0.1802
  131OSM    O1314091   5.247   6.550   6.010  0.1220  0.0512  0.0532
  131OSM    O1414092   5.319   6.443   5.789  0.1707 -0.7927 -0.0737
  131OSM    O1114093   5.373   6.329   6.006 -0.3481 -0.0681 -0.2241
  131OSM    O1214094   5.491   6.536   5.931 -0.1414  0.3556  0.2572
  131OSM    C1S14095   5.432   6.323   6.129  0.2149  0.8337 -0.3377
  131OSM    H1S14096   5.477   6.420   6.158 -0.1156  0.9793 -0.3102
  131OSM    H1T14097   5.517   6.252   6.131 -0.5263 -0.0588 -0.2995
  131OSM     NF14098   5.400   6.310   6.374 -0.1649 -0.2259  0.3645
  131OSM    HNF14099   5.455   6.241   6.420 -1.3399 -0.2837  1.7150
  131OSM    C2S14100   5.334   6.282   6.245 -0.0384  0.3646  0.3286
  131OSM    H2S14101   5.248   6.350   6.232 -0.4635 -0.2210  0.0225
  131OSM    C3S14102   5.289   6.135   6.228 -0.4965  0.6553 -0.5959
  131OSM    H3S14103   5.381   6.075   6.240 -0.4033  0.7545 -0.7987
  131OSM     O314104   5.245   6.091   6.095 -0.7348 -0.5287 -0.0820
  131OSM    HO314105   5.273   6.167   6.044  1.7451 -2.1681 -1.2769
  131OSM    C4S14106   5.188   6.087   6.331 -0.2425 -0.4381 -0.1139
  131OSM    H4S14107   5.096   6.146   6.334  0.1646  0.1310  1.8876
  131OSM    C5S14108   5.208   5.975   6.405 -0.3368 -0.6614  0.4395
  131OSM    H5S14109   5.305   5.924   6.392 -0.4532 -1.0877  1.1897
  131OSM    C6S14110   5.109   5.912   6.501  0.0596  0.3680 -0.0023
  131OSM    H6S14111   5.099   5.805   6.474  2.5806  0.4782 -1.5142
  131OSM    H6T14112   5.007   5.953   6.483 -1.5542 -2.6372  1.9055
  131OSM    C7S14113   5.145   5.917   6.654 -0.4791 -0.2020 -0.0285
  131OSM    H7S14114   5.224   5.856   6.703 -0.7825  1.2396  2.3333
  131OSM    H7T14115   5.053   5.886   6.707  0.3288 -3.0494 -0.2103
  131OSM    C8S14116   5.180   6.064   6.699  0.4090  0.4435  0.3488
  131OSM    H8S14117   5.108   6.132   6.650  0.2528  0.7439  0.9933
  131OSM    H8T14118   5.272   6.081   6.639  0.6795  2.7035  1.3683
  131OSM    C9S14119   5.184   6.081   6.849  0.1220  0.3107  0.0905
  131OSM    H9S14120   5.249   6.167   6.875 -1.3017  1.2819  0.4603
  131OSM    H9T14121   5.221   5.989   6.899 -2.4944 -0.8567 -0.0176
  131OSM   C10S14122   5.043   6.124   6.908 -0.2850  0.5996  0.2075
  131OSM   H10S14123   4.990   6.030   6.884  0.9747  0.2100 -1.1505
  131OSM   H10T14124   5.006   6.208   6.845  0.5325 -0.1124 -1.2524
  131OSM   C11S14125   5.043   6.160   7.051  0.7146  0.4388 -0.7021
  131OSM   H11S14126   4.947   6.130   7.097  0.3890  2.1272 -0.2720
  131OSM   H11T14127   5.049   6.270   7.061  1.8823  0.2026  1.7793
  131OSM   C12S14128   5.147   6.097   7.146 -0.0826 -0.3327  0.0790
  131OSM   H12S14129   5.245   6.134   7.107 -0.2706 -0.8356 -0.8839
  131OSM   H12T14130   5.139   5.987   7.132 -4.0344 -0.2079  0.9676
  131OSM   C13S14131   5.138   6.138   7.292  0.2829  0.2511 -0.2779
  131OSM   H13S14132   5.217   6.087   7.351  0.0829  1.2658  0.8917
  131OSM   H13T14133   5.046   6.103   7.345  0.0697 -0.4136 -1.0733
  131OSM   C14S14134   5.180   6.284   7.320  0.0134 -0.3221  0.2003
  131OSM   H14S14135   5.099   6.356   7.297 -1.8675 -2.1335  1.0481
  131OSM   H14T14136   5.272   6.320   7.268  0.8415 -1.8506  0.5900
  131OSM   C15S14137   5.199   6.302   7.469  0.1850  0.6028  0.1905
  131OSM   H15S14138   5.264   6.387   7.499  2.4984 -1.2592  0.5870
  131OSM   H15T14139   5.258   6.215   7.504  0.1277  0.3224 -0.4145
  131OSM   C16S14140   5.066   6.313   7.552  0.6556  0.0391  0.1284
  131OSM   H16S14141   4.995   6.233   7.521 -0.9332  1.4052  0.1755
  131OSM   H16T14142   5.012   6.405   7.522 -2.4346 -1.8256 -0.2670
  131OSM   C17S14143   5.097   6.292   7.699 -0.3693 -0.3625 -0.1834
  131OSM   H17S14144   5.187   6.353   7.720 -1.2506  0.3446  1.6014
  131OSM   H17T14145   5.105   6.182   7.714 -1.4665 -0.9033 -3.1012
  131OSM   C18S14146   4.981   6.338   7.793 -0.5604 -0.6364 -0.0031
  131OSM   H18S14147   5.027   6.350   7.894 -2.4436 -0.7977  0.8883
  131OSM   H18T14148   4.894   6.269   7.800 -0.6641 -0.5786 -0.7473
  131OSM   H18U14149   4.945   6.440   7.772  2.6050  0.2432 -1.4804
  131OSM    C1F14150   5.376   6.430   6.431 -0.1958 -0.0625 -0.8538
  131OSM     OF14151   5.345   6.527   6.367  0.7994  0.0289  0.3101
  131OSM    C2F14152   5.401   6.428   6.582  0.9322 -0.3060 -0.2215
  131OSM    H2F14153   5.496   6.480   6.605 -0.0438  2.5888 -2.3039
  131OSM    H2G14154   5.398   6.322   6.613 -0.2452  0.5112  2.6238
  131OSM    C3F14155   5.290   6.511   6.657  0.1687  0.5703  0.6177
  131OSM    H3F14156   5.189   6.489   6.618  1.2213 -1.5080 -1.0106
  131OSM    H3G14157   5.300   6.614   6.617 -2.0285  0.1940 -0.9472
  131OSM    C4F14158   5.313   6.510   6.808  0.0911 -0.3181 -0.1541
  131OSM    H4F14159   5.416   6.530   6.845 -0.5450 -0.6917  1.8892
  131OSM    H4G14160   5.295   6.405   6.838 -0.2680  0.4987  2.7367
  131OSM    C5F14161   5.201   6.596   6.878 -0.0944  0.7406  0.7776
  131OSM    H5F14162   5.104   6.549   6.850 -0.5856  2.0913  0.1537
  131OSM    H5G14163   5.200   6.696   6.828 -1.6708  1.1038  1.4984
  131OSM    C6F14164   5.204   6.596   7.033 -0.1564 -0.4514 -0.0313
  131OSM    H6F14165   5.178   6.494   7.067 -1.8355 -0.3819 -1.0444
  131OSM    H6G14166   5.125   6.668   7.063 -0.0984  0.5173 -2.1116
  131OSM    C7F14167   5.341   6.647   7.093  0.6481 -0.6279 -0.1618
  131OSM    H7F14168   5.370   6.745   7.049  0.9899  0.0576  1.5189
  131OSM    H7G14169   5.430   6.589   7.060  0.6873 -0.2932 -0.6538
  131OSM    C8F14170   5.343   6.651   7.250 -0.4853 -0.2858 -0.1387
  131OSM    H8F14171   5.446   6.669   7.286 -0.0789  1.8799 -2.2149
  131OSM    H8G14172   5.323   6.552   7.295 -0.6825 -1.0575 -1.8676
  131OSM    C9F14173   5.244   6.747   7.313  0.4239  0.6634 -0.0449
  131OSM    H9F14174   5.157   6.779   7.254  0.0649 -0.4322 -0.1210
  131OSM   C10F14175   5.242   6.773   7.444 -0.5631 -0.4801 -0.4418
  131OSM   H10F14176   5.158   6.839   7.471 -0.5925 -1.7717  2.8812
  131OSM   C11F14177   5.334   6.720   7.547 -0.3789  0.7316  0.8746
  131OSM   H11F14178   5.410   6.799   7.568  5.0271 -3.5119 -1.4973
  131OSM   H11G14179   5.391   6.634   7.506 -0.8895 -0.1068  1.8977
  131OSM   C12F14180   5.264   6.683   7.677 -0.0139 -0.0435 -0.7671
  131OSM   H12F14181   5.190   6.602   7.662 -0.4512  0.4155 -1.1055
  131OSM   H12G14182   5.193   6.763   7.708  0.9583  0.1321  1.0683
  131OSM   C13F14183   5.359   6.644   7.786 -0.7977  0.0999  0.0448
  131OSM   H13F14184   5.420   6.732   7.819  0.9064  0.0829 -2.9363
  131OSM   H13G14185   5.424   6.559   7.757 -0.3586  0.8294 -1.1279
  131OSM   C14F14186   5.287   6.583   7.910  0.6285 -0.0679  0.5575
  131OSM   H14F14187   5.366   6.521   7.956  0.8276  1.4784  2.3481
  131OSM   H14G14188   5.210   6.513   7.870  0.1870  1.0272 -0.5436
  131OSM   C15F14189   5.211   6.673   8.008 -0.3912  0.9199  0.3723
  131OSM   H15F14190   5.116   6.718   7.972 -0.9210  0.4299  1.1431
  131OSM   H15G14191   5.285   6.743   8.051 -0.6787  0.3916  1.7237
  131OSM   C16F14192   5.177   6.595   8.129 -0.3470  0.1076  0.1015
  131OSM   H16F14193   5.266   6.545   8.173 -1.0223 -0.5761  0.7149
  131OSM   H16G14194   5.110   6.513   8.097  1.6180 -0.9564 -1.4216
  131OSM   C17F14195   5.119   6.671   8.248  0.8045  0.0423  0.7671
  131OSM   H17F14196   5.027   6.717   8.205  0.9017 -0.4494  0.0288
  131OSM   H17G14197   5.186   6.757   8.270  0.2203 -0.4104  4.6080
  131OSM   C18F14198   5.089   6.593   8.377  0.8209 -0.0060 -0.1477
  131OSM   H18F14199   4.986   6.606   8.415  1.5906  0.5277  1.8401
  131OSM   H18G14200   5.162   6.633   8.451  0.1160  1.0464 -0.0108
  131OSM   H18H14201   5.097   6.483   8.361  1.0396 -0.4956  3.0430
  132OSM      N14202   0.113   1.180   5.945  0.5974 -0.4378 -0.2640
  132OSM    C1514203   0.082   1.149   5.808  0.0661  0.1501  0.2230
  132OSM   H15A14204   0.167   1.115   5.750 -0.9182  0.9700 -1.7521
  132OSM   H15B14205   0.033   1.231   5.758  0.7150 -0.4144 -1.3724
  132OSM   H15C14206   0.006   1.074   5.795  0.8480 -0.5087 -0.5987
  132OSM    C1414207   0.221   1.284   5.934 -0.4410 -0.2659 -0.2300
  132OSM   H14A14208   0.192   1.375   5.883  0.0673 -0.2218 -0.4474
  132OSM   H14B14209   0.309   1.251   5.881  0.7730  0.5313  1.2381
  132OSM   H14C14210   0.257   1.308   6.033 -1.4078  2.7014 -0.5515
  132OSM    C1314211  -0.018   1.233   6.006 -0.8927  0.4858 -0.3063
  132OSM   H13A14212  -0.094   1.156   6.005  0.0177 -0.4070 -1.4095
  132OSM   H13B14213  -0.058   1.320   5.956 -1.9216  0.4211  0.3857
  132OSM   H13C14214   0.005   1.261   6.108 -0.8894 -0.0545 -0.1608
  132OSM    C1214215   0.152   1.054   6.026 -0.0272  0.4851  0.4567
  132OSM   H12A14216   0.253   1.023   6.004  0.1177  0.0703  1.6467
  132OSM   H12B14217   0.082   0.976   6.002 -0.5037  0.1945  2.6327
  132OSM    C1114218   0.148   1.055   6.184  0.0739  0.8031  0.5136
  132OSM   H11A14219   0.132   0.963   6.244  1.9631  0.1396  0.0342
  132OSM   H11B14220   0.052   1.104   6.209 -1.2339 -1.4516  0.1092
  132OSM      P14221   0.391   1.105   6.257 -0.4152 -0.1897  0.4240
  132OSM    O1314222   0.412   0.960   6.279  0.4566 -0.3241 -0.5359
  132OSM    O1414223   0.456   1.169   6.136 -0.0570  0.1712  0.2080
  132OSM    O1114224   0.419   1.177   6.395  0.4357 -0.2229 -0.1729
  132OSM    O1214225   0.244   1.142   6.240  0.5790  0.0251  0.0375
  132OSM    C1S14226   0.333   1.143   6.505 -0.5376 -0.5101  0.8088
  132OSM    H1S14227   0.364   1.043   6.542  1.1894 -0.2343  0.1494
  132OSM    H1T14228   0.225   1.144   6.481 -0.2174  0.5869 -0.6717
  132OSM     NF14229   0.248   1.184   6.718 -0.2742 -0.3003 -0.1723
  132OSM    HNF14230   0.162   1.234   6.730 -0.7452 -1.5005  1.7221
  132OSM    C2S14231   0.344   1.241   6.626  0.2764 -0.0700  0.5015
  132OSM    H2S14232   0.446   1.252   6.669 -0.0360  0.2544  1.1790
  132OSM    C3S14233   0.299   1.383   6.579  0.3094 -0.0988 -0.1875
  132OSM    H3S14234   0.194   1.373   6.543 -0.7031  0.3050  2.4817
  132OSM     O314235   0.371   1.429   6.459 -0.1225 -0.2672  0.3269
  132OSM    HO314236   0.428   1.353   6.447  0.2096  0.0254  0.0373
  132OSM    C4S14237   0.306   1.478   6.687  0.2860  0.2368  0.4332
  132OSM    H4S14238   0.222   1.458   6.754 -0.9456 -0.4405 -1.2702
  132OSM    C5S14239   0.392   1.581   6.716  0.1296  0.4534  0.8155
  132OSM    H5S14240   0.476   1.598   6.648 -0.8271  0.0455 -0.4813
  132OSM    C6S14241   0.374   1.676   6.836 -0.9124  0.4717 -0.2999
  132OSM    H6S14242   0.266   1.685   6.860 -1.1857 -2.1281 -0.3954
  132OSM    H6T14243   0.416   1.777   6.818 -1.3472  0.7115  0.0190
  132OSM    C7S14244   0.445   1.617   6.952  0.6930  0.6536  0.0649
  132OSM    H7S14245   0.548   1.586   6.924  0.4341  1.7450 -2.2475
  132OSM    H7T14246   0.402   1.525   6.997 -0.2819 -0.1843 -2.4875
  132OSM    C8S14247   0.463   1.718   7.062 -0.3411 -0.2976 -0.5606
  132OSM    H8S14248   0.371   1.775   7.089  0.6928  0.3207  1.7268
  132OSM    H8T14249   0.539   1.792   7.030 -0.4627  0.3367  0.6009
  132OSM    C9S14250   0.526   1.655   7.188 -0.3976 -0.1657 -0.3657
  132OSM    H9S14251   0.626   1.609   7.172 -0.2161  0.5857 -1.4466
  132OSM    H9T14252   0.453   1.578   7.222 -0.0731  0.5009  1.8874
  132OSM   C10S14253   0.543   1.760   7.292 -0.2956 -1.0867 -1.0584
  132OSM   H10S14254   0.446   1.807   7.317  1.4018  1.4809  0.9871
  132OSM   H10T14255   0.606   1.840   7.246  0.2329  1.1178  3.1919
  132OSM   C11S14256   0.590   1.698   7.427  0.5282  0.1492 -0.9115
  132OSM   H11S14257   0.615   1.782   7.496  1.9484 -0.3301 -0.8154
  132OSM   H11T14258   0.687   1.647   7.409 -0.0106 -1.2440  0.0312
  132OSM   C12S14259   0.491   1.607   7.500 -0.1237  0.3469  0.1686
  132OSM   H12S14260   0.476   1.515   7.440  0.2796 -0.0511  0.6675
  132OSM   H12T14261   0.400   1.670   7.506  0.6264  1.4174  0.4157
  132OSM   C13S14262   0.553   1.577   7.636 -0.2232  1.0249  0.1440
  132OSM   H13S14263   0.584   1.673   7.682  1.8565  0.6851 -0.4907
  132OSM   H13T14264   0.648   1.526   7.607  0.4356  1.9841  0.5760
  132OSM   C14S14265   0.467   1.496   7.721 -0.1415 -0.5679  0.3058
  132OSM   H14S14266   0.414   1.417   7.664  0.5830 -1.3047  0.6421
  132OSM   H14T14267   0.387   1.572   7.735 -1.5684 -2.1277  0.8663
  132OSM   C15S14268   0.538   1.448   7.849 -0.0135 -0.0796 -0.5959
  132OSM   H15S14269   0.632   1.505   7.863 -0.1719 -0.6253  3.2083
  132OSM   H15T14270   0.559   1.342   7.822 -0.4837 -1.1958  3.1268
  132OSM   C16S14271   0.448   1.450   7.978 -0.6872 -0.4886 -0.0856
  132OSM   H16S14272   0.348   1.409   7.952 -0.8779  0.1566 -0.3874
  132OSM   H16T14273   0.431   1.552   8.018  1.4094 -0.0049 -0.3541
  132OSM   C17S14274   0.501   1.383   8.105  0.7013  0.6538 -0.1657
  132OSM   H17S14275   0.605   1.406   8.136  1.1043  1.1453 -1.8354
  132OSM   H17T14276   0.501   1.276   8.075  0.0523 -0.0358  2.1878
  132OSM   C18S14277   0.415   1.398   8.231  0.4062  0.2101 -0.0279
  132OSM   H18S14278   0.314   1.359   8.209  0.8190 -1.4110  0.9034
  132OSM   H18T14279   0.420   1.505   8.261 -0.0272  0.4977 -0.9478
  132OSM   H18U14280   0.449   1.332   8.313  2.0619 -1.1741 -1.7716
  132OSM    C1F14281   0.295   1.091   6.802  0.6837  0.4738  0.5220
  132OSM     OF14282   0.415   1.077   6.810 -0.0576  0.3219  0.2887
  132OSM    C2F14283   0.181   1.012   6.876 -0.8465 -0.0999  0.0528
  132OSM    H2F14284   0.200   0.906   6.848  1.2598  0.9173 -2.6057
  132OSM    H2G14285   0.081   1.046   6.843 -0.8742  0.6216  0.8687
  132OSM    C3F14286   0.186   1.024   7.034  0.4003 -0.9956  0.0576
  132OSM    H3F14287   0.220   1.128   7.052  1.1069 -1.2292  0.0589
  132OSM    H3G14288   0.263   0.956   7.076  0.5577 -0.5580  0.4935
  132OSM    C4F14289   0.049   1.007   7.100 -0.1618 -0.6019 -0.4256
  132OSM    H4F14290   0.001   0.917   7.057  0.2592 -1.2156  0.3731
  132OSM    H4G14291  -0.017   1.096   7.084  2.4923  1.6002  0.4131
  132OSM    C5F14292   0.063   0.992   7.248  0.2244 -0.5269  0.4002
  132OSM    H5F14293   0.115   1.081   7.289 -1.0172  0.1787  0.4671
  132OSM    H5G14294   0.139   0.911   7.256 -0.9994 -1.6458  1.0845
  132OSM    C6F14295  -0.072   0.936   7.312 -1.1144 -0.5725  0.6649
  132OSM    H6F14296  -0.128   0.879   7.235  2.2277  1.3078 -3.3628
  132OSM    H6G14297  -0.138   1.023   7.334  0.3756  0.7040  0.1783
  132OSM    C7F14298  -0.037   0.846   7.437 -0.7037  0.7608 -0.1749
  132OSM    H7F14299   0.010   0.904   7.519 -0.3704 -2.3602  1.9315
  132OSM    H7G14300   0.037   0.765   7.423  1.8981  3.2025 -1.0002
  132OSM    C8F14301  -0.168   0.791   7.493  0.1837  0.0234  0.1367
  132OSM    H8F14302  -0.220   0.740   7.409  2.6080 -0.2963 -1.2214
  132OSM    H8G14303  -0.229   0.880   7.515 -2.4636 -2.1880  2.1400
  132OSM    C9F14304  -0.158   0.708   7.618 -0.1344  0.5637 -0.2187
  132OSM    H9F14305  -0.137   0.601   7.608  0.9059  0.7413  0.0533
  132OSM   C10F14306  -0.180   0.753   7.746  0.3651  0.2042 -0.0705
  132OSM   H10F14307  -0.195   0.680   7.826  0.7335 -0.6404 -0.7681
  132OSM   C11F14308  -0.212   0.898   7.788  0.7390 -0.1370 -0.3898
  132OSM   H11F14309  -0.205   0.962   7.698 -3.1290  1.5759  0.4639
  132OSM   H11G14310  -0.139   0.937   7.862 -2.7272  2.1780  1.9501
  132OSM   C12F14311  -0.358   0.943   7.828 -0.0411 -0.2366 -0.1361
  132OSM   H12F14312  -0.427   0.899   7.753 -0.1657 -1.7055  0.8175
  132OSM   H12G14313  -0.370   1.052   7.812  0.0466 -0.0590  0.9508
  132OSM   C13F14314  -0.396   0.917   7.973 -0.1996 -0.4128  0.2794
  132OSM   H13F14315  -0.505   0.937   7.974 -0.8355 -3.5151  2.6980
  132OSM   H13G14316  -0.350   0.982   8.051 -1.6681  1.5794 -0.4752
  132OSM   C14F14317  -0.366   0.777   8.011 -0.5548 -0.1603 -0.1330
  132OSM   H14F14318  -0.259   0.762   8.038 -0.3164 -2.8316 -2.3885
  132OSM   H14G14319  -0.386   0.708   7.926  0.1883 -0.4891 -0.0463
  132OSM   C15F14320  -0.457   0.735   8.140  0.4892  0.3501  0.5634
  132OSM   H15F14321  -0.434   0.626   8.144 -0.7542 -0.0613 -2.2903
  132OSM   H15G14322  -0.565   0.742   8.117  0.2604  1.3069  1.9076
  132OSM   C16F14323  -0.404   0.794   8.271 -0.1161 -0.2156 -0.1560
  132OSM   H16F14324  -0.398   0.905   8.260 -0.8971 -0.1945 -0.3876
  132OSM   H16G14325  -0.299   0.764   8.289 -0.3195 -0.9493 -0.1830
  132OSM   C17F14326  -0.510   0.762   8.381 -0.0397 -0.0427 -0.6256
  132OSM   H17F14327  -0.532   0.653   8.373 -3.2245  0.5426 -0.3499
  132OSM   H17G14328  -0.600   0.817   8.347 -0.5326  0.7106  1.8337
  132OSM   C18F14329  -0.484   0.808   8.529  0.0542 -0.8890 -0.1477
  132OSM   H18F14330  -0.435   0.908   8.526  0.9791 -1.3041  0.6467
  132OSM   H18G14331  -0.404   0.750   8.580  0.4926  0.6707  0.9835
  132OSM   H18H14332  -0.579   0.814   8.586 -0.5903 -1.1806 -1.1839
  133OSM      N14333   1.346   0.905   6.553 -0.3609  0.5271  0.4511
  133OSM    C1514334   1.491   0.926   6.547  0.2268  0.3389 -0.6057
  133OSM   H15A14335   1.549   0.835   6.548 -1.2733 -0.6514  2.0712
  133OSM   H15B14336   1.533   0.967   6.638 -1.3754  1.8078 -0.5150
  133OSM   H15C14337   1.509   0.989   6.461 -2.3328  0.8397 -0.8025
  133OSM    C1414338   1.309   0.820   6.439  0.1934  0.0034 -0.3315
  133OSM   H14A14339   1.203   0.804   6.438  0.3105 -0.8550 -2.8152
  133OSM   H14B14340   1.350   0.721   6.455 -1.4313 -0.4090  1.3800
  133OSM   H14C14341   1.346   0.854   6.344  1.8919 -2.0382 -0.4454
  133OSM    C1314342   1.316   0.851   6.688  0.5137  0.2988  1.0392
  133OSM   H13A14343   1.209   0.847   6.693  0.3547  1.3050 -0.9775
  133OSM   H13B14344   1.360   0.904   6.772  3.2966  0.7692 -0.6237
  133OSM   H13C14345   1.348   0.748   6.684  0.1979  0.2031 -5.4371
  133OSM    C1214346   1.282   1.040   6.542 -0.0951 -0.3725 -0.1103
  133OSM   H12A14347   1.333   1.092   6.463  0.2794  0.7049  0.8241
  133OSM   H12B14348   1.308   1.093   6.632  3.3294 -1.1042 -0.5956
  133OSM    C1114349   1.133   1.060   6.518 -0.4217 -0.9221  0.4014
  133OSM   H11A14350   1.120   1.170   6.523  0.5471 -0.8056  0.3805
  133OSM   H11B14351   1.069   1.007   6.593 -0.0654  0.1676  1.4966
  133OSM      P14352   0.966   1.059   6.317  0.1071 -0.0826 -0.1286
  133OSM    O1314353   0.988   1.159   6.214 -0.5242 -0.5793  0.1863
  133OSM    O1414354   0.897   0.942   6.263  0.0344  0.3235 -0.3427
  133OSM    O1114355   0.885   1.122   6.436 -0.1998 -0.2117  0.2821
  133OSM    O1214356   1.100   1.017   6.382 -0.1617 -0.3906 -0.6772
  133OSM    C1S14357   0.768   1.063   6.490 -0.1892  0.3742  0.0651
  133OSM    H1S14358   0.752   0.956   6.461 -2.1868 -0.1101  2.7274
  133OSM    H1T14359   0.673   1.105   6.451  0.2420  0.6290 -0.7159
  133OSM     NF14360   0.670   0.976   6.701  0.2761 -0.3232 -0.4091
  133OSM    HNF14361   0.589   1.016   6.744  1.8772  4.0370 -1.2809
  133OSM    C2S14362   0.764   1.070   6.644  0.1321 -0.3191  0.4127
  133OSM    H2S14363   0.866   1.043   6.680 -0.4113 -2.1612  0.6054
  133OSM    C3S14364   0.736   1.216   6.688  0.6067 -0.3384 -0.5077
  133OSM    H3S14365   0.644   1.256   6.640 -1.1391 -1.2425  1.9451
  133OSM     O314366   0.846   1.298   6.647 -0.0169 -0.1118 -0.1816
  133OSM    HO314367   0.890   1.249   6.578  1.6544 -0.0782  0.8230
  133OSM    C4S14368   0.724   1.232   6.839 -0.1250 -0.0331 -0.4902
  133OSM    H4S14369   0.806   1.190   6.899 -1.7413 -0.9817  1.1314
  133OSM    C5S14370   0.629   1.296   6.910 -1.1918 -0.1202  0.1421
  133OSM    H5S14371   0.547   1.345   6.856 -0.6592  0.1257 -0.4564
  133OSM    C6S14372   0.632   1.299   7.057 -0.3689 -0.5687 -0.5343
  133OSM    H6S14373   0.600   1.401   7.087 -0.2732 -0.5228 -0.5905
  133OSM    H6T14374   0.739   1.308   7.082  0.0990  0.6713 -2.8044
  133OSM    C7S14375   0.561   1.190   7.137  0.0930 -0.2253 -0.0865
  133OSM    H7S14376   0.612   1.094   7.113  0.5039 -0.1758  0.5613
  133OSM    H7T14377   0.456   1.175   7.104  0.6487 -2.3522 -0.9527
  133OSM    C8S14378   0.565   1.202   7.289 -0.1416 -0.6494  0.2431
  133OSM    H8S14379   0.543   1.307   7.319 -0.8059 -0.5128 -0.6784
  133OSM    H8T14380   0.671   1.195   7.320  0.1545  1.5775 -0.1783
  133OSM    C9S14381   0.466   1.110   7.362  0.0456  0.3098 -0.3879
  133OSM    H9S14382   0.480   1.011   7.315  1.6847  1.6285 -2.8003
  133OSM    H9T14383   0.368   1.159   7.340  0.0401  0.4601 -0.0385
  133OSM   C10S14384   0.485   1.103   7.518  0.7350 -0.4321  0.4186
  133OSM   H10S14385   0.462   1.208   7.547  0.7892 -1.2192  3.4285
  133OSM   H10T14386   0.585   1.066   7.547  1.3854  0.5983 -0.4884
  133OSM   C11S14387   0.385   0.999   7.573  0.0671  0.1886  0.0893
  133OSM   H11S14388   0.392   0.902   7.519 -0.6403  0.2585 -0.1378
  133OSM   H11T14389   0.282   1.033   7.549 -0.2155  0.2891  1.4264
  133OSM   C12S14390   0.401   0.977   7.726  0.1925  0.4374 -0.1099
  133OSM   H12S14391   0.395   1.070   7.787  1.3855 -0.2018  1.0023
  133OSM   H12T14392   0.499   0.928   7.739  1.0820  2.2464  0.2137
  133OSM   C13S14393   0.294   0.889   7.784  0.4274  0.7042 -0.1157
  133OSM   H13S14394   0.188   0.919   7.770  0.4909  0.3420 -1.4745
  133OSM   H13T14395   0.308   0.901   7.894 -1.2675  0.0935  0.1825
  133OSM   C14S14396   0.297   0.743   7.745 -0.3790 -0.2853 -0.6761
  133OSM   H14S14397   0.305   0.724   7.636  1.2221 -3.4287 -0.0712
  133OSM   H14T14398   0.198   0.699   7.769  0.9187 -2.8188  0.2599
  133OSM   C15S14399   0.399   0.667   7.821 -0.3783  0.5305 -0.5821
  133OSM   H15S14400   0.492   0.715   7.857  1.3808 -2.0460 -1.5334
  133OSM   H15T14401   0.436   0.592   7.748  0.0584  0.9268 -0.7753
  133OSM   C16S14402   0.339   0.600   7.943  0.1165  0.5308  0.0437
  133OSM   H16S14403   0.271   0.521   7.904  2.3612  0.1617 -3.3421
  133OSM   H16T14404   0.295   0.678   8.008  0.1118 -1.2806  2.2521
  133OSM   C17S14405   0.435   0.527   8.029 -0.1560 -0.0214  0.9465
  133OSM   H17S14406   0.522   0.589   8.058 -0.1141 -0.5337  1.8904
  133OSM   H17T14407   0.483   0.447   7.969 -0.8076  0.2651  0.0127
  133OSM   C18S14408   0.380   0.466   8.164 -0.4982 -0.3482  0.0902
  133OSM   H18S14409   0.472   0.444   8.221 -1.0798  0.4068  1.3320
  133OSM   H18T14410   0.328   0.370   8.142  0.0732 -0.6380  0.0077
  133OSM   H18U14411   0.316   0.539   8.218 -0.3866  0.6076 -1.0501
  133OSM    C1F14412   0.672   0.841   6.689  0.2269 -0.6238 -0.6378
  133OSM     OF14413   0.768   0.786   6.643 -0.2672  0.5863  0.2629
  133OSM    C2F14414   0.553   0.765   6.742 -0.3472  0.0643  0.3030
  133OSM    H2F14415   0.493   0.738   6.653  0.2590 -0.0360 -0.0829
  133OSM    H2G14416   0.493   0.828   6.810  0.2997  2.8572 -1.6331
  133OSM    C3F14417   0.579   0.634   6.816  0.0526  0.6868 -0.0767
  133OSM    H3F14418   0.630   0.562   6.749 -0.9240  0.1366 -0.2470
  133OSM    H3G14419   0.483   0.579   6.810  0.6374 -0.3192 -0.3397
  133OSM    C4F14420   0.638   0.638   6.957 -0.2293  0.3719 -0.2772
  133OSM    H4F14421   0.584   0.690   7.038  3.0104  1.9710  0.9347
  133OSM    H4G14422   0.737   0.686   6.957 -0.1440  0.1934  0.1464
  133OSM    C5F14423   0.657   0.498   7.015 -0.5544 -0.1990  0.1645
  133OSM    H5F14424   0.724   0.445   6.944 -0.7234 -1.1262  0.6865
  133OSM    H5G14425   0.566   0.436   7.028 -0.4641  0.1549  2.7296
  133OSM    C6F14426   0.726   0.498   7.155  0.7850 -1.1923 -0.7464
  133OSM    H6F14427   0.695   0.581   7.222  2.1594 -1.2348 -0.0364
  133OSM    H6G14428   0.831   0.527   7.129  0.1168  1.7867 -0.3154
  133OSM    C7F14429   0.714   0.363   7.233  0.4490  0.6476  0.4800
  133OSM    H7F14430   0.777   0.301   7.165  0.4047  1.4588 -0.3063
  133OSM    H7G14431   0.606   0.339   7.232  0.7724 -1.0631  2.6163
  133OSM    C8F14432   0.766   0.373   7.375 -0.9327 -0.6144 -0.8091
  133OSM    H8F14433   0.712   0.455   7.427 -1.9408 -1.2795 -0.8045
  133OSM    H8G14434   0.869   0.413   7.368 -0.8499 -0.3904  1.4114
  133OSM    C9F14435   0.767   0.246   7.447  0.1046  0.8278 -0.0723
  133OSM    H9F14436   0.800   0.158   7.388 -0.7635  0.3950  0.0809
  133OSM   C10F14437   0.722   0.219   7.573  0.6567  0.2107  0.4057
  133OSM   H10F14438   0.724   0.114   7.603 -0.1275  0.2781  0.6937
  133OSM   C11F14439   0.649   0.311   7.672  0.1033  0.7411 -0.2954
  133OSM   H11F14440   0.621   0.402   7.616 -0.1311  0.6108 -0.3900
  133OSM   H11G14441   0.720   0.336   7.754  0.5794  0.3610 -0.5864
  133OSM   C12F14442   0.522   0.244   7.723  0.5448 -0.0585 -0.3460
  133OSM   H12F14443   0.451   0.223   7.639 -0.0635 -0.6661  0.3088
  133OSM   H12G14444   0.480   0.318   7.795  0.2258 -2.5302  2.1149
  133OSM   C13F14445   0.538   0.128   7.820  0.4386 -0.3084 -0.8143
  133OSM   H13F14446   0.618   0.155   7.892 -1.7879 -1.4357  2.1838
  133OSM   H13G14447   0.560   0.030   7.772  0.0647 -0.9512  0.2945
  133OSM   C14F14448   0.414   0.109   7.914 -0.3602  0.1324 -0.0193
  133OSM   H14F14449   0.349   0.053   7.843  0.4694 -0.4016 -0.3693
  133OSM   H14G14450   0.382   0.212   7.940  0.6069  0.4179  0.0565
  133OSM   C15F14451   0.447   0.026   8.033  0.5780  0.3387 -0.7194
  133OSM   H15F14452   0.355  -0.013   8.080  0.9876  0.0952 -0.1033
  133OSM   H15G14453   0.497   0.086   8.112  1.6649  0.1368 -1.2290
  133OSM   C16F14454   0.528  -0.099   7.987  0.0052  0.0350 -0.2202
  133OSM   H16F14455   0.635  -0.075   7.973  0.1698 -0.7007 -0.1910
  133OSM   H16G14456   0.492  -0.145   7.892  0.2544  0.2890 -0.4374
  133OSM   C17F14457   0.526  -0.208   8.096 -0.8634  0.3563 -0.8751
  133OSM   H17F14458   0.564  -0.302   8.049 -0.6686  0.2666 -0.5414
  133OSM   H17G14459   0.420  -0.228   8.123 -0.3780  0.1132  0.9316
  133OSM   C18F14460   0.604  -0.174   8.221  0.2694  1.1141  0.3751
  133OSM   H18F14461   0.598  -0.256   8.295  3.0353 -0.6722 -1.2905
  133OSM   H18G14462   0.546  -0.089   8.264 -0.3414  0.5315  0.7213
  133OSM   H18H14463   0.713  -0.157   8.208  1.0862 -3.6818  0.0023
  134OSM      N14464   1.695   4.576   6.519 -0.1599 -0.8365 -0.3125
  134OSM    C1514465   1.714   4.724   6.523  0.3838  0.1485  0.1222
  134OSM   H15A14466   1.662   4.764   6.609 -1.3318  0.2529 -0.9415
  134OSM   H15B14467   1.670   4.763   6.433  0.3425 -0.2343 -0.0245
  134OSM   H15C14468   1.816   4.757   6.514  0.7936 -1.6044 -2.2510
  134OSM    C1414469   1.552   4.547   6.500  0.1940 -0.8350 -0.5650
  134OSM   H14A14470   1.531   4.441   6.501 -1.7850 -0.4513 -0.1772
  134OSM   H14B14471   1.506   4.589   6.412 -0.6920 -4.8050 -2.0782
  134OSM   H14C14472   1.497   4.584   6.585  0.6486 -2.0450  0.2753
  134OSM    C1314473   1.758   4.519   6.390 -0.0275 -0.3543  0.2074
  134OSM   H13A14474   1.830   4.594   6.363 -0.4885  1.0352  2.6571
  134OSM   H13B14475   1.684   4.519   6.312 -0.1708 -2.3874  0.3173
  134OSM   H13C14476   1.804   4.421   6.396 -1.1819 -1.1196 -2.8127
  134OSM    C1214477   1.737   4.515   6.650 -0.2778 -0.1763  0.4628
  134OSM   H12A14478   1.682   4.565   6.728 -0.0083 -0.0933  0.6014
  134OSM   H12B14479   1.836   4.556   6.664  0.3379 -1.4664 -0.0087
  134OSM    C1114480   1.721   4.364   6.671  0.3889 -0.1414  1.0003
  134OSM   H11A14481   1.616   4.341   6.642  0.7438  1.7892 -1.9869
  134OSM   H11B14482   1.731   4.358   6.781  0.0526  0.7496  1.0820
  134OSM      P14483   1.799   4.141   6.548  0.1364 -0.1872  0.0543
  134OSM    O1314484   1.780   4.131   6.403 -0.2870 -0.2358 -0.2855
  134OSM    O1414485   1.921   4.060   6.594 -0.2680  0.2349  0.1083
  134OSM    O1114486   1.666   4.096   6.615 -0.0777  0.3694 -0.0234
  134OSM    O1214487   1.820   4.291   6.594  0.2794  0.1466 -0.9314
  134OSM    C1S14488   1.658   4.060   6.756 -0.8047  0.3289  0.6943
  134OSM    H1S14489   1.611   4.146   6.810  0.9428  1.3765  0.5924
  134OSM    H1T14490   1.759   4.046   6.799 -0.7479  0.6725  0.6811
  134OSM     NF14491   1.590   3.884   6.913  0.5490 -0.1713  0.0498
  134OSM    HNF14492   1.667   3.822   6.924  0.2454 -0.4645  0.4835
  134OSM    C2S14493   1.579   3.922   6.774 -0.0489 -0.1644  0.6480
  134OSM    H2S14494   1.474   3.937   6.739  0.0472  0.7890  0.7587
  134OSM    C3S14495   1.638   3.811   6.685  0.5331 -0.5127 -0.6962
  134OSM    H3S14496   1.745   3.796   6.710  0.6123  2.2501  0.7972
  134OSM     O314497   1.632   3.840   6.545 -0.2667  0.1630  0.2057
  134OSM    HO314498   1.564   3.907   6.531 -2.3578 -1.8068  0.8057
  134OSM    C4S14499   1.574   3.680   6.712  0.4052 -0.0880 -0.0425
  134OSM    H4S14500   1.633   3.646   6.798  0.1619 -0.1414  0.1051
  134OSM    C5S14501   1.478   3.605   6.650  0.2782 -0.0504 -0.1664
  134OSM    H5S14502   1.423   3.647   6.565  1.8583 -1.2409 -1.8186
  134OSM    C6S14503   1.425   3.472   6.690 -0.0787 -0.2939  0.3599
  134OSM    H6S14504   1.439   3.404   6.603  0.5516 -0.3360  0.4925
  134OSM    H6T14505   1.317   3.480   6.713 -0.8613  0.6587 -3.3183
  134OSM    C7S14506   1.494   3.408   6.816  0.3878  0.7250 -0.3599
  134OSM    H7S14507   1.603   3.403   6.794  0.7862  0.7594  1.5735
  134OSM    H7T14508   1.460   3.302   6.828  2.0845 -0.0563 -2.1177
  134OSM    C8S14509   1.449   3.474   6.951  0.3996 -0.4206  0.0078
  134OSM    H8S14510   1.338   3.470   6.962  0.5893 -0.6623  1.8596
  134OSM    H8T14511   1.481   3.579   6.935  1.8511 -0.5805  1.7249
  134OSM    C9S14512   1.501   3.426   7.089 -0.1533 -0.6362  0.2514
  134OSM    H9S14513   1.611   3.441   7.087 -0.4749  1.5617 -1.1033
  134OSM    H9T14514   1.474   3.319   7.105  1.8328 -0.7795  3.1513
  134OSM   C10S14515   1.441   3.503   7.206 -0.3032 -0.2469 -0.1241
  134OSM   H10S14516   1.332   3.487   7.224 -0.3637 -0.5271 -0.7168
  134OSM   H10T14517   1.447   3.612   7.188 -1.3589  0.2533  2.3890
  134OSM   C11S14518   1.522   3.467   7.327  0.3518 -0.2280 -0.2247
  134OSM   H11S14519   1.632   3.476   7.316  0.1159  0.3670 -2.2835
  134OSM   H11T14520   1.503   3.360   7.350 -2.7901  0.4921  0.6885
  134OSM   C12S14521   1.485   3.543   7.461 -0.0495  0.3925  0.1325
  134OSM   H12S14522   1.379   3.521   7.485  0.2577 -1.0815  0.2288
  134OSM   H12T14523   1.497   3.652   7.449 -1.5504  0.3012 -2.9626
  134OSM   C13S14524   1.565   3.495   7.582 -0.1265  0.4136  0.0640
  134OSM   H13S14525   1.669   3.507   7.543  0.6845 -0.2340  1.9737
  134OSM   H13T14526   1.560   3.384   7.588 -0.0990  0.2875 -1.8101
  134OSM   C14S14527   1.526   3.570   7.708  0.6753  0.0044  0.0478
  134OSM   H14S14528   1.417   3.578   7.728  0.8466 -0.7997  1.3988
  134OSM   H14T14529   1.558   3.676   7.712  2.7340 -0.5425 -1.4621
  134OSM   C15S14530   1.594   3.527   7.839 -0.6812 -0.2091 -0.3965
  134OSM   H15S14531   1.654   3.613   7.875  0.4011 -1.7385  1.5985
  134OSM   H15T14532   1.657   3.438   7.815 -0.9585 -0.9675  1.5595
  134OSM   C16S14533   1.497   3.483   7.950  0.7418  0.0004  0.0730
  134OSM   H16S14534   1.427   3.409   7.907  1.3179 -1.2013  1.1624
  134OSM   H16T14535   1.439   3.568   7.992  2.2981  1.3916 -0.5425
  134OSM   C17S14536   1.568   3.420   8.081  0.2093  0.0797  0.6024
  134OSM   H17S14537   1.653   3.488   8.102 -0.9564  1.4694  0.9151
  134OSM   H17T14538   1.619   3.330   8.042 -0.4064  0.4629 -1.1238
  134OSM   C18S14539   1.469   3.394   8.209 -0.0981 -0.3555 -0.5492
  134OSM   H18S14540   1.394   3.476   8.200 -0.3752 -0.3227  1.8005
  134OSM   H18T14541   1.531   3.383   8.301  1.7312 -2.5175 -2.0055
  134OSM   H18U14542   1.413   3.302   8.184 -0.3513  0.1639 -1.9486
  134OSM    C1F14543   1.553   3.958   7.025 -0.0483 -0.0112  0.9583
  134OSM     OF14544   1.471   4.050   7.011  0.3467  0.2313  0.5110
  134OSM    C2F14545   1.632   3.933   7.145  0.4270 -0.0417  0.1983
  134OSM    H2F14546   1.711   4.010   7.155 -0.6112  0.7799  2.5704
  134OSM    H2G14547   1.679   3.833   7.153 -2.9013 -1.7582 -0.9983
  134OSM    C3F14548   1.541   3.970   7.263  0.3065  0.4892 -0.6029
  134OSM    H3F14549   1.452   3.905   7.260 -0.8001  1.9933 -1.1342
  134OSM    H3G14550   1.504   4.074   7.247  2.4911  1.2273 -1.0982
  134OSM    C4F14551   1.614   3.961   7.393 -0.0736  0.4178  0.2679
  134OSM    H4F14552   1.710   4.015   7.401 -0.5243  1.4346 -0.9196
  134OSM    H4G14553   1.626   3.853   7.416 -2.1945  0.6724  2.8074
  134OSM    C5F14554   1.537   4.024   7.509 -0.0635  0.2103  0.8571
  134OSM    H5F14555   1.433   3.986   7.503 -0.0035  0.0973  0.5329
  134OSM    H5G14556   1.519   4.134   7.500 -1.3850  0.2002  2.8528
  134OSM    C6F14557   1.618   3.999   7.640  0.2812  0.0774  0.1292
  134OSM    H6F14558   1.723   4.032   7.629 -0.0146  0.3472 -2.0494
  134OSM    H6G14559   1.610   3.891   7.663  2.2418 -0.0444  0.3411
  134OSM    C7F14560   1.560   4.079   7.755 -0.0845  0.0468  0.7655
  134OSM    H7F14561   1.450   4.063   7.760  0.0099 -1.1469 -0.6531
  134OSM    H7G14562   1.580   4.185   7.728  0.6399 -0.1733  0.4268
  134OSM    C8F14563   1.637   4.051   7.886  0.8243  0.0756  0.0337
  134OSM    H8F14564   1.746   4.054   7.869  0.4369  1.9520 -2.3498
  134OSM    H8G14565   1.622   3.944   7.912 -1.8009  0.2922 -0.4595
  134OSM    C9F14566   1.592   4.149   8.003 -0.3231  0.1277  0.8884
  134OSM    H9F14567   1.647   4.244   8.009  0.9640 -0.5013 -0.7123
  134OSM   C10F14568   1.515   4.116   8.100  0.8920 -0.1104  0.0558
  134OSM   H10F14569   1.487   4.189   8.177  0.6591  0.8813 -0.9576
  134OSM   C11F14570   1.451   3.983   8.110 -1.1816  1.0645  0.5899
  134OSM   H11F14571   1.436   3.945   8.007 -5.0140  0.6708  1.2292
  134OSM   H11G14572   1.347   3.982   8.150 -0.8417 -0.5341  1.4639
  134OSM   C12F14573   1.540   3.878   8.185  1.0557  0.3031 -0.4465
  134OSM   H12F14574   1.646   3.882   8.151  0.2922  0.9139 -2.9143
  134OSM   H12G14575   1.499   3.777   8.166 -0.0766  0.3340  1.7190
  134OSM   C13F14576   1.536   3.887   8.338  0.1920 -0.1931  1.1910
  134OSM   H13F14577   1.445   3.921   8.391 -1.8020 -0.2444 -2.0308
  134OSM   H13G14578   1.608   3.961   8.378  1.0455 -0.8114  0.8148
  134OSM   C14F14579   1.589   3.749   8.405  0.5851  0.2140  0.3101
  134OSM   H14F14580   1.518   3.673   8.366  0.6367  0.5447 -0.4333
  134OSM   H14G14581   1.571   3.748   8.514  0.5174 -3.7644  0.3478
  134OSM   C15F14582   1.729   3.702   8.357  0.0532  0.7166  0.1124
  134OSM   H15F14583   1.755   3.743   8.258 -1.1352  0.2105 -0.4158
  134OSM   H15G14584   1.729   3.594   8.330  3.7662  0.4154  1.0098
  134OSM   C16F14585   1.841   3.736   8.454  0.4139  0.0251 -0.2641
  134OSM   H16F14586   1.795   3.706   8.551 -1.8843 -0.7391 -1.5527
  134OSM   H16G14587   1.857   3.845   8.469 -0.9263  0.1238  0.5989
  134OSM   C17F14588   1.976   3.673   8.418  0.3843  0.3152 -0.5942
  134OSM   H17F14589   2.020   3.725   8.330 -0.8030  0.5782 -1.0454
  134OSM   H17G14590   1.967   3.564   8.395  2.1962 -0.6637  2.9191
  134OSM   C18F14591   2.086   3.688   8.539 -0.4847 -0.1555  0.8435
  134OSM   H18F14592   2.059   3.630   8.629 -2.5195 -0.2479  0.1819
  134OSM   H18G14593   2.106   3.792   8.572  0.5218  0.1080 -0.5337
  134OSM   H18H14594   2.185   3.649   8.505 -0.1201  1.9271 -0.6002
  135OSM      N14595   1.104   4.096   6.025  1.2319 -0.1616 -0.1967
  135OSM    C1514596   1.138   4.236   5.990 -0.2081  0.5643  0.1814
  135OSM   H15A14597   1.214   4.229   5.913 -1.0591 -1.9756 -0.4765
  135OSM   H15B14598   1.192   4.287   6.067  1.7327  0.1498 -0.8597
  135OSM   H15C14599   1.057   4.305   5.972 -0.4894  0.2098  0.0781
  135OSM    C1414600   1.016   4.051   5.913 -0.3915 -0.0802  0.3656
  135OSM   H14A14601   1.071   4.056   5.820  0.1364  3.1528  0.7833
  135OSM   H14B14602   0.934   4.120   5.900  1.6678  2.1255 -1.3365
  135OSM   H14C14603   0.979   3.951   5.934 -0.5550  0.1697  1.2863
  135OSM    C1314604   1.226   4.013   6.019 -0.3369 -0.3200 -0.4062
  135OSM   H13A14605   1.202   3.910   6.040  0.0532 -0.1953  0.7092
  135OSM   H13B14606   1.288   4.043   6.102 -0.5203 -0.4090 -0.2346
  135OSM   H13C14607   1.273   4.017   5.922 -1.3076 -1.4888 -0.9456
  135OSM    C1214608   1.035   4.090   6.156  0.3262  0.1853  0.2519
  135OSM   H12A14609   1.010   3.985   6.165  0.9203  0.1613  1.7285
  135OSM   H12B14610   0.944   4.149   6.155  0.2765  0.1068  0.1451
  135OSM    C1114611   1.099   4.134   6.287  0.0374 -0.2536 -0.5120
  135OSM   H11A14612   1.171   4.055   6.318 -0.7189 -0.0467  1.8478
  135OSM   H11B14613   1.022   4.135   6.367 -0.0334  0.3935 -0.5932
  135OSM      P14614   1.242   4.319   6.408  0.4558 -0.0451 -0.2301
  135OSM    O1314615   1.385   4.330   6.370  0.3299 -0.1552 -0.2312
  135OSM    O1414616   1.170   4.441   6.444  0.5946  0.0968 -0.7467
  135OSM    O1114617   1.225   4.212   6.522 -0.1366  0.2990 -0.1857
  135OSM    O1214618   1.165   4.258   6.280 -0.3298  0.1802 -0.2000
  135OSM    C1S14619   1.327   4.208   6.625  0.5255  0.6301  0.0218
  135OSM    H1S14620   1.406   4.285   6.614  2.0240 -1.0319 -1.3199
  135OSM    H1T14621   1.378   4.109   6.629  0.8982  0.8384  0.4375
  135OSM     NF14622   1.378   4.272   6.863  0.0339 -0.4367 -0.4907
  135OSM    HNF14623   1.419   4.202   6.921  0.3838  0.3280  0.1945
  135OSM    C2S14624   1.272   4.228   6.771 -0.0841  0.0606 -0.9235
  135OSM    H2S14625   1.199   4.311   6.761  1.0759  1.3636  1.3003
  135OSM    C3S14626   1.205   4.099   6.808  0.4401  0.0053  0.8378
  135OSM    H3S14627   1.286   4.024   6.824  0.2087  0.6361  5.7171
  135OSM     O314628   1.115   4.051   6.700 -0.2097 -0.0709 -0.2111
  135OSM    HO314629   1.138   4.108   6.626 -2.1029 -0.2819 -0.9674
  135OSM    C4S14630   1.136   4.121   6.939  0.3498  0.5783  0.4465
  135OSM    H4S14631   1.204   4.078   7.014  0.8644 -2.4749 -1.6658
  135OSM    C5S14632   1.023   4.189   6.958  0.3020  0.4501 -0.4195
  135OSM    H5S14633   0.972   4.244   6.877 -1.1958  1.1421  0.9621
  135OSM    C6S14634   0.968   4.215   7.093 -0.9549  0.3166 -0.2533
  135OSM    H6S14635   0.858   4.199   7.093 -0.8620 -0.5372  1.4467
  135OSM    H6T14636   0.971   4.326   7.098 -0.1239  0.3221 -0.9433
  135OSM    C7S14637   1.045   4.163   7.214 -0.2669  0.4598 -0.4100
  135OSM    H7S14638   1.143   4.214   7.216 -1.3941  2.8389 -2.7250
  135OSM    H7T14639   1.067   4.054   7.211  1.0416  0.6922  0.6756
  135OSM    C8S14640   0.973   4.206   7.346  0.4194  0.4633 -0.3251
  135OSM    H8S14641   0.881   4.145   7.353  1.0291 -0.8789 -3.0836
  135OSM    H8T14642   0.919   4.303   7.347  1.1702  0.8920 -0.5958
  135OSM    C9S14643   1.067   4.210   7.464 -0.1297  0.1068 -0.4935
  135OSM    H9S14644   1.160   4.261   7.432  1.6296 -0.8582  2.8165
  135OSM    H9T14645   1.104   4.106   7.478 -2.4106 -0.6236  0.4781
  135OSM   C10S14646   1.021   4.262   7.600 -0.4873 -0.0078 -0.1999
  135OSM   H10S14647   1.079   4.217   7.683  0.1955  2.7411  0.8383
  135OSM   H10T14648   0.914   4.234   7.614 -0.3565  0.5808  2.2463
  135OSM   C11S14649   1.029   4.415   7.617  0.0693 -0.3978  0.6157
  135OSM   H11S14650   0.974   4.460   7.532 -2.7255 -0.1694  2.4909
  135OSM   H11T14651   1.130   4.461   7.617  0.1399 -0.5395 -0.0536
  135OSM   C12S14652   0.964   4.436   7.752  0.6299 -0.2832  0.5267
  135OSM   H12S14653   1.029   4.376   7.819  1.5178 -0.6115 -0.6153
  135OSM   H12T14654   0.859   4.400   7.765  0.8272 -0.2209  2.4155
  135OSM   C13S14655   0.958   4.578   7.804 -0.1208 -0.7377 -0.9349
  135OSM   H13S14656   0.870   4.623   7.754 -1.3499 -1.0654  0.8866
  135OSM   H13T14657   1.046   4.635   7.768 -0.9179 -0.4438 -2.4499
  135OSM   C14S14658   0.948   4.596   7.955  0.3097 -0.1275 -0.1470
  135OSM   H14S14659   1.046   4.570   8.001  1.4084  0.9548 -1.8244
  135OSM   H14T14660   0.871   4.533   8.006  1.4117 -0.3693  1.2620
  135OSM   C15S14661   0.914   4.748   7.987 -0.0579  0.3863  0.2799
  135OSM   H15S14662   0.804   4.763   7.988 -0.1342 -0.1092 -0.2293
  135OSM   H15T14663   0.966   4.815   7.915 -1.7887  0.6204 -0.7841
  135OSM   C16S14664   0.948   4.798   8.130  0.6628  0.5608 -0.4461
  135OSM   H16S14665   0.935   4.908   8.116 -1.4480  0.6485  1.9116
  135OSM   H16T14666   1.057   4.790   8.146  0.7046  0.1526 -0.9200
  135OSM   C17S14667   0.859   4.733   8.230 -0.1262 -0.0789  0.1022
  135OSM   H17S14668   0.878   4.624   8.239 -1.1843 -0.2144  0.8475
  135OSM   H17T14669   0.750   4.731   8.209 -0.6634  0.5177  2.5822
  135OSM   C18S14670   0.879   4.792   8.369  0.6139  0.3339 -0.1714
  135OSM   H18S14671   0.798   4.757   8.437  0.3475  1.0138 -0.1323
  135OSM   H18T14672   0.899   4.902   8.366  0.9676  0.4768  3.7813
  135OSM   H18U14673   0.976   4.769   8.418  0.1040  1.3438  1.3694
  135OSM    C1F14674   1.428   4.402   6.862 -0.5109 -1.1128  0.5946
  135OSM     OF14675   1.403   4.483   6.771  0.4979  0.2242  0.7718
  135OSM    C2F14676   1.506   4.444   6.983 -0.1731 -0.8033 -0.5264
  135OSM    H2F14677   1.564   4.536   6.961  2.0122 -2.3495 -1.5372
  135OSM    H2G14678   1.585   4.372   7.015 -1.1629 -0.9184  1.7243
  135OSM    C3F14679   1.416   4.477   7.104 -0.0290  0.5973  0.2930
  135OSM    H3F14680   1.484   4.524   7.178  0.1068  2.9668 -1.3023
  135OSM    H3G14681   1.370   4.385   7.146  2.3230  0.6255  3.0959
  135OSM    C4F14682   1.323   4.599   7.090 -0.0784  0.3443 -0.0231
  135OSM    H4F14683   1.216   4.567   7.087 -0.2796  1.1520 -2.1047
  135OSM    H4G14684   1.337   4.638   6.987  1.5357 -1.7902 -0.6675
  135OSM    C5F14685   1.342   4.711   7.197  0.5494  0.4146  0.1877
  135OSM    H5F14686   1.274   4.795   7.173 -0.5637 -0.7360 -0.7957
  135OSM    H5G14687   1.450   4.733   7.185  0.5179 -0.5530 -2.2488
  135OSM    C6F14688   1.312   4.664   7.341  0.2721 -0.9388  0.2314
  135OSM    H6F14689   1.405   4.607   7.363  0.0477 -1.0520  0.9106
  135OSM    H6G14690   1.222   4.599   7.346 -0.8398  0.5971  0.4908
  135OSM    C7F14691   1.304   4.778   7.446 -0.1964  0.2542 -1.0059
  135OSM    H7F14692   1.213   4.836   7.419 -0.6052  0.0481 -0.0711
  135OSM    H7G14693   1.395   4.842   7.442 -0.3126  0.6176  1.2883
  135OSM    C8F14694   1.274   4.717   7.588  0.1623 -0.1080  0.1464
  135OSM    H8F14695   1.344   4.631   7.598  0.9589  0.3578 -1.2275
  135OSM    H8G14696   1.165   4.697   7.593 -0.0318  0.4727 -1.4637
  135OSM    C9F14697   1.306   4.809   7.696  0.0113 -0.5778  0.4406
  135OSM    H9F14698   1.305   4.917   7.677  0.0366 -0.5144  0.8106
  135OSM   C10F14699   1.337   4.771   7.818 -0.2895 -0.0720 -0.3535
  135OSM   H10F14700   1.359   4.847   7.895  0.5154 -0.1256 -0.5325
  135OSM   C11F14701   1.345   4.630   7.868 -0.2443 -0.5132  0.5822
  135OSM   H11F14702   1.439   4.579   7.839 -0.9483 -1.8054  0.5248
  135OSM   H11G14703   1.266   4.571   7.816  1.3260 -1.1899 -1.0804
  135OSM   C12F14704   1.325   4.621   8.024  0.0751 -0.3913  0.4047
  135OSM   H12F14705   1.241   4.691   8.047  0.2153 -0.2030  0.3423
  135OSM   H12G14706   1.402   4.670   8.087  0.8093  2.0050 -2.2425
  135OSM   C13F14707   1.308   4.479   8.074 -0.0996 -0.7423  0.0382
  135OSM   H13F14708   1.400   4.417   8.078  1.1882  1.1632  0.7066
  135OSM   H13G14709   1.234   4.432   8.006 -0.4089 -1.3003  0.7490
  135OSM   C14F14710   1.234   4.472   8.206 -0.0475 -0.0539 -0.0610
  135OSM   H14F14711   1.143   4.536   8.209 -0.4284 -0.5072 -1.3881
  135OSM   H14G14712   1.283   4.526   8.289 -0.7953 -1.8363  1.5908
  135OSM   C15F14713   1.204   4.324   8.255 -0.5390 -0.7183 -0.1471
  135OSM   H15F14714   1.293   4.258   8.266  0.0278  0.4105  2.4455
  135OSM   H15G14715   1.137   4.270   8.185 -2.4267 -1.0094  1.8516
  135OSM   C16F14716   1.148   4.322   8.400  0.1897  0.2538  0.8827
  135OSM   H16F14717   1.059   4.386   8.417 -0.9161 -1.2829  0.9012
  135OSM   H16G14718   1.228   4.352   8.471  1.9817  0.1202 -1.0071
  135OSM   C17F14719   1.117   4.181   8.457  0.2482 -0.0046  0.7455
  135OSM   H17F14720   1.205   4.116   8.440 -0.5223 -0.6533 -0.8465
  135OSM   H17G14721   1.023   4.140   8.415 -0.5555  2.6713 -0.1635
  135OSM   C18F14722   1.108   4.180   8.611  0.3010 -0.3255  0.5239
  135OSM   H18F14723   1.008   4.219   8.639 -0.1114  0.1114 -1.5067
  135OSM   H18G14724   1.190   4.242   8.653  3.1162 -3.4669 -0.0916
  135OSM   H18H14725   1.118   4.074   8.644 -1.8358 -0.2768  1.4227
  136OSM      N14726   5.843   4.738   5.791  0.5037  0.1482 -0.4211
  136OSM    C1514727   5.813   4.849   5.884  0.2519 -0.1834 -0.2897
  136OSM   H15A14728   5.712   4.885   5.889  0.5529  0.4910  1.7058
  136OSM   H15B14729   5.870   4.939   5.866  2.2720 -1.3197  0.1833
  136OSM   H15C14730   5.841   4.816   5.983 -0.0890 -0.5860 -0.3272
  136OSM    C1414731   5.731   4.636   5.789  0.6192 -0.2117  0.7737
  136OSM   H14A14732   5.695   4.600   5.884  2.3446  0.4008  1.6846
  136OSM   H14B14733   5.756   4.547   5.732  0.6123 -1.0025  1.9905
  136OSM   H14C14734   5.641   4.668   5.739 -0.7014 -4.4383  0.2511
  136OSM    C1314735   5.856   4.796   5.651  0.0176 -0.3420  0.4338
  136OSM   H13A14736   5.941   4.859   5.633 -0.8669  0.3303 -1.5063
  136OSM   H13B14737   5.773   4.863   5.633 -0.2319 -0.9781 -0.8452
  136OSM   H13C14738   5.855   4.716   5.578  1.6438  0.4696 -0.4904
  136OSM    C1214739   5.968   4.667   5.836  0.3620 -0.5332  0.0664
  136OSM   H12A14740   6.049   4.738   5.822 -0.2394  0.7472  2.8558
  136OSM   H12B14741   5.992   4.586   5.768  0.1764 -0.6352  0.1254
  136OSM    C1114742   5.975   4.626   5.979  0.0415 -0.8660  0.2624
  136OSM   H11A14743   5.876   4.595   6.020  0.6492 -0.4100  2.1135
  136OSM   H11B14744   6.000   4.714   6.042 -1.1295 -0.6985  0.5174
  136OSM      P14745   6.211   4.490   6.009 -0.1576  0.2879 -0.1402
  136OSM    O1314746   6.239   4.367   6.081 -0.3273 -1.3062 -0.1058
  136OSM    O1414747   6.270   4.494   5.878 -0.2046  0.4589 -0.0498
  136OSM    O1114748   6.262   4.615   6.090 -0.1510  0.2349 -1.0117
  136OSM    O1214749   6.057   4.507   5.991 -0.4058 -0.0346  0.2330
  136OSM    C1S14750   6.233   4.622   6.230  0.5299 -0.1755 -0.0720
  136OSM    H1S14751   6.289   4.542   6.282 -1.2898 -1.4622 -0.0514
  136OSM    H1T14752   6.128   4.593   6.250  0.0897 -0.3905 -2.5300
  136OSM     NF14753   6.255   4.760   6.440 -0.5657  0.5126  0.1830
  136OSM    HNF14754   6.191   4.820   6.488 -2.7515 -1.8234  0.3728
  136OSM    C2S14755   6.257   4.761   6.293 -0.2104  0.0047 -0.1247
  136OSM    H2S14756   6.357   4.800   6.264 -1.3619  4.1478  1.0824
  136OSM    C3S14757   6.153   4.857   6.237  0.4396  0.8231 -0.4151
  136OSM    H3S14758   6.053   4.808   6.225 -1.9877  5.3704  0.1728
  136OSM     O314759   6.177   4.889   6.100 -0.5517  0.0840 -0.2856
  136OSM    HO314760   6.226   4.813   6.069  0.7832  1.1149 -0.7351
  136OSM    C4S14761   6.150   4.988   6.307  0.4346 -0.4544  0.6395
  136OSM    H4S14762   6.250   5.033   6.318  0.8449 -1.4083  0.8746
  136OSM    C5S14763   6.061   5.027   6.398  0.6731 -0.5568 -0.4619
  136OSM    H5S14764   5.975   4.960   6.411 -0.2337  0.5381 -0.7785
  136OSM    C6S14765   6.067   5.153   6.481  0.6646  0.1023  0.4590
  136OSM    H6S14766   5.999   5.232   6.442  0.6658 -0.4355 -0.6558
  136OSM    H6T14767   6.167   5.201   6.473  1.7029 -1.4269  3.4121
  136OSM    C7S14768   6.034   5.124   6.631  0.0766 -0.1559  0.0285
  136OSM    H7S14769   6.045   5.224   6.679  1.9849  0.8192 -2.2919
  136OSM    H7T14770   6.111   5.057   6.673  0.3020  2.0342  3.2444
  136OSM    C8S14771   5.897   5.064   6.667  0.5134  0.1295  0.3368
  136OSM    H8S14772   5.925   4.956   6.664  0.1506  0.0720 -2.8853
  136OSM    H8T14773   5.828   5.086   6.583 -0.0832 -0.1427  0.7599
  136OSM    C9S14774   5.826   5.088   6.803 -0.3389 -0.7343  0.1730
  136OSM    H9S14775   5.897   5.077   6.888 -1.0748 -2.3586  0.6007
  136OSM    H9T14776   5.745   5.015   6.821 -1.7861  1.1953  1.7716
  136OSM   C10S14777   5.790   5.237   6.808 -0.4348  0.1355 -0.0721
  136OSM   H10S14778   5.717   5.256   6.726 -0.9482  1.0705  0.5945
  136OSM   H10T14779   5.880   5.300   6.791 -0.8444  0.8631  0.4329
  136OSM   C11S14780   5.734   5.281   6.950  0.3174  0.6952 -0.4894
  136OSM   H11S14781   5.641   5.223   6.965 -0.3211  1.6490 -0.7469
  136OSM   H11T14782   5.688   5.381   6.963 -1.6192 -0.2835  0.4013
  136OSM   C12S14783   5.831   5.263   7.070 -0.3347  0.1378  0.0155
  136OSM   H12S14784   5.933   5.286   7.032  0.0893  1.1563  1.7224
  136OSM   H12T14785   5.833   5.160   7.110  1.8968  0.6471  1.2870
  136OSM   C13S14786   5.799   5.355   7.193 -0.1692  0.4525 -0.3165
  136OSM   H13S14787   5.692   5.362   7.220 -0.1962  1.6235 -0.6870
  136OSM   H13T14788   5.826   5.459   7.163  1.5664  0.1861  0.2508
  136OSM   C14S14789   5.902   5.326   7.309 -0.1841  0.7033  0.4373
  136OSM   H14S14790   5.998   5.335   7.253 -2.4084 -1.4131 -3.9602
  136OSM   H14T14791   5.893   5.222   7.348  1.6309  0.1560 -0.5388
  136OSM   C15S14792   5.903   5.432   7.423 -0.0429 -0.0692  0.2270
  136OSM   H15S14793   5.807   5.424   7.478 -0.3100  2.2255  0.1633
  136OSM   H15T14794   5.908   5.533   7.376  0.9984  0.4616  1.4232
  136OSM   C16S14795   6.028   5.415   7.514  0.2253 -0.2490  0.0162
  136OSM   H16S14796   6.123   5.391   7.460  1.1403 -2.0325  2.3554
  136OSM   H16T14797   6.017   5.327   7.581  0.6675  0.5311  1.1084
  136OSM   C17S14798   6.054   5.543   7.591 -0.4660 -0.3987 -0.0837
  136OSM   H17S14799   5.997   5.626   7.546 -0.1028 -0.7415 -1.1843
  136OSM   H17T14800   6.159   5.578   7.578 -1.8699  4.3609  0.3902
  136OSM   C18S14801   6.019   5.532   7.738 -0.7222  0.8889  0.7210
  136OSM   H18S14802   6.051   5.623   7.793  1.2516  0.4736  0.3156
  136OSM   H18T14803   6.070   5.443   7.782 -1.0378  1.0227  1.3602
  136OSM   H18U14804   5.912   5.521   7.764 -0.7992  1.1542  0.5069
  136OSM    C1F14805   6.362   4.700   6.499  0.3017  0.0033 -0.9559
  136OSM     OF14806   6.452   4.651   6.435 -0.3232 -0.6625 -0.6680
  136OSM    C2F14807   6.362   4.707   6.647  0.1879  0.2681 -0.1921
  136OSM    H2F14808   6.287   4.644   6.699 -0.3183  0.7600 -0.3273
  136OSM    H2G14809   6.340   4.815   6.664 -0.4425  0.2583 -0.9279
  136OSM    C3F14810   6.501   4.676   6.707 -0.4381 -0.1165  0.2596
  136OSM    H3F14811   6.583   4.732   6.657  0.9661 -1.9673  0.4411
  136OSM    H3G14812   6.502   4.566   6.689 -0.2864  0.0400 -0.7141
  136OSM    C4F14813   6.528   4.696   6.862  0.2946  0.2669  0.5539
  136OSM    H4F14814   6.587   4.789   6.876  0.7000  0.4331 -2.0138
  136OSM    H4G14815   6.590   4.613   6.900 -0.3018  0.0184  0.9808
  136OSM    C5F14816   6.407   4.689   6.957 -1.0715  0.3337 -0.0996
  136OSM    H5F14817   6.355   4.591   6.945  1.0391 -0.6372 -1.6467
  136OSM    H5G14818   6.333   4.770   6.940 -1.5289  0.4579  2.2455
  136OSM    C6F14819   6.460   4.696   7.102 -0.5252  0.0544 -0.0757
  136OSM    H6F14820   6.518   4.789   7.121 -0.9088  0.5205 -1.1423
  136OSM    H6G14821   6.540   4.620   7.110 -0.5154 -0.0214 -0.8655
  136OSM    C7F14822   6.364   4.683   7.213  0.0951  0.2425 -0.0480
  136OSM    H7F14823   6.327   4.578   7.221 -0.5365  0.5718  1.5264
  136OSM    H7G14824   6.285   4.755   7.184 -2.6067 -1.5255  2.5371
  136OSM    C8F14825   6.405   4.725   7.352  0.5447  0.3878  0.1470
  136OSM    H8F14826   6.456   4.824   7.347  0.0487  0.6083 -0.7361
  136OSM    H8G14827   6.474   4.647   7.388 -0.3038 -1.0432 -1.2748
  136OSM    C9F14828   6.289   4.736   7.447 -0.0011  0.0855 -0.6482
  136OSM    H9F14829   6.195   4.730   7.390 -2.4968 -0.2351  3.2884
  136OSM   C10F14830   6.283   4.753   7.584  0.2426  0.5688 -0.0144
  136OSM   H10F14831   6.188   4.770   7.637 -0.9466 -4.5814 -0.2476
  136OSM   C11F14832   6.408   4.760   7.672  0.0497  0.3781  0.2841
  136OSM   H11F14833   6.501   4.735   7.617 -1.2847 -0.1486 -1.7971
  136OSM   H11G14834   6.406   4.698   7.764  0.4816 -0.3197 -0.1743
  136OSM   C12F14835   6.419   4.907   7.723 -0.0310  0.0983  0.0015
  136OSM   H12F14836   6.412   4.977   7.638  2.8679 -1.5390 -1.6616
  136OSM   H12G14837   6.524   4.909   7.759  0.8836  3.2963 -2.6624
  136OSM   C13F14838   6.325   4.950   7.843 -0.3454  0.2239  0.1999
  136OSM   H13F14839   6.333   4.864   7.913  0.8945 -1.2415 -1.6966
  136OSM   H13G14840   6.221   4.969   7.809 -1.2278 -2.2382  1.3273
  136OSM   C14F14841   6.394   5.071   7.908  0.9223 -0.3971 -0.5953
  136OSM   H14F14842   6.393   5.149   7.830 -2.1196  0.0444 -0.1952
  136OSM   H14G14843   6.500   5.047   7.930  1.2204 -1.2097 -2.8186
  136OSM   C15F14844   6.318   5.108   8.038 -0.0943 -0.6207  0.6701
  136OSM   H15F14845   6.209   5.119   8.020 -0.3545  1.6604  3.3025
  136OSM   H15G14846   6.346   5.212   8.065  2.1876 -1.4237  1.5272
  136OSM   C16F14847   6.342   5.003   8.153  1.2912  0.0871 -0.1370
  136OSM   H16F14848   6.452   4.988   8.152  1.1480 -0.9571 -2.0973
  136OSM   H16G14849   6.296   4.907   8.120  2.4057 -0.2902 -0.6327
  136OSM   C17F14850   6.297   5.051   8.291  1.0301  0.0019 -0.2667
  136OSM   H17F14851   6.193   5.089   8.287  0.1187 -2.1226  1.7977
  136OSM   H17G14852   6.353   5.143   8.317  0.5765  0.3971 -0.6693
  136OSM   C18F14853   6.293   4.937   8.392  0.0710  0.0747  0.2685
  136OSM   H18F14854   6.242   4.849   8.348  3.0633 -0.5404 -2.1560
  136OSM   H18G14855   6.253   4.969   8.490 -1.6871  1.4054 -0.8487
  136OSM   H18H14856   6.397   4.901   8.401  0.2513  0.9929  2.0352
  137OSM      N14857   2.101   2.665   6.201  0.6261  0.0222 -0.0145
  137OSM    C1514858   1.948   2.665   6.173  0.6701 -0.1012 -0.0451
  137OSM   H15A14859   1.904   2.567   6.186  1.8793 -0.2886  3.2874
  137OSM   H15B14860   1.932   2.715   6.079  0.3065  1.7548  0.9819
  137OSM   H15C14861   1.895   2.730   6.241  1.6808  0.2431  0.4352
  137OSM    C1414862   2.179   2.681   6.075  0.4365  0.2639  0.6420
  137OSM   H14A14863   2.171   2.584   6.030 -2.1723  1.2059 -1.0583
  137OSM   H14B14864   2.283   2.706   6.090  0.8068 -1.1474  0.4609
  137OSM   H14C14865   2.148   2.761   6.009 -1.1485  0.4467  1.5765
  137OSM    C1314866   2.131   2.785   6.287 -0.2244 -0.2197 -0.1341
  137OSM   H13A14867   2.103   2.880   6.242  0.1681 -0.7158 -1.4712
  137OSM   H13B14868   2.237   2.781   6.304 -0.5162 -1.6339  1.4383
  137OSM   H13C14869   2.084   2.767   6.382 -1.6588  0.5786 -0.6800
  137OSM    C1214870   2.152   2.532   6.256  0.8553 -0.2631 -0.3228
  137OSM   H12A14871   2.252   2.565   6.282 -0.5175  2.2135  2.0207
  137OSM   H12B14872   2.137   2.456   6.181 -0.9702 -1.0505  0.8118
  137OSM    C1114873   2.080   2.475   6.379  0.1477 -0.2657  0.1808
  137OSM   H11A14874   2.118   2.373   6.397  1.4168  0.2054  0.1797
  137OSM   H11B14875   1.970   2.473   6.360  0.2981  0.7811 -0.9059
  137OSM      P14876   2.237   2.536   6.572 -0.3019 -0.2870  0.0862
  137OSM    O1314877   2.242   2.398   6.625  0.0024  0.1322  0.2220
  137OSM    O1414878   2.353   2.577   6.496 -0.5923  0.0203  0.3621
  137OSM    O1114879   2.237   2.637   6.693  0.0149  0.4216 -0.0984
  137OSM    O1214880   2.103   2.564   6.492  0.1682  0.6559  0.1796
  137OSM    C1S14881   2.246   2.776   6.684 -0.0924 -0.4163 -0.2718
  137OSM    H1S14882   2.148   2.817   6.651 -1.4739 -3.6555 -0.3808
  137OSM    H1T14883   2.326   2.803   6.612  1.1499  2.0231  1.9402
  137OSM     NF14884   2.271   2.986   6.819  0.2107  0.5060 -0.3847
  137OSM    HNF14885   2.357   3.026   6.849 -0.2127  0.8636  0.3612
  137OSM    C2S14886   2.268   2.837   6.831 -0.3331  0.7516 -0.3340
  137OSM    H2S14887   2.177   2.812   6.889  1.2868 -0.3015  1.8357
  137OSM    C3S14888   2.407   2.792   6.899 -0.0823  0.5047  0.6527
  137OSM    H3S14889   2.494   2.823   6.838  0.2115 -1.3676  0.1015
  137OSM     O314890   2.415   2.649   6.897  0.1598 -0.5602  0.0742
  137OSM    HO314891   2.343   2.632   6.836  1.2975 -1.4210 -1.0528
  137OSM    C4S14892   2.417   2.841   7.041  0.2387 -0.8023  0.3629
  137OSM    H4S14893   2.332   2.802   7.099 -0.2343 -0.3378 -0.0114
  137OSM    C5S14894   2.504   2.930   7.090  0.5461 -0.7738 -0.3483
  137OSM    H5S14895   2.572   2.984   7.023  2.6418 -1.5654  1.1093
  137OSM    C6S14896   2.498   2.986   7.231  0.0160 -0.2557  0.5749
  137OSM    H6S14897   2.469   3.093   7.227  0.2941 -0.2327 -1.6312
  137OSM    H6T14898   2.606   2.996   7.258  0.1848 -1.3618  0.3654
  137OSM    C7S14899   2.427   2.900   7.336  0.8873  0.5831 -0.2906
  137OSM    H7S14900   2.475   2.800   7.328 -0.7065 -0.3409  1.2558
  137OSM    H7T14901   2.319   2.886   7.313  1.1693 -1.5493 -0.4653
  137OSM    C8S14902   2.445   2.951   7.481 -0.1471 -0.0727  0.3409
  137OSM    H8S14903   2.555   2.966   7.488  0.3039 -3.0835  0.2026
  137OSM    H8T14904   2.422   2.879   7.562  0.2271 -1.4429 -0.7536
  137OSM    C9S14905   2.382   3.084   7.509 -0.2445 -0.1729  0.3188
  137OSM    H9S14906   2.274   3.091   7.485 -0.1336  0.5821  0.0129
  137OSM    H9T14907   2.423   3.163   7.443 -1.9447  0.9084  0.5193
  137OSM   C10S14908   2.405   3.124   7.654 -0.4910  0.2715 -0.8484
  137OSM   H10S14909   2.512   3.108   7.678 -0.1798  0.1935 -2.2971
  137OSM   H10T14910   2.351   3.047   7.714  2.5006  2.2049  4.7064
  137OSM   C11S14911   2.361   3.268   7.679  0.1213 -0.2521 -0.2661
  137OSM   H11S14912   2.259   3.274   7.636 -0.9776  0.0843  2.3317
  137OSM   H11T14913   2.434   3.338   7.634  2.2054  0.5902  4.1499
  137OSM   C12S14914   2.354   3.302   7.828  0.0181 -0.2840  0.1508
  137OSM   H12S14915   2.451   3.284   7.880 -0.8553  0.8752  2.2536
  137OSM   H12T14916   2.283   3.237   7.882 -0.8131  0.4305 -0.0698
  137OSM   C13S14917   2.315   3.443   7.865 -0.6438 -0.1179  0.3310
  137OSM   H13S14918   2.215   3.472   7.828 -0.7638 -1.0270 -0.0646
  137OSM   H13T14919   2.383   3.517   7.817  0.4920 -1.2303  0.1782
  137OSM   C14S14920   2.334   3.469   8.012 -0.2700 -0.5170 -0.3396
  137OSM   H14S14921   2.441   3.463   8.041 -0.3408  1.2571  0.2919
  137OSM   H14T14922   2.274   3.401   8.076 -1.0193  0.3791 -0.0881
  137OSM   C15S14923   2.291   3.615   8.048  0.0777 -0.3993  0.2889
  137OSM   H15S14924   2.180   3.618   8.034  0.1580  2.7169 -0.0424
  137OSM   H15T14925   2.353   3.680   7.983 -1.3015  0.6251 -0.0377
  137OSM   C16S14926   2.324   3.661   8.189 -0.1588  0.7320 -0.2326
  137OSM   H16S14927   2.280   3.578   8.249  0.3082  1.2947  0.8937
  137OSM   H16T14928   2.260   3.748   8.212  0.5444  1.5719 -1.3926
  137OSM   C17S14929   2.474   3.680   8.226  0.4358 -0.6702 -0.0167
  137OSM   H17S14930   2.506   3.781   8.194  2.2427 -1.3283 -0.3635
  137OSM   H17T14931   2.539   3.604   8.176  2.0351 -0.0358  1.0597
  137OSM   C18S14932   2.503   3.692   8.378  0.2033 -0.3660  0.2005
  137OSM   H18S14933   2.427   3.757   8.427  0.0914  0.0790 -0.5523
  137OSM   H18T14934   2.605   3.729   8.401 -0.1186  0.5825  0.1463
  137OSM   H18U14935   2.504   3.592   8.425 -0.3239 -0.3185  0.3192
  137OSM    C1F14936   2.171   3.065   6.785  0.6108  0.1099 -0.4189
  137OSM     OF14937   2.069   3.019   6.737  0.0713 -0.1200 -0.4421
  137OSM    C2F14938   2.189   3.219   6.786 -0.3306 -0.2103 -0.1012
  137OSM    H2F14939   2.095   3.277   6.797 -0.0629 -0.1155  1.8874
  137OSM    H2G14940   2.228   3.246   6.685 -0.8815  0.7332 -0.0587
  137OSM    C3F14941   2.303   3.262   6.882  0.1965 -0.1711  0.5286
  137OSM    H3F14942   2.402   3.213   6.872  1.0376  1.7844 -1.2472
  137OSM    H3G14943   2.272   3.250   6.988  0.6923  1.3606  0.8569
  137OSM    C4F14944   2.344   3.408   6.862  0.6388  0.6513  0.4135
  137OSM    H4F14945   2.256   3.473   6.880 -0.2239 -0.3890 -0.0091
  137OSM    H4G14946   2.362   3.411   6.753  0.7445  0.9614  0.4403
  137OSM    C5F14947   2.463   3.462   6.939 -0.5066  0.3835  0.1413
  137OSM    H5F14948   2.464   3.573   6.937  1.7893  0.3593 -1.9842
  137OSM    H5G14949   2.552   3.419   6.889 -0.0464 -0.5503  1.7118
  137OSM    C6F14950   2.439   3.430   7.088 -0.0022 -0.2097  0.6908
  137OSM    H6F14951   2.444   3.320   7.101 -1.5467 -0.8110 -3.2561
  137OSM    H6G14952   2.334   3.464   7.103  0.2714  0.3807  1.2906
  137OSM    C7F14953   2.548   3.476   7.178  0.0249  0.2853 -0.0138
  137OSM    H7F14954   2.571   3.585   7.166  1.8506 -0.3334 -2.6003
  137OSM    H7G14955   2.636   3.416   7.147 -0.2924 -0.9607  1.4506
  137OSM    C8F14956   2.508   3.430   7.327  0.3462 -0.5592 -0.4839
  137OSM    H8F14957   2.588   3.470   7.393 -1.4702  0.6884  1.0375
  137OSM    H8G14958   2.509   3.319   7.332 -0.2563 -0.6498 -2.2677
  137OSM    C9F14959   2.370   3.482   7.374  0.4776 -1.0143 -0.1971
  137OSM    H9F14960   2.293   3.403   7.380 -0.0287 -0.6816 -2.0978
  137OSM   C10F14961   2.345   3.608   7.404 -0.5859 -0.7350 -0.7330
  137OSM   H10F14962   2.243   3.624   7.443 -0.8420 -0.4500 -1.5091
  137OSM   C11F14963   2.424   3.732   7.390  0.1033 -0.4555  0.2265
  137OSM   H11F14964   2.381   3.803   7.316 -1.6184  1.8644  3.3459
  137OSM   H11G14965   2.524   3.712   7.347 -0.8188 -1.2249 -1.6642
  137OSM   C12F14966   2.422   3.821   7.515  0.5429  1.2537 -0.2610
  137OSM   H12F14967   2.316   3.850   7.531 -0.3560 -1.6114 -0.7098
  137OSM   H12G14968   2.481   3.913   7.498  0.9847  1.1133  0.5018
  137OSM   C13F14969   2.470   3.756   7.647 -0.2596 -0.2246 -0.0697
  137OSM   H13F14970   2.559   3.694   7.623 -0.6608 -1.4095  1.3651
  137OSM   H13G14971   2.395   3.678   7.672 -1.1092  1.4413  2.8350
  137OSM   C14F14972   2.504   3.850   7.762 -0.5550 -0.7615 -0.0012
  137OSM   H14F14973   2.568   3.928   7.717 -0.6843 -1.4242 -1.3469
  137OSM   H14G14974   2.564   3.808   7.845  0.3958 -0.8637 -0.7372
  137OSM   C15F14975   2.381   3.928   7.811  0.0401  0.4505 -0.3343
  137OSM   H15F14976   2.323   3.862   7.879  1.6201 -1.6878 -1.0294
  137OSM   H15G14977   2.314   3.961   7.728  0.6560 -2.3861 -2.0051
  137OSM   C16F14978   2.414   4.067   7.882  0.3193  0.7643  0.3207
  137OSM   H16F14979   2.319   4.119   7.906  0.4443  1.1228  0.0561
  137OSM   H16G14980   2.481   4.137   7.827  1.3318 -0.5206 -0.0892
  137OSM   C17F14981   2.470   4.028   8.018 -0.7338  0.1121  0.4367
  137OSM   H17F14982   2.568   3.976   8.008 -0.2430  0.8600  1.1988
  137OSM   H17G14983   2.407   3.958   8.076 -0.6865 -0.8508 -0.6649
  137OSM   C18F14984   2.494   4.146   8.114  0.7482 -0.2621  0.5845
  137OSM   H18F14985   2.570   4.205   8.058 -1.2405  0.4130 -1.4525
  137OSM   H18G14986   2.533   4.115   8.214  0.1403  0.1006  0.9378
  137OSM   H18H14987   2.403   4.210   8.111  2.3700  2.0121 -1.6619
  138OSM      N14988   3.353   4.725   6.028  0.0698  0.1089  0.2188
  138OSM    C1514989   3.295   4.606   6.098 -0.2204 -0.0907  0.1160
  138OSM   H15A14990   3.294   4.521   6.032  4.1919  0.4134 -0.8100
  138OSM   H15B14991   3.198   4.632   6.136 -0.0893  1.6572 -0.6745
  138OSM   H15C14992   3.350   4.568   6.183  1.4402 -0.3947 -1.0667
  138OSM    C1414993   3.475   4.677   5.950  0.1291 -0.0565 -0.1323
  138OSM   H14A14994   3.550   4.645   6.020  0.4919  0.4649 -0.2722
  138OSM   H14B14995   3.503   4.752   5.876 -0.5284 -0.0111 -0.3382
  138OSM   H14C14996   3.448   4.598   5.881  0.6579  0.6225 -1.1441
  138OSM    C1314997   3.260   4.782   5.923  0.2083 -0.5109  0.2023
  138OSM   H13A14998   3.295   4.865   5.865 -2.6158 -0.6892 -1.8844
  138OSM   H13B14999   3.174   4.830   5.968  0.2503 -1.2386  1.0946
  138OSM   H13C15000   3.214   4.706   5.861  1.6865 -1.2960  0.0529
  138OSM    C1215001   3.397   4.837   6.122  0.2012  0.1606 -0.3763
  138OSM   H12A15002   3.454   4.907   6.063  2.6075 -3.0635 -2.0307
  138OSM   H12B15003   3.459   4.790   6.197 -0.6430 -1.3720 -0.6022
  138OSM    C1115004   3.283   4.913   6.199  0.4494  0.2495  0.2063
  138OSM   H11A15005   3.337   4.977   6.272  0.7900  1.1193 -0.7920
  138OSM   H11B15006   3.221   4.829   6.238  1.2434 -0.5741 -0.2761
  138OSM      P15007   3.200   5.148   6.103 -0.1175  0.2710  0.3197
  138OSM    O1315008   3.320   5.202   6.038 -0.3838 -0.1969  0.1862
  138OSM    O1415009   3.069   5.188   6.049 -0.1839  0.2706  0.1787
  138OSM    O1115010   3.214   5.195   6.254  0.2264 -0.6303 -0.7454
  138OSM    O1215011   3.202   4.985   6.107 -0.1623 -0.2840  0.4624
  138OSM    C1S15012   3.112   5.154   6.351  0.6826  0.0811 -0.1521
  138OSM    H1S15013   3.129   5.048   6.380 -2.9007 -0.8146 -0.9954
  138OSM    H1T15014   3.007   5.166   6.316 -0.4454 -0.5761  2.8743
  138OSM     NF15015   3.026   5.184   6.579 -0.2826  0.0790 -0.0344
  138OSM    HNF15016   2.935   5.224   6.583 -0.5256 -0.5273  0.4954
  138OSM    C2S15017   3.117   5.243   6.479 -0.8214  0.0449  0.2559
  138OSM    H2S15018   3.222   5.234   6.514 -0.9896 -2.4640  0.2012
  138OSM    C3S15019   3.082   5.391   6.443 -0.0162  0.0530 -0.0796
  138OSM    H3S15020   2.978   5.387   6.404 -0.7103  0.2420  1.7019
  138OSM     O315021   3.172   5.442   6.343 -0.4936 -0.0066 -0.0301
  138OSM    HO315022   3.215   5.362   6.312  1.9766  1.3439 -0.2577
  138OSM    C4S15023   3.081   5.477   6.568  0.4811  0.4329 -0.3812
  138OSM    H4S15024   2.991   5.479   6.631  1.4928 -1.0398  1.1857
  138OSM    C5S15025   3.187   5.548   6.621  0.5047  0.3729  0.5010
  138OSM    H5S15026   3.283   5.555   6.569 -0.5671  1.9063 -1.3496
  138OSM    C6S15027   3.177   5.621   6.753  0.0281 -0.0503 -0.2680
  138OSM    H6S15028   3.180   5.729   6.729  2.8772 -0.2940 -1.2377
  138OSM    H6T15029   3.275   5.598   6.802  0.5795  2.5954 -0.0803
  138OSM    C7S15030   3.066   5.591   6.858 -0.8624  0.2684 -0.6408
  138OSM    H7S15031   2.981   5.641   6.808 -0.0064 -0.8660 -3.3763
  138OSM    H7T15032   3.103   5.642   6.949  3.0251 -1.3682 -1.1856
  138OSM    C8S15033   3.030   5.452   6.901 -0.4085  0.2903  0.0452
  138OSM    H8S15034   3.079   5.391   6.822 -0.1393  1.3255 -0.6072
  138OSM    H8T15035   2.924   5.419   6.898 -0.2488 -0.1512 -1.4760
  138OSM    C9S15036   3.086   5.414   7.040  0.1853  0.0910 -0.3019
  138OSM    H9S15037   3.195   5.434   7.037 -0.1481  1.8753 -1.3674
  138OSM    H9T15038   3.086   5.304   7.055 -0.6839  0.1704  0.2964
  138OSM   C10S15039   3.030   5.489   7.157  0.0778  0.2843  0.4999
  138OSM   H10S15040   2.920   5.477   7.150  0.1529  0.5505 -1.2365
  138OSM   H10T15041   3.053   5.596   7.140  3.2304 -0.4988 -0.5700
  138OSM   C11S15042   3.076   5.433   7.291 -0.2164 -0.2028 -0.1939
  138OSM   H11S15043   3.187   5.423   7.298 -0.1834  0.9932  1.1597
  138OSM   H11T15044   3.049   5.325   7.295 -0.5873 -0.2380 -2.6371
  138OSM   C12S15045   3.028   5.503   7.413 -0.2705 -0.6867 -0.0966
  138OSM   H12S15046   2.918   5.515   7.430 -0.0400 -0.1297  1.0521
  138OSM   H12T15047   3.070   5.605   7.420 -1.4972 -0.1955  0.3060
  138OSM   C13S15048   3.079   5.428   7.537 -0.0259 -0.5878 -0.0639
  138OSM   H13S15049   3.190   5.439   7.529 -0.4373  2.0411 -2.9679
  138OSM   H13T15050   3.067   5.317   7.544 -4.8087 -0.0428  1.7871
  138OSM   C14S15051   3.036   5.484   7.675 -0.7146  0.8497 -0.2657
  138OSM   H14S15052   3.029   5.594   7.665 -0.6372  0.7411 -1.5440
  138OSM   H14T15053   3.116   5.461   7.749 -0.0871  1.6094 -0.6964
  138OSM   C15S15054   2.903   5.421   7.720  0.5936  0.0105 -0.2575
  138OSM   H15S15055   2.915   5.311   7.709 -1.0791 -0.2170  0.0593
  138OSM   H15T15056   2.822   5.464   7.657  0.7612  1.9877  0.8185
  138OSM   C16S15057   2.860   5.444   7.870 -0.3623 -0.4220 -0.2296
  138OSM   H16S15058   2.874   5.554   7.884 -1.3050 -0.3766  0.4340
  138OSM   H16T15059   2.924   5.381   7.935  1.9065  1.9863 -0.0224
  138OSM   C17S15060   2.703   5.423   7.878  0.0929 -0.0158  0.3385
  138OSM   H17S15061   2.690   5.313   7.866  1.4172 -0.4325  2.4409
  138OSM   H17T15062   2.648   5.468   7.793  0.5300 -1.7995 -0.9263
  138OSM   C18S15063   2.647   5.474   8.016  0.1816 -0.1805  0.0862
  138OSM   H18S15064   2.537   5.469   8.028 -0.0708  0.6933 -1.6227
  138OSM   H18T15065   2.672   5.582   8.026  1.8205 -0.7055  2.1079
  138OSM   H18U15066   2.690   5.416   8.100 -2.0347 -1.0886  0.6175
  138OSM    C1F15067   3.061   5.073   6.651 -0.3178  0.4822 -0.0626
  138OSM     OF15068   3.177   5.030   6.637  0.0351 -0.2788 -0.9030
  138OSM    C2F15069   2.962   5.007   6.739 -0.1902 -0.0430  0.7825
  138OSM    H2F15070   2.884   4.965   6.672  1.1682  1.1349 -1.6172
  138OSM    H2G15071   2.908   5.084   6.798 -0.0035 -0.1947  1.1511
  138OSM    C3F15072   3.015   4.903   6.844  0.4063 -0.2385 -0.0668
  138OSM    H3F15073   3.076   4.819   6.806 -0.3895 -0.6810 -0.3713
  138OSM    H3G15074   2.929   4.848   6.888  0.8464 -1.4120 -0.6649
  138OSM    C4F15075   3.077   4.981   6.961 -0.4963  0.1195 -0.5594
  138OSM    H4F15076   3.005   5.054   7.004 -2.1850 -0.9083 -1.5649
  138OSM    H4G15077   3.166   5.028   6.916 -0.7525 -1.5393 -2.9276
  138OSM    C5F15078   3.131   4.880   7.077 -0.8497 -0.9755 -0.1308
  138OSM    H5F15079   3.203   4.809   7.032  1.1901  2.6213 -2.8655
  138OSM    H5G15080   3.046   4.819   7.113  0.2410 -1.9633  0.7898
  138OSM    C6F15081   3.206   4.948   7.193 -0.4197  0.5550 -0.0439
  138OSM    H6F15082   3.288   5.005   7.145  0.0654 -0.3178 -0.2672
  138OSM    H6G15083   3.245   4.857   7.242 -1.2304  1.8180  3.0614
  138OSM    C7F15084   3.112   5.019   7.290 -0.0424  0.4959 -0.0442
  138OSM    H7F15085   3.043   4.942   7.330  0.3250 -0.2315 -0.7976
  138OSM    H7G15086   3.054   5.091   7.228 -3.2459 -0.5729  1.6023
  138OSM    C8F15087   3.177   5.092   7.409 -0.0020 -0.0774 -1.2492
  138OSM    H8F15088   3.096   5.138   7.470  1.7459 -0.6071  1.5530
  138OSM    H8G15089   3.224   5.189   7.380  2.4759 -1.5230 -2.1478
  138OSM    C9F15090   3.257   4.990   7.491 -0.0231 -0.0647  0.6977
  138OSM    H9F15091   3.321   4.926   7.429 -0.2131  0.7293 -0.3356
  138OSM   C10F15092   3.249   4.957   7.618 -0.4231  0.4120  0.1106
  138OSM   H10F15093   3.295   4.861   7.645  0.7331  1.3076  1.3668
  138OSM   C11F15094   3.160   5.015   7.723  0.1242  0.5345  0.1269
  138OSM   H11F15095   3.103   4.936   7.775  1.8911 -0.4883  0.5364
  138OSM   H11G15096   3.093   5.095   7.685 -0.6573 -0.2403 -0.1550
  138OSM   C12F15097   3.246   5.081   7.832 -0.1738  0.1688 -0.5268
  138OSM   H12F15098   3.197   5.170   7.877  0.8597  0.8283 -0.6724
  138OSM   H12G15099   3.335   5.128   7.783 -0.7549 -0.0023 -1.7567
  138OSM   C13F15100   3.281   4.981   7.947  0.3614  0.0516  0.3060
  138OSM   H13F15101   3.327   4.888   7.908  0.5424  0.6335 -0.8856
  138OSM   H13G15102   3.185   4.955   7.997 -0.9129  0.3902 -1.9059
  138OSM   C14F15103   3.364   5.051   8.051  0.5330 -0.2360  0.4380
  138OSM   H14F15104   3.301   5.124   8.106  0.1419 -0.7338  0.6596
  138OSM   H14G15105   3.461   5.083   8.008  0.1412  1.1012  0.5200
  138OSM   C15F15106   3.409   4.960   8.163 -0.5011 -0.7541 -0.3041
  138OSM   H15F15107   3.488   5.014   8.218  0.5168 -1.5538 -0.9633
  138OSM   H15G15108   3.451   4.863   8.128  0.3832 -0.1885 -0.8129
  138OSM   C16F15109   3.292   4.923   8.269  0.8287 -0.7305 -0.4586
  138OSM   H16F15110   3.256   4.822   8.242 -2.2516  0.7042 -1.9186
  138OSM   H16G15111   3.210   4.997   8.258  0.2597 -1.2284  0.4569
  138OSM   C17F15112   3.342   4.914   8.412  0.4501  0.6317 -0.2077
  138OSM   H17F15113   3.250   4.898   8.472  0.5143 -1.0275 -0.5226
  138OSM   H17G15114   3.387   5.011   8.440 -2.5152  1.5374  1.5923
  138OSM   C18F15115   3.444   4.808   8.440  0.5345 -0.0854 -0.3769
  138OSM   H18F15116   3.422   4.711   8.390 -2.9735  0.0933  0.7173
  138OSM   H18G15117   3.444   4.778   8.547 -0.6090 -0.9902 -0.6220
  138OSM   H18H15118   3.545   4.838   8.404  0.1910 -0.5622 -1.7482
  139OSM      N15119   2.307   0.055   6.039  0.1303 -0.4814  0.0427
  139OSM    C1515120   2.243   0.185   5.990 -0.3081 -0.5267  0.8725
  139OSM   H15A15121   2.141   0.175   5.954 -0.3799  1.5022  0.4534
  139OSM   H15B15122   2.304   0.208   5.904 -0.5633  0.1602  0.8762
  139OSM   H15C15123   2.237   0.270   6.055 -2.6333 -0.7313  0.9680
  139OSM    C1415124   2.314  -0.039   5.919  0.3388  0.1654 -0.9306
  139OSM   H14A15125   2.387  -0.005   5.847 -0.0338  0.4421 -1.1809
  139OSM   H14B15126   2.214  -0.053   5.880  0.1321 -1.0143 -0.0015
  139OSM   H14C15127   2.348  -0.138   5.946 -0.8568  0.6025  2.4228
  139OSM    C1315128   2.440   0.091   6.088  0.5397  0.8628 -0.3429
  139OSM   H13A15129   2.495  -0.001   6.103 -1.0466  0.0500  0.5204
  139OSM   H13B15130   2.435   0.154   6.176 -0.9954  2.4627 -1.5397
  139OSM   H13C15131   2.494   0.146   6.012  1.0869  1.1869  0.2774
  139OSM    C1215132   2.219  -0.009   6.154  0.0279  0.5577  0.3297
  139OSM   H12A15133   2.122  -0.013   6.106  1.1584 -4.0493 -1.9455
  139OSM   H12B15134   2.219   0.054   6.242  3.0532  1.8299 -0.5343
  139OSM    C1115135   2.248  -0.155   6.198 -0.0818 -0.1316  0.4243
  139OSM   H11A15136   2.183  -0.188   6.281 -0.9476 -1.3721 -0.7234
  139OSM   H11B15137   2.349  -0.164   6.243 -0.0417 -0.6968  0.2341
  139OSM      P15138   2.121  -0.351   6.067 -0.3188 -0.3239 -0.2626
  139OSM    O1315139   2.013  -0.276   5.992 -0.0195 -0.1780  0.1771
  139OSM    O1415140   2.172  -0.473   6.014  0.0014 -0.0789 -0.2882
  139OSM    O1115141   2.064  -0.368   6.217  0.0868 -0.2531  0.5928
  139OSM    O1215142   2.245  -0.255   6.090  0.2569 -0.1506 -0.2491
  139OSM    C1S15143   2.139  -0.439   6.308  0.3531 -0.7421  0.2942
  139OSM    H1S15144   2.241  -0.397   6.320 -1.1421  2.8320  0.8875
  139OSM    H1T15145   2.151  -0.546   6.282 -1.4828 -0.9794  0.3043
  139OSM     NF15146   2.171  -0.464   6.549  0.2733  0.6721 -0.2060
  139OSM    HNF15147   2.173  -0.556   6.587  1.3119  0.7627 -0.0417
  139OSM    C2S15148   2.070  -0.440   6.446 -0.1394 -0.5682 -0.4196
  139OSM    H2S15149   2.030  -0.338   6.463 -2.0629 -1.5410  1.1509
  139OSM    C3S15150   1.948  -0.540   6.456 -0.2729 -0.0857 -0.1857
  139OSM    H3S15151   1.988  -0.643   6.451 -1.4197 -0.4910 -1.0925
  139OSM     O315152   1.853  -0.533   6.350 -0.1707 -0.0643  0.0040
  139OSM    HO315153   1.882  -0.476   6.278  2.6510 -1.3048  0.0728
  139OSM    C4S15154   1.877  -0.527   6.593 -0.8743 -0.6488  0.2708
  139OSM    H4S15155   1.826  -0.431   6.609 -1.4611 -0.5955 -1.7488
  139OSM    C5S15156   1.879  -0.614   6.696  0.2386  0.2320 -0.1944
  139OSM    H5S15157   1.941  -0.704   6.690  1.1520  0.5164  4.0370
  139OSM    C6S15158   1.816  -0.598   6.827 -0.2379 -0.0681  0.7593
  139OSM    H6S15159   1.876  -0.653   6.902 -0.3138  0.2662  1.0643
  139OSM    H6T15160   1.711  -0.634   6.824 -1.1531  2.5411 -1.0208
  139OSM    C7S15161   1.811  -0.445   6.878 -0.1897  0.8180 -0.1552
  139OSM    H7S15162   1.759  -0.388   6.798 -1.1269 -0.0521 -0.1897
  139OSM    H7T15163   1.911  -0.398   6.882  0.3623 -0.5344  3.9176
  139OSM    C8S15164   1.748  -0.421   7.018 -0.9338  0.5396 -0.1377
  139OSM    H8S15165   1.658  -0.486   7.010  0.2331 -1.0136 -0.7964
  139OSM    H8T15166   1.713  -0.316   7.028  1.6142  1.2717  1.3169
  139OSM    C9S15167   1.838  -0.472   7.138 -0.0334 -0.0028  0.1366
  139OSM    H9S15168   1.928  -0.409   7.154 -0.0072  0.5046 -1.8203
  139OSM    H9T15169   1.857  -0.580   7.127 -0.6157 -0.2052  1.0639
  139OSM   C10S15170   1.752  -0.443   7.266 -0.1271  0.7349 -0.0558
  139OSM   H10S15171   1.676  -0.522   7.285  0.5174  0.3149  0.8397
  139OSM   H10T15172   1.679  -0.360   7.252  1.5081  1.7126 -3.2731
  139OSM   C11S15173   1.843  -0.417   7.388 -0.4997  0.2580 -1.2847
  139OSM   H11S15174   1.919  -0.338   7.373  2.1724 -1.3767  2.6974
  139OSM   H11T15175   1.905  -0.508   7.405  0.8902  1.1993 -1.2179
  139OSM   C12S15176   1.759  -0.364   7.505 -0.2394  0.1971 -0.1252
  139OSM   H12S15177   1.670  -0.430   7.494  0.2475 -0.4034 -0.4821
  139OSM   H12T15178   1.722  -0.263   7.476  0.0756  0.6063  0.8944
  139OSM   C13S15179   1.815  -0.371   7.651  0.9312  0.9956 -0.0963
  139OSM   H13S15180   1.748  -0.328   7.728  1.8839 -1.1977  2.0404
  139OSM   H13T15181   1.905  -0.305   7.652 -1.1223  3.8497  0.0252
  139OSM   C14S15182   1.854  -0.516   7.685  0.8898  1.3134 -0.5509
  139OSM   H14S15183   1.920  -0.561   7.607 -0.9966 -0.6237 -1.0912
  139OSM   H14T15184   1.756  -0.569   7.690  1.5734  0.2250  3.5456
  139OSM   C15S15185   1.938  -0.514   7.815 -0.3859 -0.7029  0.7800
  139OSM   H15S15186   2.022  -0.443   7.799 -0.3356 -1.1515 -1.0679
  139OSM   H15T15187   1.987  -0.613   7.827  0.8607 -0.1121  0.5752
  139OSM   C16S15188   1.849  -0.491   7.946 -0.2637 -0.3632 -0.3664
  139OSM   H16S15189   1.768  -0.567   7.950  0.6876 -1.2793  2.6538
  139OSM   H16T15190   1.790  -0.397   7.936 -0.2342 -0.3699 -0.5990
  139OSM   C17S15191   1.928  -0.502   8.075 -0.0791  0.3773 -0.3902
  139OSM   H17S15192   2.018  -0.438   8.068 -0.5829  1.1125 -0.1636
  139OSM   H17T15193   1.976  -0.600   8.093  2.0338  1.8572  2.3071
  139OSM   C18S15194   1.844  -0.454   8.192 -0.3479 -0.4660 -0.0835
  139OSM   H18S15195   1.913  -0.468   8.278  2.3511 -1.5456 -2.3212
  139OSM   H18T15196   1.749  -0.507   8.210 -1.4605  1.4516 -0.2018
  139OSM   H18U15197   1.808  -0.350   8.175 -1.1565 -0.8503 -0.7496
  139OSM    C1F15198   2.271  -0.387   6.574 -0.2129  0.3250  0.0997
  139OSM     OF15199   2.284  -0.273   6.532  0.0981 -0.2281 -0.1282
  139OSM    C2F15200   2.376  -0.443   6.672  0.0305  0.1186  0.4158
  139OSM    H2F15201   2.461  -0.469   6.606  0.9684  4.2741 -0.1493
  139OSM    H2G15202   2.338  -0.529   6.731 -1.4618  1.5205  1.5380
  139OSM    C3F15203   2.426  -0.337   6.767 -0.2379 -0.0087  0.2497
  139OSM    H3F15204   2.338  -0.287   6.814 -0.7287 -0.5597 -0.0879
  139OSM    H3G15205   2.477  -0.258   6.707 -0.2258 -0.0301  0.2322
  139OSM    C4F15206   2.526  -0.388   6.871  0.9641  0.6183 -0.1840
  139OSM    H4F15207   2.631  -0.406   6.839  0.7398 -1.2360  0.0726
  139OSM    H4G15208   2.494  -0.488   6.905  0.9825  0.2686 -1.1952
  139OSM    C5F15209   2.520  -0.314   7.005  0.5026  0.0612 -0.8362
  139OSM    H5F15210   2.416  -0.313   7.044  0.1067 -0.1046 -1.8836
  139OSM    H5G15211   2.562  -0.211   7.005 -0.3554  0.4551  2.3949
  139OSM    C6F15212   2.590  -0.405   7.113  0.1427  0.1820 -0.3950
  139OSM    H6F15213   2.701  -0.407   7.109  0.2058 -1.3937  1.1357
  139OSM    H6G15214   2.555  -0.511   7.106  0.6220  0.0489 -0.8560
  139OSM    C7F15215   2.556  -0.360   7.252  0.2713 -0.4138 -0.2451
  139OSM    H7F15216   2.471  -0.421   7.289  2.3957 -1.0872  3.7655
  139OSM    H7G15217   2.515  -0.257   7.256  0.0219 -0.3620 -3.4147
  139OSM    C8F15218   2.664  -0.372   7.362 -0.1159 -0.4334 -0.1037
  139OSM    H8F15219   2.725  -0.463   7.342  3.8473  1.4715  2.6404
  139OSM    H8G15220   2.622  -0.383   7.465 -0.0643  0.6590  0.0334
  139OSM    C9F15221   2.768  -0.260   7.365  0.5964 -0.1241  0.6428
  139OSM    H9F15222   2.802  -0.246   7.261  0.6354 -2.3231  0.3412
  139OSM   C10F15223   2.810  -0.188   7.467 -0.9763 -0.0127 -0.2330
  139OSM   H10F15224   2.896  -0.121   7.453 -0.5582 -0.1774  1.3450
  139OSM   C11F15225   2.777  -0.213   7.609 -0.5375 -0.4267  0.6583
  139OSM   H11F15226   2.683  -0.271   7.622  0.4339 -2.0097  0.7639
  139OSM   H11G15227   2.759  -0.111   7.651 -1.8909 -1.3161  2.3027
  139OSM   C12F15228   2.867  -0.288   7.706 -0.2569 -0.4292 -0.2733
  139OSM   H12F15229   2.968  -0.242   7.714 -0.9370  1.0742 -0.1899
  139OSM   H12G15230   2.878  -0.387   7.657  0.1056  0.8775 -2.9814
  139OSM   C13F15231   2.815  -0.310   7.849 -0.3266  0.0115  0.0726
  139OSM   H13F15232   2.872  -0.395   7.891 -1.0491 -0.2255  0.5834
  139OSM   H13G15233   2.714  -0.356   7.842 -0.0066 -0.8382  0.9843
  139OSM   C14F15234   2.839  -0.197   7.949 -0.2021  0.0935 -0.4473
  139OSM   H14F15235   2.762  -0.119   7.930  0.0674  0.6094  0.5162
  139OSM   H14G15236   2.932  -0.138   7.935  0.4865 -0.3950  1.8448
  139OSM   C15F15237   2.843  -0.239   8.099  0.1529  0.3751 -0.0599
  139OSM   H15F15238   2.916  -0.321   8.117 -0.0778  0.6733  2.4436
  139OSM   H15G15239   2.736  -0.268   8.112  0.3724 -0.6993 -0.5570
  139OSM   C16F15240   2.879  -0.115   8.192 -0.5210  0.7959  0.2425
  139OSM   H16F15241   2.818  -0.031   8.153 -2.0685 -0.5507 -0.2823
  139OSM   H16G15242   2.985  -0.086   8.173  0.2372 -2.7470 -1.2210
  139OSM   C17F15243   2.845  -0.136   8.345  0.6905 -0.5353 -0.5222
  139OSM   H17F15244   2.896  -0.055   8.401 -0.3869 -1.6796  2.2093
  139OSM   H17G15245   2.880  -0.238   8.372 -0.7723 -1.5332 -2.2797
  139OSM   C18F15246   2.694  -0.130   8.388 -0.3182  0.1384  0.2721
  139OSM   H18F15247   2.667  -0.023   8.381  1.7180  0.6403 -0.5309
  139OSM   H18G15248   2.683  -0.171   8.490  1.6521  2.2133  1.3629
  139OSM   H18H15249   2.644  -0.192   8.310 -1.0925 -0.1811  1.0212
  140OSM      N15250   2.489   1.613   6.156  0.5743 -0.1827 -0.8954
  140OSM    C1515251   2.487   1.747   6.093 -0.1944 -0.5118 -0.0603
  140OSM   H15A15252   2.436   1.756   5.998 -0.5867 -1.5376  0.0390
  140OSM   H15B15253   2.582   1.795   6.077 -1.0557  0.8449 -1.1959
  140OSM   H15C15254   2.443   1.817   6.162 -0.7753  2.0368 -2.9366
  140OSM    C1415255   2.353   1.562   6.158  0.8171 -0.2508 -0.1706
  140OSM   H14A15256   2.345   1.460   6.193 -1.8682  0.5022  1.5206
  140OSM   H14B15257   2.309   1.580   6.061  1.1393 -0.7752 -0.4178
  140OSM   H14C15258   2.294   1.627   6.221  0.7973 -0.2448 -0.1956
  140OSM    C1315259   2.578   1.539   6.060  0.3501 -0.7066 -0.4475
  140OSM   H13A15260   2.582   1.433   6.078 -0.8673 -0.5680  0.7392
  140OSM   H13B15261   2.675   1.580   6.084  0.4441 -1.0778 -0.2008
  140OSM   H13C15262   2.534   1.551   5.962  0.3375 -1.6288 -0.5646
  140OSM    C1215263   2.544   1.617   6.299 -0.2357 -0.0742 -0.3072
  140OSM   H12A15264   2.624   1.689   6.302  1.6226 -2.0427 -0.7029
  140OSM   H12B15265   2.590   1.522   6.322 -2.6663 -1.2403 -0.1714
  140OSM    C1115266   2.454   1.649   6.415 -0.0037  0.2767  0.3175
  140OSM   H11A15267   2.513   1.619   6.504 -3.1577 -1.6923  1.8379
  140OSM   H11B15268   2.368   1.578   6.410  1.7314 -1.9544  1.6050
  140OSM      P15269   2.524   1.891   6.460  0.0124  0.0298 -0.1629
  140OSM    O1315270   2.659   1.850   6.414 -0.3111  0.2597  0.2414
  140OSM    O1415271   2.469   2.019   6.412 -0.3264 -0.0914  0.3604
  140OSM    O1115272   2.526   1.887   6.617 -0.1290 -0.3852 -0.7706
  140OSM    O1215273   2.415   1.783   6.412 -0.1485  0.8870 -0.0370
  140OSM    C1S15274   2.409   1.917   6.689  0.0450  0.7867  0.6000
  140OSM    H1S15275   2.332   1.844   6.658  1.4478 -0.5948  0.2839
  140OSM    H1T15276   2.367   2.018   6.669 -2.9169 -0.4439  0.4769
  140OSM     NF15277   2.311   1.920   6.920 -0.4116 -0.1197  0.5201
  140OSM    HNF15278   2.293   2.003   6.973  2.1278  0.7893  0.0196
  140OSM    C2S15279   2.432   1.911   6.840 -0.0261  0.5012 -0.2061
  140OSM    H2S15280   2.478   1.814   6.866  0.6376  1.1273  0.9717
  140OSM    C3S15281   2.538   2.019   6.881 -0.4276  0.0141 -0.1195
  140OSM    H3S15282   2.505   2.119   6.845 -0.8562  0.0342  0.3284
  140OSM     O315283   2.665   1.993   6.818  0.1540  0.5201  0.6494
  140OSM    HO315284   2.651   1.922   6.755 -0.2701 -0.3688  1.7420
  140OSM    C4S15285   2.561   2.032   7.037  0.4335  0.3151 -0.1621
  140OSM    H4S15286   2.487   2.098   7.085 -0.5317 -1.2337  0.5152
  140OSM    C5S15287   2.663   1.987   7.114 -0.0087  0.2433  0.2332
  140OSM    H5S15288   2.740   1.924   7.066 -0.9683 -0.8938  0.1833
  140OSM    C6S15289   2.683   2.009   7.260 -0.1148 -0.2936 -0.0616
  140OSM    H6S15290   2.787   2.037   7.286  0.3036 -1.8770  0.0076
  140OSM    H6T15291   2.675   1.901   7.284 -0.5857  0.0102  1.2147
  140OSM    C7S15292   2.574   2.085   7.341  0.2340  0.4944 -0.1125
  140OSM    H7S15293   2.483   2.022   7.328 -0.2210  1.0054  0.6152
  140OSM    H7T15294   2.553   2.182   7.290 -1.6634  0.4032  0.4741
  140OSM    C8S15295   2.614   2.101   7.485 -0.5722  0.0960  0.7352
  140OSM    H8S15296   2.555   2.181   7.536  1.0873  0.8628  1.4825
  140OSM    H8T15297   2.722   2.127   7.479  0.0838 -2.4729  0.5728
  140OSM    C9S15298   2.597   1.974   7.560  0.4238  0.2954  0.5208
  140OSM    H9S15299   2.654   1.888   7.518  0.5964 -0.3284  2.0213
  140OSM    H9T15300   2.488   1.954   7.561  0.2617  1.1074 -0.2702
  140OSM   C10S15301   2.657   1.967   7.703  0.1907  0.7053  0.4042
  140OSM   H10S15302   2.604   2.040   7.768  1.7849  1.9292  0.3637
  140OSM   H10T15303   2.766   1.989   7.696  0.5486 -1.1361  0.1585
  140OSM   C11S15304   2.632   1.831   7.762  0.7227 -0.0845 -1.0856
  140OSM   H11S15305   2.712   1.762   7.730 -0.8869 -1.9929 -1.1091
  140OSM   H11T15306   2.532   1.790   7.735  0.3127  2.4116 -3.5722
  140OSM   C12S15307   2.641   1.840   7.922 -0.5210 -0.5988 -0.4523
  140OSM   H12S15308   2.574   1.918   7.963  0.0511  0.5611 -1.6932
  140OSM   H12T15309   2.745   1.873   7.943 -0.2717 -0.5231 -1.7575
  140OSM   C13S15310   2.609   1.706   7.982 -0.0138 -0.2047 -0.9921
  140OSM   H13S15311   2.678   1.634   7.934  1.5738  1.6090 -1.4859
  140OSM   H13T15312   2.503   1.679   7.958 -0.2514 -1.4094  1.2515
  140OSM   C14S15313   2.634   1.704   8.136 -0.1212  0.0047 -0.3630
  140OSM   H14S15314   2.593   1.607   8.170  0.7999 -0.3755 -0.3281
  140OSM   H14T15315   2.575   1.785   8.185  0.6352  0.5851 -0.4061
  140OSM   C15S15316   2.778   1.714   8.186 -0.9249  0.3143  0.6557
  140OSM   H15S15317   2.823   1.805   8.141  2.2724 -0.6252  1.7870
  140OSM   H15T15318   2.835   1.629   8.143  0.1201  0.3438  1.9483
  140OSM   C16S15319   2.789   1.726   8.337  0.3394  0.2331 -0.8127
  140OSM   H16S15320   2.740   1.820   8.368  1.0460 -0.4009  2.3501
  140OSM   H16T15321   2.888   1.738   8.386 -1.6356  1.1640  3.1006
  140OSM   C17S15322   2.725   1.595   8.404 -0.3705 -0.2933  0.3560
  140OSM   H17S15323   2.617   1.594   8.379 -0.0412  0.0365 -1.1282
  140OSM   H17T15324   2.729   1.617   8.513 -1.8237 -3.3513  1.0880
  140OSM   C18S15325   2.804   1.467   8.378  0.2536  0.1959  0.2912
  140OSM   H18S15326   2.813   1.439   8.271  1.2513 -2.7350  1.0889
  140OSM   H18T15327   2.747   1.391   8.435 -1.1884  0.8584 -0.2416
  140OSM   H18U15328   2.905   1.468   8.423  0.6202  0.0549 -0.5251
  140OSM    C1F15329   2.211   1.824   6.930  0.4541 -0.0739  0.2924
  140OSM     OF15330   2.202   1.730   6.859  0.3161 -0.5335 -0.0168
  140OSM    C2F15331   2.104   1.853   7.029  0.5073  0.3769  0.0038
  140OSM    H2F15332   2.005   1.819   6.992 -0.0693  3.4358 -1.3666
  140OSM    H2G15333   2.098   1.963   7.039  2.0198  0.6324 -1.8143
  140OSM    C3F15334   2.141   1.779   7.156  0.3375 -0.2222  0.9627
  140OSM    H3F15335   2.242   1.810   7.191  0.7981  0.5223 -0.9482
  140OSM    H3G15336   2.122   1.675   7.123  1.1231  0.8601 -3.2319
  140OSM    C4F15337   2.027   1.798   7.259 -0.1203  0.1746 -0.5698
  140OSM    H4F15338   2.044   1.728   7.343  2.8875  1.2498 -0.2285
  140OSM    H4G15339   1.930   1.762   7.220  0.1208 -2.0141  0.7869
  140OSM    C5F15340   1.998   1.942   7.302 -0.2011  0.0654 -0.5120
  140OSM    H5F15341   1.925   1.941   7.386  2.2081 -5.2011  1.7104
  140OSM    H5G15342   1.954   2.007   7.223 -0.6905  0.1574 -0.1664
  140OSM    C6F15343   2.118   2.015   7.371 -0.3667 -0.0887 -0.3118
  140OSM    H6F15344   2.208   2.037   7.310 -0.4474  1.2249  0.0285
  140OSM    H6G15345   2.162   1.954   7.453 -0.0482  1.3493  0.6019
  140OSM    C7F15346   2.067   2.146   7.450 -0.1179  1.2971  0.2459
  140OSM    H7F15347   1.995   2.111   7.528 -0.7506  2.1987  0.0832
  140OSM    H7G15348   2.010   2.203   7.374 -3.6456 -1.0290  0.9881
  140OSM    C8F15349   2.184   2.223   7.490  0.6153  0.3762 -0.1771
  140OSM    H8F15350   2.238   2.263   7.402  1.6103 -1.4885 -0.4545
  140OSM    H8G15351   2.254   2.152   7.538  1.2391 -1.1391 -3.2075
  140OSM    C9F15352   2.150   2.326   7.589  0.0050  0.3162  0.6014
  140OSM    H9F15353   2.141   2.425   7.541 -2.0486  0.1311  0.5800
  140OSM   C10F15354   2.157   2.320   7.729 -0.3908  0.3014  0.7751
  140OSM   H10F15355   2.124   2.405   7.790  0.0457  1.6817 -0.8815
  140OSM   C11F15356   2.198   2.193   7.794  0.3643  0.2827  0.1263
  140OSM   H11F15357   2.308   2.177   7.803  0.1749 -0.3162  1.5657
  140OSM   H11G15358   2.154   2.108   7.738 -0.9063  1.1200 -0.1776
  140OSM   C12F15359   2.140   2.181   7.941 -0.0589  0.2939  0.3190
  140OSM   H12F15360   2.142   2.078   7.982  0.1707  0.5434  0.9460
  140OSM   H12G15361   2.036   2.220   7.937  0.3093  1.1777 -0.8840
  140OSM   C13F15362   2.216   2.267   8.040  0.0370 -0.1080 -0.7310
  140OSM   H13F15363   2.161   2.275   8.136 -0.3099  2.1903 -1.1057
  140OSM   H13G15364   2.229   2.371   8.004 -1.5758  1.5121  3.0934
  140OSM   C14F15365   2.347   2.202   8.084  0.1347 -0.1718 -0.5565
  140OSM   H14F15366   2.414   2.191   7.997  1.2164  2.1451 -0.0514
  140OSM   H14G15367   2.315   2.102   8.120 -0.9854 -1.1400 -4.0313
  140OSM   C15F15368   2.415   2.279   8.199  0.5808  0.7133 -0.5315
  140OSM   H15F15369   2.348   2.288   8.287  1.8533  0.8712  0.4437
  140OSM   H15G15370   2.435   2.381   8.160 -0.8472  0.8608 -0.9061
  140OSM   C16F15371   2.550   2.222   8.250 -0.5053  0.0351 -0.6087
  140OSM   H16F15372   2.540   2.116   8.283 -2.5654  0.9343  1.7773
  140OSM   H16G15373   2.575   2.275   8.344 -2.4289  1.2726 -0.7598
  140OSM   C17F15374   2.663   2.240   8.151  0.1851  0.0577 -0.4077
  140OSM   H17F15375   2.654   2.340   8.104 -0.7999 -0.1775 -0.7240
  140OSM   H17G15376   2.648   2.174   8.062 -2.4773  1.8003 -1.2888
  140OSM   C18F15377   2.796   2.206   8.214  0.3151 -0.3586  0.8661
  140OSM   H18F15378   2.809   2.100   8.242  0.1800 -0.5647  0.1663
  140OSM   H18G15379   2.832   2.259   8.304  0.9365 -0.7637  0.8589
  140OSM   H18H15380   2.870   2.223   8.133 -0.0996  0.5791  0.6635
  141OSM      N15381   1.445   3.549   6.115 -0.5624 -0.6232  0.1392
  141OSM    C1515382   1.591   3.534   6.097  0.1641  0.0062  0.1682
  141OSM   H15A15383   1.619   3.451   6.034  0.6567  1.0939 -1.0673
  141OSM   H15B15384   1.632   3.514   6.195 -0.9561  0.7214  0.7914
  141OSM   H15C15385   1.632   3.616   6.040  0.1747  1.4573  2.2226
  141OSM    C1415386   1.437   3.646   6.220  0.2644 -0.1200 -0.6050
  141OSM   H14A15387   1.337   3.658   6.258  0.5234 -0.5646  0.2395
  141OSM   H14B15388   1.473   3.742   6.186 -0.2671 -0.5972 -2.5710
  141OSM   H14C15389   1.484   3.626   6.315 -3.2934  2.1534  1.7515
  141OSM    C1315390   1.397   3.614   5.988 -1.1317 -0.1321 -0.1376
  141OSM   H13A15391   1.456   3.702   5.969 -0.2094 -0.7854 -0.3277
  141OSM   H13B15392   1.295   3.643   6.009 -0.8234  0.8824 -0.0256
  141OSM   H13C15393   1.402   3.545   5.905  1.2281 -2.6678  2.0109
  141OSM    C1215394   1.375   3.425   6.147 -0.5762  0.4081  0.7826
  141OSM   H12A15395   1.385   3.356   6.064 -2.3215  0.6773  0.3436
  141OSM   H12B15396   1.269   3.442   6.153 -0.7460 -0.2436 -0.2250
  141OSM    C1115397   1.424   3.342   6.266  0.3261 -0.9030  1.1818
  141OSM   H11A15398   1.346   3.264   6.279 -0.5979 -0.3164 -0.6158
  141OSM   H11B15399   1.426   3.400   6.361 -0.0581 -0.4782  0.9310
  141OSM      P15400   1.570   3.142   6.191 -0.1047 -0.2864 -0.0997
  141OSM    O1315401   1.493   3.130   6.064  0.2133 -0.6998  0.0532
  141OSM    O1415402   1.716   3.113   6.182  0.3196 -0.3401 -0.2059
  141OSM    O1115403   1.500   3.048   6.298  0.1256  0.6138  0.3914
  141OSM    O1215404   1.554   3.280   6.239 -0.4246 -0.0203 -0.2795
  141OSM    C1S15405   1.550   3.018   6.427 -0.2456  0.0211  0.2751
  141OSM    H1S15406   1.659   3.036   6.426 -0.1705 -0.3867 -1.7908
  141OSM    H1T15407   1.536   2.910   6.449 -2.7577  0.7120  2.3334
  141OSM     NF15408   1.570   3.081   6.660  0.1311 -0.4789  0.5766
  141OSM    HNF15409   1.548   3.020   6.735  0.1167 -2.0926 -0.7263
  141OSM    C2S15410   1.478   3.090   6.544  0.7333  0.8840 -0.4884
  141OSM    H2S15411   1.472   3.199   6.525  2.6998  1.3183  1.2547
  141OSM    C3S15412   1.333   3.028   6.571 -0.6613 -0.1288  0.5824
  141OSM    H3S15413   1.346   2.921   6.597 -0.3119 -1.0126 -2.9950
  141OSM     O315414   1.257   3.030   6.456  0.2986  0.0774 -0.7967
  141OSM    HO315415   1.315   3.035   6.380  0.2052  1.8392 -0.7708
  141OSM    C4S15416   1.268   3.099   6.695  0.1019  0.3837  0.3807
  141OSM    H4S15417   1.296   3.047   6.788  0.3633 -0.7177 -0.2972
  141OSM    C5S15418   1.183   3.203   6.697  0.3217 -0.2547 -0.6908
  141OSM    H5S15419   1.162   3.247   6.598  2.7548  3.0443  0.1485
  141OSM    C6S15420   1.130   3.273   6.821  0.1922  0.5701 -0.3178
  141OSM    H6S15421   1.019   3.270   6.819  0.2295 -0.4400 -1.9974
  141OSM    H6T15422   1.161   3.380   6.818  4.5904 -0.5770  0.9175
  141OSM    C7S15423   1.181   3.204   6.957  0.7030 -0.1448  0.4394
  141OSM    H7S15424   1.291   3.212   6.971  0.9249 -2.2930  0.0701
  141OSM    H7T15425   1.162   3.095   6.942  2.0344 -0.2565 -0.4821
  141OSM    C8S15426   1.105   3.272   7.076  0.0757  0.8643  0.2495
  141OSM    H8S15427   0.998   3.292   7.053  0.1660  0.3472 -0.6486
  141OSM    H8T15428   1.146   3.373   7.097 -0.0805  0.7650  1.0681
  141OSM    C9S15429   1.128   3.180   7.197  0.2012  0.5146  0.8762
  141OSM    H9S15430   1.232   3.141   7.185 -0.4454 -0.7376 -0.9021
  141OSM    H9T15431   1.062   3.093   7.177 -0.3873  1.8033 -3.3780
  141OSM   C10S15432   1.106   3.262   7.321  0.1603  0.0789 -0.3253
  141OSM   H10S15433   1.001   3.283   7.350 -0.1722 -0.4417 -1.1253
  141OSM   H10T15434   1.139   3.367   7.303 -1.0525  0.1867 -2.0512
  141OSM   C11S15435   1.176   3.196   7.446  0.0043  0.3074  0.0211
  141OSM   H11S15436   1.285   3.206   7.430 -0.0670 -0.3643 -0.9593
  141OSM   H11T15437   1.152   3.087   7.447  0.2686  0.2318 -0.9682
  141OSM   C12S15438   1.157   3.267   7.581 -0.8565 -0.6029  0.5697
  141OSM   H12S15439   1.152   3.377   7.567 -0.1436 -0.6887 -0.4706
  141OSM   H12T15440   1.242   3.236   7.645  0.9297  1.8072 -0.5517
  141OSM   C13S15441   1.026   3.211   7.645 -0.1664  0.5167 -0.9771
  141OSM   H13S15442   1.043   3.102   7.658 -1.2064  0.5011  0.4060
  141OSM   H13T15443   0.951   3.225   7.564 -0.9678  0.4196 -0.2545
  141OSM   C14S15444   0.982   3.272   7.780  0.3623  0.3336 -0.0878
  141OSM   H14S15445   0.881   3.227   7.789  0.2385  0.5356 -0.4621
  141OSM   H14T15446   0.983   3.382   7.786  3.7892  0.3729 -0.5078
  141OSM   C15S15447   1.060   3.209   7.895  0.0876  0.6385 -0.2540
  141OSM   H15S15448   1.171   3.221   7.898  0.1564 -0.3573  1.4084
  141OSM   H15T15449   1.054   3.099   7.879  0.8970  0.5883 -0.2669
  141OSM   C16S15450   0.998   3.247   8.021  0.2421  0.0119  0.5557
  141OSM   H16S15451   0.889   3.222   8.016 -0.1403  1.8343 -0.6784
  141OSM   H16T15452   0.991   3.355   8.047 -1.4396 -0.1371  0.7766
  141OSM   C17S15453   1.062   3.182   8.139 -0.0371 -0.4555 -0.2721
  141OSM   H17S15454   1.166   3.213   8.163  0.0453 -1.8267  1.2316
  141OSM   H17T15455   1.068   3.075   8.111 -3.7850 -0.4984 -1.1631
  141OSM   C18S15456   0.980   3.188   8.260 -0.3657 -0.0076  0.0249
  141OSM   H18S15457   1.036   3.138   8.343 -0.5677  0.5989  0.5226
  141OSM   H18T15458   0.882   3.138   8.245 -0.7029  1.6104 -3.6537
  141OSM   H18U15459   0.952   3.288   8.297 -1.6061 -0.2028 -0.3675
  141OSM    C1F15460   1.685   3.140   6.679 -1.0410 -1.0457 -0.5315
  141OSM     OF15461   1.731   3.213   6.594  0.2021 -0.3188 -0.1710
  141OSM    C2F15462   1.761   3.107   6.802  0.0936  0.4487  0.5268
  141OSM    H2F15463   1.853   3.050   6.777 -2.1015 -1.8932 -2.6435
  141OSM    H2G15464   1.706   3.019   6.840  0.3518 -1.7635 -3.8717
  141OSM    C3F15465   1.795   3.220   6.896 -0.3613 -0.6957  0.4812
  141OSM    H3F15466   1.704   3.269   6.938  1.2702  1.9537  0.9746
  141OSM    H3G15467   1.861   3.292   6.844 -1.8895  0.0897 -0.4016
  141OSM    C4F15468   1.877   3.183   7.019  0.3624 -0.1031  0.2876
  141OSM    H4F15469   1.982   3.170   6.984 -0.1887  1.8111 -2.1710
  141OSM    H4G15470   1.845   3.087   7.064  0.4259  0.2752  1.1544
  141OSM    C5F15471   1.871   3.277   7.144  0.2835 -0.4897 -0.1550
  141OSM    H5F15472   1.773   3.280   7.196  0.4336 -1.8274  0.2410
  141OSM    H5G15473   1.900   3.379   7.111 -0.0338 -0.1595  0.5648
  141OSM    C6F15474   1.979   3.235   7.246  0.1810  0.3039 -0.3658
  141OSM    H6F15475   2.079   3.255   7.202  0.6847  0.2584  0.7417
  141OSM    H6G15476   1.981   3.124   7.253 -0.5201  0.1754 -1.8863
  141OSM    C7F15477   1.957   3.313   7.375  0.1411 -0.4341 -0.2000
  141OSM    H7F15478   1.848   3.301   7.391 -0.0424  0.8841 -0.4359
  141OSM    H7G15479   1.978   3.419   7.351 -1.0687 -0.4147 -1.2595
  141OSM    C8F15480   2.042   3.268   7.499 -0.1376  0.0728  0.0979
  141OSM    H8F15481   2.054   3.353   7.569  2.7499 -0.8161  0.7130
  141OSM    H8G15482   2.143   3.247   7.459 -0.6968  0.9538 -1.8597
  141OSM    C9F15483   1.990   3.135   7.562 -0.2836  0.6942 -0.4485
  141OSM    H9F15484   1.995   3.048   7.496  1.5289  0.5112 -0.0823
  141OSM   C10F15485   1.947   3.114   7.693  0.4340 -0.3506  0.0862
  141OSM   H10F15486   1.918   3.012   7.723 -0.8704  0.1521  0.6019
  141OSM   C11F15487   1.923   3.212   7.802  0.3914 -0.5925  0.2878
  141OSM   H11F15488   1.820   3.252   7.792  0.6484 -0.1228 -0.4487
  141OSM   H11G15489   1.988   3.300   7.785 -1.6968  0.9508  0.0907
  141OSM   C12F15490   1.951   3.144   7.944 -0.5659  0.5300  1.0541
  141OSM   H12F15491   2.060   3.129   7.957 -0.7541  0.2618  2.4601
  141OSM   H12G15492   1.899   3.045   7.947 -0.1092  0.2935  1.2026
  141OSM   C13F15493   1.896   3.229   8.053  0.0700 -0.6026 -0.0311
  141OSM   H13F15494   1.787   3.250   8.044  0.2136  0.2422  0.1392
  141OSM   H13G15495   1.943   3.329   8.047  0.0553 -0.7241 -2.2861
  141OSM   C14F15496   1.926   3.187   8.199  0.0747  0.3377  1.0519
  141OSM   H14F15497   1.933   3.279   8.261  0.5446 -0.1669  1.7567
  141OSM   H14G15498   2.029   3.147   8.191 -0.8361 -2.0249  0.8342
  141OSM   C15F15499   1.827   3.082   8.253 -0.1304  0.2986  0.8738
  141OSM   H15F15500   1.810   3.007   8.173  1.7140  0.6987  0.0911
  141OSM   H15G15501   1.723   3.118   8.272 -0.1956  0.1405  0.8179
  141OSM   C16F15502   1.877   3.003   8.374  0.1117  0.8197  0.0296
  141OSM   H16F15503   1.966   2.948   8.336 -1.3711 -1.4208 -0.2493
  141OSM   H16G15504   1.811   2.921   8.407  1.7167 -0.2875  0.5483
  141OSM   C17F15505   1.887   3.092   8.500  0.2236  0.2300  0.9247
  141OSM   H17F15506   1.790   3.130   8.537  0.6456 -1.7306  4.3281
  141OSM   H17G15507   1.956   3.178   8.488  1.4434 -0.9240 -0.6470
  141OSM   C18F15508   1.937   3.017   8.616 -0.3936 -0.4671 -0.4478
  141OSM   H18F15509   2.039   2.975   8.603 -1.5529 -2.8355 -2.4249
  141OSM   H18G15510   1.876   2.924   8.623 -0.8820 -0.0131  1.6449
  141OSM   H18H15511   1.927   3.071   8.712 -0.2464 -1.9983  0.4505
  142OSM      N15512   2.196   4.516   5.985  0.6864 -0.2676  0.3346
  142OSM    C1515513   2.186   4.662   5.949 -0.4344  0.2411  0.2972
  142OSM   H15A15514   2.139   4.711   6.033 -1.0235 -2.2546  1.4799
  142OSM   H15B15515   2.130   4.674   5.857 -0.6093 -1.8060  0.1079
  142OSM   H15C15516   2.288   4.696   5.946 -0.4285  0.3019  1.1828
  142OSM    C1415517   2.071   4.446   5.965  0.0481 -0.1958 -0.0204
  142OSM   H14A15518   2.030   4.458   5.866 -2.7498 -1.0534  0.9978
  142OSM   H14B15519   1.996   4.481   6.034 -2.8028 -1.1660 -2.5159
  142OSM   H14C15520   2.068   4.339   5.981 -1.9868 -0.0032  0.9767
  142OSM    C1315521   2.296   4.443   5.896  0.5939  0.2562  0.1290
  142OSM   H13A15522   2.296   4.338   5.921  0.4753  0.0554 -0.6903
  142OSM   H13B15523   2.392   4.489   5.915  1.0889 -0.7767  0.1954
  142OSM   H13C15524   2.276   4.461   5.792  0.4684  2.1860  0.4765
  142OSM    C1215525   2.241   4.502   6.134  0.5669 -0.2632 -0.0076
  142OSM   H12A15526   2.332   4.559   6.145 -0.1597  1.1053 -0.8790
  142OSM   H12B15527   2.265   4.402   6.166  3.3862  0.2174 -0.4926
  142OSM    C1115528   2.144   4.573   6.239 -0.3180  0.0672  0.3233
  142OSM   H11A15529   2.185   4.541   6.338  3.7139 -0.5430 -1.4399
  142OSM   H11B15530   2.040   4.534   6.237  0.6328 -2.6372  1.1242
  142OSM      P15531   2.059   4.807   6.309  0.2198  0.2548 -0.1468
  142OSM    O1315532   2.112   4.943   6.276 -0.2325 -0.1424 -0.2848
  142OSM    O1415533   1.920   4.778   6.281 -0.3544  0.6323 -0.5391
  142OSM    O1115534   2.091   4.774   6.455  0.4853  0.1415 -0.0541
  142OSM    O1215535   2.146   4.713   6.224 -0.1097  0.4394  0.4121
  142OSM    C1S15536   2.218   4.796   6.516 -0.2156 -0.2842 -0.0497
  142OSM    H1S15537   2.255   4.895   6.484 -0.9197  0.0730  0.2392
  142OSM    H1T15538   2.283   4.708   6.495  2.1043  1.4355 -0.2292
  142OSM     NF15539   2.342   4.829   6.745 -0.2724  0.2270 -0.4168
  142OSM    HNF15540   2.384   4.745   6.779  1.2224  1.0971 -0.0754
  142OSM    C2S15541   2.213   4.802   6.673 -1.1863  0.8252 -0.1315
  142OSM    H2S15542   2.147   4.886   6.702 -0.3941  1.9821 -1.5823
  142OSM    C3S15543   2.143   4.673   6.734 -0.0166 -0.3070  0.2817
  142OSM    H3S15544   2.212   4.586   6.723  1.6137  1.1246 -1.1078
  142OSM     O315545   2.026   4.639   6.661 -0.2416  0.2248 -0.2565
  142OSM    HO315546   2.033   4.694   6.583 -0.1623 -1.2281 -1.2920
  142OSM    C4S15547   2.124   4.682   6.881  0.1075 -0.9232 -0.2881
  142OSM    H4S15548   2.223   4.664   6.924  0.0763  2.7968  1.5833
  142OSM    C5S15549   2.016   4.702   6.960 -0.0763 -0.0331 -0.4784
  142OSM    H5S15550   1.924   4.735   6.910 -0.1401  0.4319 -0.0531
  142OSM    C6S15551   2.013   4.707   7.103 -0.2143  0.1633 -0.2062
  142OSM    H6S15552   2.115   4.728   7.142  0.5390  0.9374 -2.5550
  142OSM    H6T15553   1.996   4.601   7.132 -0.3502  0.3065  0.2483
  142OSM    C7S15554   1.905   4.804   7.163 -0.7400  0.1669  0.3387
  142OSM    H7S15555   1.812   4.803   7.104  0.0557  0.9649 -0.9474
  142OSM    H7T15556   1.954   4.903   7.168  1.7452 -1.0082  0.2063
  142OSM    C8S15557   1.868   4.760   7.307  0.5429  0.6034  0.1848
  142OSM    H8S15558   1.959   4.724   7.360  0.7029  1.5954  0.6056
  142OSM    H8T15559   1.795   4.678   7.295  1.8153 -0.6192  0.7386
  142OSM    C9S15560   1.807   4.877   7.394  0.6726  0.2250  0.4948
  142OSM    H9S15561   1.715   4.903   7.338  1.2128  1.6977  0.2636
  142OSM    H9T15562   1.882   4.958   7.389  0.5458  0.2462 -1.1918
  142OSM   C10S15563   1.774   4.829   7.540 -0.8741  0.0955  0.2951
  142OSM   H10S15564   1.864   4.776   7.579  1.1375  2.2713 -1.2496
  142OSM   H10T15565   1.697   4.749   7.537 -1.4135  0.6119  0.2849
  142OSM   C11S15566   1.749   4.952   7.643 -0.2075 -0.7823 -0.2420
  142OSM   H11S15567   1.676   5.026   7.603  0.0261 -0.8531 -0.8022
  142OSM   H11T15568   1.841   5.014   7.642  0.6826 -2.1163 -1.2917
  142OSM   C12S15569   1.701   4.899   7.782  0.9196  0.3253 -0.2178
  142OSM   H12S15570   1.774   4.818   7.807  3.2876  2.4213 -0.1672
  142OSM   H12T15571   1.599   4.854   7.776  1.8296 -2.1012  1.5841
  142OSM   C13S15572   1.709   5.000   7.888 -0.4305  0.3819 -0.4710
  142OSM   H13S15573   1.649   5.091   7.866 -2.1743 -0.2283  1.6312
  142OSM   H13T15574   1.814   5.036   7.887  0.0027 -0.8522  0.1979
  142OSM   C14S15575   1.674   4.956   8.031  0.6329 -0.9855  0.0263
  142OSM   H14S15576   1.693   4.847   8.033 -1.2753 -1.3288  1.1513
  142OSM   H14T15577   1.567   4.978   8.051  1.1023  1.9899 -0.5280
  142OSM   C15S15578   1.754   5.042   8.135 -0.4005 -0.0769  0.1144
  142OSM   H15S15579   1.738   5.150   8.118  1.4910  0.3742  0.9932
  142OSM   H15T15580   1.860   5.007   8.129 -1.2037 -2.6526  0.1874
  142OSM   C16S15581   1.703   5.010   8.274  0.2971  0.2789 -0.3194
  142OSM   H16S15582   1.778   4.980   8.351  1.5282  0.0599 -1.5718
  142OSM   H16T15583   1.623   4.933   8.264  0.4086  0.1610 -0.3106
  142OSM   C17S15584   1.629   5.129   8.337  0.3847  0.5084 -0.2724
  142OSM   H17S15585   1.694   5.218   8.342 -0.1694  0.9426 -0.7492
  142OSM   H17T15586   1.603   5.098   8.441  0.0170 -0.3681 -0.6180
  142OSM   C18S15587   1.503   5.164   8.259  0.2772 -1.1707  0.7541
  142OSM   H18S15588   1.422   5.088   8.260 -1.2525  0.3926  0.5631
  142OSM   H18T15589   1.519   5.190   8.152 -0.4194 -2.2567  0.3763
  142OSM   H18U15590   1.463   5.258   8.304 -3.0107 -1.2643 -1.7520
  142OSM    C1F15591   2.410   4.941   6.744  1.1589  0.0525 -0.1208
  142OSM     OF15592   2.364   5.031   6.676  0.1146 -0.0928 -0.5066
  142OSM    C2F15593   2.541   4.953   6.819  0.5054  0.2130 -0.0823
  142OSM    H2F15594   2.627   4.967   6.750 -0.6808  0.6920 -1.4829
  142OSM    H2G15595   2.573   4.873   6.889 -0.6367  0.8673  1.1983
  142OSM    C3F15596   2.533   5.083   6.911  0.3245  0.0438  0.0322
  142OSM    H3F15597   2.458   5.048   6.985  0.9632  0.1521  0.7357
  142OSM    H3G15598   2.485   5.173   6.867 -1.3767 -1.3505 -1.0327
  142OSM    C4F15599   2.660   5.114   6.983  0.6469 -0.1752 -0.7478
  142OSM    H4F15600   2.710   5.199   6.933  0.2291  0.7262  0.3460
  142OSM    H4G15601   2.733   5.031   6.977  0.4952 -0.4166  0.5729
  142OSM    C5F15602   2.649   5.146   7.135  0.7161  0.3726  0.1135
  142OSM    H5F15603   2.610   5.058   7.190 -1.9987 -0.3246 -2.7650
  142OSM    H5G15604   2.585   5.236   7.147  0.5720  0.4181 -0.9689
  142OSM    C6F15605   2.782   5.202   7.196  0.1956  0.7106  0.0179
  142OSM    H6F15606   2.820   5.289   7.138  2.0829 -0.7813 -1.0475
  142OSM    H6G15607   2.855   5.118   7.187  0.4767  0.8530  0.9351
  142OSM    C7F15608   2.765   5.250   7.341 -0.9404  0.6379  0.2720
  142OSM    H7F15609   2.707   5.344   7.351  1.6312  2.2689  0.2902
  142OSM    H7G15610   2.865   5.279   7.380 -0.5842  0.1904 -0.2920
  142OSM    C8F15611   2.689   5.156   7.433  0.1854  0.1862 -0.9468
  142OSM    H8F15612   2.582   5.144   7.406 -0.7964 -3.5404  3.8954
  142OSM    H8G15613   2.685   5.213   7.528  0.8906 -1.9309  0.3925
  142OSM    C9F15614   2.771   5.030   7.452  0.6630  0.6023  0.2915
  142OSM    H9F15615   2.807   4.988   7.357  1.5462  2.7809 -0.3533
  142OSM   C10F15616   2.814   4.965   7.560  0.2933 -0.0542 -0.7946
  142OSM   H10F15617   2.875   4.873   7.561 -0.5135 -0.5940 -0.3743
  142OSM   C11F15618   2.785   5.018   7.696  0.0213 -0.1563 -0.2401
  142OSM   H11F15619   2.719   5.108   7.690  1.6953  1.1480  0.6033
  142OSM   H11G15620   2.878   5.064   7.735  0.6898 -0.6437 -1.2450
  142OSM   C12F15621   2.715   4.917   7.793 -0.3923  0.0086  0.0891
  142OSM   H12F15622   2.776   4.824   7.793  2.3928  1.7695  0.0363
  142OSM   H12G15623   2.616   4.880   7.758 -0.3727  0.2025 -0.1754
  142OSM   C13F15624   2.704   4.964   7.935 -0.3314 -1.1132 -0.1436
  142OSM   H13F15625   2.699   4.879   8.007 -1.5893 -1.2562 -0.3923
  142OSM   H13G15626   2.610   5.024   7.938  0.0801 -0.5112  1.9033
  142OSM   C14F15627   2.821   5.055   7.984  0.7591  0.5042  0.3948
  142OSM   H14F15628   2.829   5.152   7.930 -0.1494  0.4208  0.0989
  142OSM   H14G15629   2.924   5.013   7.985 -0.0641 -1.5629  0.8683
  142OSM   C15F15630   2.798   5.098   8.129  0.4751  0.2540  0.2318
  142OSM   H15F15631   2.690   5.116   8.145 -0.1634 -3.1182  0.1190
  142OSM   H15G15632   2.838   5.201   8.143  0.1654  0.1996  1.6012
  142OSM   C16F15633   2.852   4.999   8.231 -0.2353  0.5229 -0.0206
  142OSM   H16F15634   2.962   4.984   8.223 -0.6034 -1.3528 -2.1557
  142OSM   H16G15635   2.803   4.900   8.213 -0.6338  0.8350 -0.6697
  142OSM   C17F15636   2.842   5.059   8.375  0.1766  0.9385  0.9221
  142OSM   H17F15637   2.732   5.073   8.390 -0.1691 -1.0450  0.4098
  142OSM   H17G15638   2.899   5.154   8.387 -1.7147  2.1241  0.7960
  142OSM   C18F15639   2.898   4.965   8.478  0.2301 -0.0433  0.4015
  142OSM   H18F15640   2.875   5.014   8.575 -0.5032  3.3539 -1.3813
  142OSM   H18G15641   3.009   4.968   8.465  0.0470 -1.3946 -1.6744
  142OSM   H18H15642   2.850   4.866   8.468 -2.5042  1.3558 -0.6583
  143OSM      N15643   3.970   6.609   5.989 -0.3460 -0.4262 -0.4546
  143OSM    C1515644   3.886   6.533   5.889 -0.4763  0.6029 -0.5771
  143OSM   H15A15645   3.939   6.533   5.795 -0.0838 -2.4008 -0.4036
  143OSM   H15B15646   3.795   6.590   5.871 -1.5767  0.0645  2.9010
  143OSM   H15C15647   3.866   6.434   5.927  1.3903  0.8872  1.2277
  143OSM    C1415648   4.108   6.547   5.999 -0.3137  0.2573 -0.1680
  143OSM   H14A15649   4.100   6.448   6.043 -0.2476 -1.2075 -3.3313
  143OSM   H14B15650   4.167   6.613   6.061 -0.9187 -0.8616  1.6198
  143OSM   H14C15651   4.150   6.535   5.900 -1.1947 -0.8675 -0.4098
  143OSM    C1315652   3.980   6.744   5.935  0.4947 -0.8622  0.1198
  143OSM   H13A15653   4.036   6.806   6.004  2.4489  0.8598 -2.8865
  143OSM   H13B15654   3.884   6.789   5.919  1.2578 -0.5971 -4.2145
  143OSM   H13C15655   4.032   6.744   5.840  2.1751  1.5366  0.9870
  143OSM    C1215656   3.898   6.614   6.126 -0.9238 -0.8855  0.9682
  143OSM   H12A15657   3.883   6.515   6.168 -1.1023 -0.9063  0.8552
  143OSM   H12B15658   3.798   6.651   6.112 -1.4146 -1.9040  1.7588
  143OSM    C1115659   3.965   6.698   6.236  0.4796  0.2879 -0.1921
  143OSM   H11A15660   4.074   6.685   6.252 -0.0597  0.5285  4.4713
  143OSM   H11B15661   3.910   6.670   6.329 -1.8902 -0.0529 -1.6482
  143OSM      P15662   3.809   6.914   6.237  0.0495  0.2013 -0.1057
  143OSM    O1315663   3.797   7.029   6.141  0.0468 -0.0463  0.3827
  143OSM    O1415664   3.694   6.816   6.223 -0.7248  0.3129  0.1555
  143OSM    O1115665   3.815   6.972   6.385  0.3924 -0.7385 -0.1111
  143OSM    O1215666   3.950   6.846   6.202 -0.2609  0.4462  0.3722
  143OSM    C1S15667   3.917   7.070   6.424  0.1227  0.3864 -0.6688
  143OSM    H1S15668   3.913   7.162   6.362  0.5563  0.3823 -0.7052
  143OSM    H1T15669   4.020   7.030   6.412 -0.1559 -0.4411 -0.3419
  143OSM     NF15670   3.985   7.247   6.583  0.1809 -0.3398  0.1986
  143OSM    HNF15671   4.061   7.254   6.647 -0.6929 -1.9679  1.4524
  143OSM    C2S15672   3.908   7.123   6.570  0.2851  0.6470 -0.8882
  143OSM    H2S15673   3.799   7.138   6.587  0.4337 -1.5020  2.4412
  143OSM    C3S15674   3.945   7.006   6.673  0.3552 -0.0599 -0.1384
  143OSM    H3S15675   4.044   6.970   6.638  0.8388 -0.3366  1.4571
  143OSM     O315676   3.859   6.891   6.658 -0.1029 -0.5840 -0.1663
  143OSM    HO315677   3.817   6.912   6.574  0.6823  2.4380  0.1369
  143OSM    C4S15678   3.945   7.045   6.816 -0.1506  0.3946  0.3583
  143OSM    H4S15679   4.044   7.064   6.860 -0.2075  3.1159 -0.6054
  143OSM    C5S15680   3.831   7.073   6.881  0.0998 -0.1686 -0.4551
  143OSM    H5S15681   3.732   7.068   6.833  0.2630 -0.5950 -0.7482
  143OSM    C6S15682   3.839   7.103   7.031  0.3057  0.1796  0.1305
  143OSM    H6S15683   3.770   7.185   7.058 -0.3205  0.1028 -1.2349
  143OSM    H6T15684   3.940   7.124   7.072  0.8360  0.2638 -1.2018
  143OSM    C7S15685   3.802   6.975   7.117  0.1379  0.0167 -0.4335
  143OSM    H7S15686   3.868   6.890   7.090 -0.2639 -0.4684  0.0885
  143OSM    H7T15687   3.695   6.956   7.096 -0.0567 -0.1278  0.6572
  143OSM    C8S15688   3.805   6.993   7.268 -0.2001  0.7943 -0.8459
  143OSM    H8S15689   3.900   7.047   7.288  0.0614 -0.1108  0.3788
  143OSM    H8T15690   3.827   6.894   7.313  1.1065  1.5055  0.1134
  143OSM    C9S15691   3.681   7.044   7.331  0.2758 -0.1956 -0.0949
  143OSM    H9S15692   3.592   6.985   7.302 -1.4079  1.4976  1.4955
  143OSM    H9T15693   3.669   7.152   7.306  1.7728  0.4426  1.7830
  143OSM   C10S15694   3.686   7.033   7.484  0.3013  0.5442  0.1936
  143OSM   H10S15695   3.604   7.093   7.527  0.8927  2.2997 -1.0585
  143OSM   H10T15696   3.782   7.081   7.514  1.3523 -0.8998 -0.7327
  143OSM   C11S15697   3.687   6.892   7.553  0.4210 -0.4355  1.1303
  143OSM   H11S15698   3.773   6.831   7.519  0.9618  0.3700  1.0429
  143OSM   H11T15699   3.594   6.841   7.519  2.0110 -1.2048 -2.3261
  143OSM   C12S15700   3.699   6.903   7.700 -0.0923 -0.8718  0.4857
  143OSM   H12S15701   3.777   6.978   7.726  1.1177 -1.0278 -2.5074
  143OSM   H12T15702   3.745   6.804   7.721  2.1771  0.2669  1.0394
  143OSM   C13S15703   3.569   6.923   7.778  0.2431  0.6005  0.1632
  143OSM   H13S15704   3.507   6.836   7.748 -2.6922  2.8931 -0.6546
  143OSM   H13T15705   3.503   7.004   7.739  1.8063  2.7480  1.8250
  143OSM   C14S15706   3.584   6.943   7.935 -0.3324  0.5444 -0.0979
  143OSM   H14S15707   3.481   6.957   7.975 -0.6318  2.6548 -1.5276
  143OSM   H14T15708   3.629   7.044   7.936 -0.0836  0.4466 -1.1472
  143OSM   C15S15709   3.688   6.845   8.006 -0.1967 -0.2723  0.4379
  143OSM   H15S15710   3.782   6.873   7.953 -0.3579 -0.6645 -0.0640
  143OSM   H15T15711   3.644   6.743   7.998 -0.5891 -0.3842  3.3055
  143OSM   C16S15712   3.700   6.894   8.148  0.3439 -0.0027 -0.3237
  143OSM   H16S15713   3.731   7.001   8.153 -1.2477  0.4152  0.7205
  143OSM   H16T15714   3.779   6.832   8.196  0.4082  1.0638  0.9953
  143OSM   C17S15715   3.564   6.889   8.217  0.3303 -0.2267 -1.0308
  143OSM   H17S15716   3.517   6.789   8.206  0.2747 -0.6545  2.7230
  143OSM   H17T15717   3.504   6.970   8.171  2.5228  1.6516 -0.6815
  143OSM   C18S15718   3.567   6.923   8.369  0.2577  1.1738  0.5539
  143OSM   H18S15719   3.616   7.022   8.382  0.9062  0.9110  0.1279
  143OSM   H18T15720   3.615   6.843   8.429  2.3871  0.7855 -1.5708
  143OSM   H18U15721   3.460   6.935   8.397 -0.0564 -1.7000  0.6715
  143OSM    C1F15722   3.940   7.360   6.523 -0.2325 -0.0422 -0.0370
  143OSM     OF15723   3.842   7.354   6.451  0.3652  0.4106 -0.2729
  143OSM    C2F15724   4.010   7.497   6.539  0.1432 -0.4781  0.3146
  143OSM    H2F15725   3.983   7.554   6.448  0.5085 -1.2029 -0.2534
  143OSM    H2G15726   4.120   7.482   6.539  0.2941  0.5640  0.5008
  143OSM    C3F15727   3.967   7.567   6.672 -0.1145  0.0799 -1.0303
  143OSM    H3F15728   3.860   7.595   6.679  0.2162  1.4178 -1.1776
  143OSM    H3G15729   4.032   7.657   6.671  0.5581 -0.3500  0.9514
  143OSM    C4F15730   3.993   7.495   6.816 -0.7468  0.2424  0.0689
  143OSM    H4F15731   4.095   7.452   6.814  0.0148  2.0094  0.1462
  143OSM    H4G15732   3.921   7.412   6.834  1.2624 -1.5554  0.0491
  143OSM    C5F15733   3.982   7.589   6.931 -0.7605  0.0610 -0.2637
  143OSM    H5F15734   3.874   7.609   6.948 -0.5432  0.8184  0.2516
  143OSM    H5G15735   4.021   7.690   6.905 -2.6151  0.4912 -1.4938
  143OSM    C6F15736   4.042   7.534   7.059 -0.4118  0.4215  0.6461
  143OSM    H6F15737   4.049   7.612   7.137 -1.3234 -0.1968  1.3461
  143OSM    H6G15738   4.142   7.489   7.040  0.4254  2.5731 -0.2952
  143OSM    C7F15739   3.959   7.425   7.122  0.7864  0.1083  0.6763
  143OSM    H7F15740   3.973   7.332   7.064 -0.3260  0.6360 -0.4756
  143OSM    H7G15741   3.849   7.440   7.111  0.8746 -0.5115 -1.2195
  143OSM    C8F15742   3.987   7.401   7.275 -0.1397 -0.3005 -0.7564
  143OSM    H8F15743   4.091   7.369   7.297 -0.9196 -1.7140  1.0556
  143OSM    H8G15744   3.932   7.305   7.291 -0.2755  0.1621  1.7472
  143OSM    C9F15745   3.940   7.507   7.368 -0.4799  0.0498 -0.2476
  143OSM    H9F15746   3.992   7.602   7.349 -0.9646  0.6739  1.4146
  143OSM   C10F15747   3.849   7.506   7.471 -0.5919  0.7133  0.0775
  143OSM   H10F15748   3.843   7.591   7.542  2.3967 -2.0364  3.8162
  143OSM   C11F15749   3.761   7.388   7.514 -0.6857  0.3294 -0.3450
  143OSM   H11F15750   3.799   7.287   7.487 -1.3621  0.6613 -2.6842
  143OSM   H11G15751   3.663   7.413   7.469 -1.6778  0.6123  1.9300
  143OSM   C12F15752   3.744   7.396   7.669  0.2575  0.0750  0.7601
  143OSM   H12F15753   3.702   7.298   7.702  0.3624 -0.5341 -0.8700
  143OSM   H12G15754   3.660   7.466   7.686 -0.3944  0.1076 -2.3089
  143OSM   C13F15755   3.859   7.418   7.766 -0.1611 -0.6291 -0.4184
  143OSM   H13F15756   3.925   7.498   7.726  1.2926 -1.9742 -0.7763
  143OSM   H13G15757   3.923   7.328   7.767 -0.6417 -0.9654  0.7078
  143OSM   C14F15758   3.813   7.452   7.906  0.3795  0.3707 -0.2046
  143OSM   H14F15759   3.755   7.362   7.936 -0.7854  0.8670 -0.9694
  143OSM   H14G15760   3.741   7.536   7.910 -0.2907 -0.1716 -0.8803
  143OSM   C15F15761   3.920   7.474   8.015 -0.6810 -0.3076  0.1146
  143OSM   H15F15762   3.969   7.573   8.002 -0.4141 -0.4155  0.2822
  143OSM   H15G15763   4.002   7.400   7.999  0.5553  0.4381  2.6695
  143OSM   C16F15764   3.867   7.470   8.162 -0.0246  0.1356 -0.0756
  143OSM   H16F15765   3.797   7.556   8.178 -1.3988 -1.1575  0.9938
  143OSM   H16G15766   3.956   7.486   8.226 -0.6380  3.6033  0.0638
  143OSM   C17F15767   3.784   7.338   8.198 -0.4283  0.1695  0.4103
  143OSM   H17F15768   3.841   7.247   8.170 -1.0811  0.2029 -1.0796
  143OSM   H17G15769   3.698   7.339   8.129 -0.5343  0.4944  0.5456
  143OSM   C18F15770   3.723   7.339   8.337 -0.0366 -0.3055  0.8833
  143OSM   H18F15771   3.785   7.336   8.429 -0.1179  0.2339  0.9624
  143OSM   H18G15772   3.675   7.239   8.341  3.2474 -1.9491  0.4067
  143OSM   H18H15773   3.648   7.420   8.352 -1.9892 -1.5266 -1.8660
  144OSM      N15774   2.898   0.210   6.176  0.6453  0.0266 -0.1841
  144OSM    C1515775   2.880   0.065   6.129  1.2128  0.2417  0.0621
  144OSM   H15A15776   2.848   0.063   6.026  0.8493  2.4693  0.1145
  144OSM   H15B15777   2.808   0.004   6.181  1.3770 -1.7145 -1.9004
  144OSM   H15C15778   2.974   0.012   6.134  0.8594 -0.5798 -1.4969
  144OSM    C1415779   3.018   0.261   6.101  0.0054  0.0457  0.3771
  144OSM   H14A15780   3.007   0.247   5.994 -0.1396  1.0153  0.2576
  144OSM   H14B15781   3.098   0.199   6.140 -0.0365  0.3575  0.9638
  144OSM   H14C15782   3.040   0.362   6.133 -0.4476 -0.2264  1.5687
  144OSM    C1315783   2.785   0.286   6.128 -0.4573 -0.3433  0.7529
  144OSM   H13A15784   2.695   0.243   6.170  0.2363 -3.1649 -0.5453
  144OSM   H13B15785   2.783   0.266   6.022  2.1969 -2.2502  1.0224
  144OSM   H13C15786   2.798   0.393   6.133  0.6161 -0.0920 -4.7204
  144OSM    C1215787   2.916   0.222   6.323  0.2372  0.3478 -0.1122
  144OSM   H12A15788   2.888   0.322   6.352 -1.4418 -0.3327  0.7051
  144OSM   H12B15789   3.015   0.205   6.360 -0.4151 -2.2355  0.5538
  144OSM    C1115790   2.826   0.122   6.400 -0.5626 -0.0904  0.0169
  144OSM   H11A15791   2.854   0.133   6.507 -1.9505  0.3161  0.3525
  144OSM   H11B15792   2.862   0.018   6.383  0.5478  0.3171 -0.1012
  144OSM      P15793   2.586   0.031   6.398  0.2141 -0.2494  0.1459
  144OSM    O1315794   2.452   0.089   6.396  0.8321  0.0463 -0.4341
  144OSM    O1415795   2.620  -0.075   6.297 -0.1568 -0.8852 -0.6185
  144OSM    O1115796   2.610  -0.024   6.540  0.3101 -0.1864  0.4683
  144OSM    O1215797   2.688   0.146   6.373 -0.3725  0.1986 -0.0162
  144OSM    C1S15798   2.645   0.043   6.667  0.6135 -0.2031 -0.5127
  144OSM    H1S15799   2.553   0.083   6.714  0.5090  1.1657 -1.8184
  144OSM    H1T15800   2.717   0.127   6.653  1.1466 -0.8312 -1.6928
  144OSM     NF15801   2.772   0.014   6.885 -0.2457 -0.1141 -0.2008
  144OSM    HNF15802   2.863   0.056   6.878 -1.2386  2.0363 -0.8071
  144OSM    C2S15803   2.724  -0.056   6.757 -0.6963 -0.3897 -0.1364
  144OSM    H2S15804   2.656  -0.140   6.782  0.0082 -0.6601  0.8969
  144OSM    C3S15805   2.851  -0.119   6.688 -0.4198 -0.0137 -0.9793
  144OSM    H3S15806   2.923  -0.035   6.678 -0.3597  0.0236 -0.2741
  144OSM     O315807   2.836  -0.177   6.556  0.2382  0.1462 -0.0195
  144OSM    HO315808   2.746  -0.167   6.524  0.6336  1.1652 -0.8479
  144OSM    C4S15809   2.921  -0.222   6.777  0.3346 -0.1239 -0.7375
  144OSM    H4S15810   2.862  -0.312   6.800 -0.6497  0.1778 -2.0418
  144OSM    C5S15811   3.050  -0.225   6.815 -0.3701  0.9784  0.1265
  144OSM    H5S15812   3.127  -0.153   6.784  0.9892  0.7846  2.8740
  144OSM    C6S15813   3.108  -0.335   6.892  0.6186 -0.2153  0.3519
  144OSM    H6S15814   3.171  -0.388   6.817  1.1023 -1.0559  1.3452
  144OSM    H6T15815   3.037  -0.409   6.935  1.6603 -0.3496  1.8731
  144OSM    C7S15816   3.205  -0.293   7.004 -0.0818 -0.3387 -0.4489
  144OSM    H7S15817   3.297  -0.246   6.963  0.2618  1.0069  1.7638
  144OSM    H7T15818   3.251  -0.385   7.046 -2.5048 -0.4759  2.0504
  144OSM    C8S15819   3.146  -0.206   7.108 -0.1958 -1.0188 -0.6780
  144OSM    H8S15820   3.053  -0.247   7.153 -0.0240 -2.2225 -1.4252
  144OSM    H8T15821   3.118  -0.106   7.069  1.2125  0.1007  1.1150
  144OSM    C9S15822   3.235  -0.173   7.223 -0.0631  0.2853 -0.1853
  144OSM    H9S15823   3.206  -0.072   7.259  0.0664 -0.1487  1.1512
  144OSM    H9T15824   3.341  -0.161   7.191  0.4964 -0.1350  1.4601
  144OSM   C10S15825   3.226  -0.275   7.337  0.1596 -0.4726 -0.4451
  144OSM   H10S15826   3.269  -0.369   7.294 -0.1012 -0.2148 -1.2768
  144OSM   H10T15827   3.122  -0.291   7.371  0.1806  2.6066  1.2367
  144OSM   C11S15828   3.303  -0.218   7.459 -0.0295 -0.0584 -0.0343
  144OSM   H11S15829   3.271  -0.114   7.483  2.4231 -0.0135  3.2828
  144OSM   H11T15830   3.409  -0.212   7.429 -0.2153 -1.1089 -0.9486
  144OSM   C12S15831   3.299  -0.305   7.585  0.0498  0.3776 -0.6284
  144OSM   H12S15832   3.338  -0.408   7.567  0.0920  0.2039  0.4004
  144OSM   H12T15833   3.189  -0.308   7.599 -0.0429 -2.3443 -1.5343
  144OSM   C13S15834   3.368  -0.240   7.715 -0.4746  0.1528 -0.0279
  144OSM   H13S15835   3.372  -0.130   7.703 -0.1724  0.2292  0.7419
  144OSM   H13T15836   3.471  -0.280   7.704 -0.4768  0.3609 -0.8831
  144OSM   C14S15837   3.295  -0.288   7.842 -0.3337 -0.2122  0.4269
  144OSM   H14S15838   3.287  -0.398   7.829 -0.9000 -0.2473  1.1037
  144OSM   H14T15839   3.189  -0.260   7.860  0.4464  0.1270  5.1435
  144OSM   C15S15840   3.377  -0.286   7.975 -0.1781  0.0781 -0.7722
  144OSM   H15S15841   3.393  -0.179   7.996  0.4707  0.1850 -1.7819
  144OSM   H15T15842   3.475  -0.334   7.953 -0.4554 -1.1006  0.4663
  144OSM   C16S15843   3.319  -0.359   8.099 -0.4482 -0.2644 -0.2161
  144OSM   H16S15844   3.310  -0.468   8.078  1.1125 -0.6526  1.0113
  144OSM   H16T15845   3.221  -0.311   8.121 -0.3358 -0.1841  0.1227
  144OSM   C17S15846   3.412  -0.354   8.223 -0.2556  0.6719  0.3419
  144OSM   H17S15847   3.356  -0.373   8.317 -0.3786 -1.3759 -0.1137
  144OSM   H17T15848   3.436  -0.245   8.230  2.5660  0.0639  0.8444
  144OSM   C18S15849   3.529  -0.439   8.214  0.2738  0.3631  0.2713
  144OSM   H18S15850   3.604  -0.440   8.296 -0.0232  1.3176  0.5569
  144OSM   H18T15851   3.574  -0.424   8.114 -1.8549  0.6134 -0.6844
  144OSM   H18U15852   3.501  -0.546   8.217 -0.1988  0.3635 -2.6631
  144OSM    C1F15853   2.675   0.059   6.966  0.3967 -0.1098 -0.7336
  144OSM     OF15854   2.555   0.027   6.951 -0.1125  0.3603  0.6256
  144OSM    C2F15855   2.720   0.143   7.075 -0.2261 -0.2562 -0.4576
  144OSM    H2F15856   2.705   0.246   7.037 -1.7630 -0.4489 -0.4275
  144OSM    H2G15857   2.828   0.127   7.093  0.1421  1.6674 -0.8313
  144OSM    C3F15858   2.639   0.104   7.200  0.6683 -0.3523  0.1207
  144OSM    H3F15859   2.633  -0.005   7.216  1.7560 -0.4749 -0.2372
  144OSM    H3G15860   2.531   0.123   7.186  0.7466 -1.2296 -1.7707
  144OSM    C4F15861   2.686   0.174   7.325 -0.5227  0.0054 -0.4796
  144OSM    H4F15862   2.718   0.273   7.287  0.0499  0.0553  0.1219
  144OSM    H4G15863   2.779   0.123   7.359 -0.8129  0.2139  0.6508
  144OSM    C5F15864   2.577   0.179   7.437  0.0876 -0.1762  0.8644
  144OSM    H5F15865   2.522   0.082   7.440  1.6291 -1.0393  4.3840
  144OSM    H5G15866   2.495   0.248   7.409 -0.8001 -0.8610  1.7469
  144OSM    C6F15867   2.628   0.215   7.573 -0.1321 -0.3985  0.2833
  144OSM    H6F15868   2.717   0.153   7.598  2.4826  1.8665 -3.0676
  144OSM    H6G15869   2.541   0.211   7.642 -0.5805 -2.5646 -0.3945
  144OSM    C7F15870   2.678   0.363   7.564  0.5313  0.8000 -0.3367
  144OSM    H7F15871   2.613   0.405   7.484 -0.7537  0.0567  0.2990
  144OSM    H7G15872   2.774   0.373   7.509 -0.8169  4.2797 -2.2342
  144OSM    C8F15873   2.682   0.450   7.691  0.1466 -0.1088  0.2077
  144OSM    H8F15874   2.582   0.476   7.732 -0.0712 -2.1215  1.0147
  144OSM    H8G15875   2.742   0.542   7.675  1.1389 -1.1726 -2.6229
  144OSM    C9F15876   2.759   0.361   7.792  0.1730  0.1433  0.3610
  144OSM    H9F15877   2.867   0.363   7.773  0.0881 -0.1377 -0.1551
  144OSM   C10F15878   2.709   0.301   7.902  0.3224 -0.5794  0.3763
  144OSM   H10F15879   2.776   0.247   7.970 -0.2116  0.2909  1.6071
  144OSM   C11F15880   2.562   0.316   7.943 -0.3134  0.2605  0.0041
  144OSM   H11F15881   2.495   0.243   7.893  1.6755 -1.7314  0.1457
  144OSM   H11G15882   2.524   0.419   7.929  0.9940  0.8606  0.8662
  144OSM   C12F15883   2.554   0.299   8.099 -0.5130  0.7259  0.7220
  144OSM   H12F15884   2.596   0.203   8.135  0.1152  0.8842  0.4312
  144OSM   H12G15885   2.448   0.292   8.130 -0.4315  0.6388  0.9847
  144OSM   C13F15886   2.632   0.408   8.184  0.1278  0.0289  0.0434
  144OSM   H13F15887   2.603   0.512   8.158 -0.3831 -0.1284 -0.0344
  144OSM   H13G15888   2.741   0.391   8.172  0.5796  1.9403  1.2075
  144OSM   C14F15889   2.592   0.409   8.337 -0.1372  0.1158 -0.5349
  144OSM   H14F15890   2.483   0.401   8.358  0.0955 -1.4695  0.1802
  144OSM   H14G15891   2.620   0.505   8.385 -2.3620  0.5986 -0.1614
  144OSM   C15F15892   2.663   0.294   8.411  0.0114  0.4288 -0.0196
  144OSM   H15F15893   2.772   0.305   8.395  0.1624 -0.4010  0.4153
  144OSM   H15G15894   2.642   0.195   8.365  0.5317  1.0543 -1.6199
  144OSM   C16F15895   2.617   0.274   8.557  0.4438 -0.1196  0.0618
  144OSM   H16F15896   2.646   0.360   8.622  0.1391  1.0658 -1.3612
  144OSM   H16G15897   2.677   0.184   8.583 -0.3399 -0.6105  0.1948
  144OSM   C17F15898   2.472   0.258   8.578  0.4682 -0.2241  0.6239
  144OSM   H17F15899   2.433   0.177   8.512  2.3363  1.5992 -2.8888
  144OSM   H17G15900   2.412   0.342   8.538  1.1854 -0.8640 -1.8716
  144OSM   C18F15901   2.423   0.235   8.720 -0.0060  0.1727  0.7159
  144OSM   H18F15902   2.448   0.316   8.791  0.6215 -1.1473  2.0203
  144OSM   H18G15903   2.467   0.144   8.764  0.9229 -0.8760 -2.2376
  144OSM   H18H15904   2.313   0.220   8.715  0.3865 -2.4621 -0.8662
  145SAPE     N15905   0.361   0.325  10.844  0.2294 -0.1994  0.3523
  145SAPE   HN115906   0.393   0.246  10.904  0.5438  0.0508  0.5140
  145SAPE   HN215907   0.401   0.413  10.881  0.0217  0.3141 -0.6401
  145SAPE   HN315908   0.259   0.325  10.865  0.2750  1.4280  0.6283
  145SAPE   C1215909   0.382   0.296  10.704 -0.1478 -0.1470  0.2126
  145SAPE  H12A15910   0.323   0.210  10.666 -0.6551  0.9474 -1.5176
  145SAPE  H12B15911   0.490   0.276  10.690 -0.6073 -0.7908 -2.7668
  145SAPE   C1115912   0.345   0.416  10.612 -0.0016 -0.7915 -0.4505
  145SAPE  H11A15913   0.235   0.427  10.622 -0.1196 -2.9225  0.7261
  145SAPE  H11B15914   0.372   0.386  10.508 -0.2586 -1.5735 -0.2913
  145SAPE     P15915   0.553   0.566  10.616  0.0415 -0.1631  0.1360
  145SAPE   O1315916   0.588   0.710  10.639  0.5632 -0.3383 -0.2145
  145SAPE   O1415917   0.643   0.466  10.669  0.1950 -0.2234 -0.0789
  145SAPE   O1215918   0.404   0.538  10.659 -0.0167  0.0153  0.0720
  145SAPE   O1115919   0.550   0.552  10.458 -0.1536  0.0846 -0.2444
  145SAPE    C115920   0.460   0.635  10.380 -0.5331  0.0985 -0.2733
  145SAPE    HA15921   0.405   0.571  10.309  0.7223  0.3664 -1.4996
  145SAPE    HB15922   0.383   0.681  10.446  0.9144  1.0580  0.7797
  145SAPE    C215923   0.545   0.749  10.319 -0.1579  0.4738  0.2022
  145SAPE    HS15924   0.649   0.727  10.350 -0.9722  0.1853  2.8519
  145SAPE   O2115925   0.492   0.869  10.375  0.1237 -0.2674  0.3671
  145SAPE   C2115926   0.581   0.980  10.373 -0.2950 -0.1468  0.3703
  145SAPE   O2215927   0.694   0.968  10.327  0.0896 -0.4244 -0.6302
  145SAPE   C2215928   0.511   1.101  10.432 -0.2119  0.2292 -0.4140
  145SAPE   H2R15929   0.412   1.114  10.382  0.3320  1.9695 -1.0819
  145SAPE   H2S15930   0.497   1.080  10.540  0.1067 -1.9662 -0.7832
  145SAPE    C315931   0.543   0.747  10.159 -0.4649 -0.0315 -0.5517
  145SAPE    HX15932   0.614   0.825  10.125 -0.1688 -1.0336 -2.3050
  145SAPE    HY15933   0.443   0.784  10.128 -0.7296  0.2569  0.6022
  145SAPE   O3115934   0.567   0.611  10.096 -0.1087 -0.3492  0.1841
  145SAPE   C3115935   0.487   0.580   9.998  0.6877 -0.4692 -0.0404
  145SAPE   O3215936   0.413   0.659   9.938 -0.2324  0.5023 -0.0493
  145SAPE   C3215937   0.501   0.426   9.975 -0.2225 -0.2015 -0.4375
  145SAPE   H2X15938   0.429   0.385  10.050 -1.4546  3.1633  0.3147
  145SAPE   H2Y15939   0.598   0.382  10.005 -0.1092  0.5706  0.3567
  145SAPE   C2315940   0.604   1.230  10.419  0.0400  0.7145 -0.3719
  145SAPE   H3R15941   0.711   1.213  10.445 -1.1513 -0.2721  4.3763
  145SAPE   H3S15942   0.554   1.304  10.486 -2.7848 -1.0368 -0.4559
  145SAPE   C2415943   0.589   1.310  10.280  0.1247 -0.0456 -0.0489
  145SAPE   H4R15944   0.651   1.258  10.204 -0.1053  0.3416 -0.5062
  145SAPE   H4S15945   0.643   1.405  10.300 -0.7999  0.9137 -1.9687
  145SAPE   C2515946   0.445   1.329  10.246  0.5312 -0.7043  0.4032
  145SAPE   H5R15947   0.387   1.403  10.303  0.1087 -2.2981  2.1137
  145SAPE   C2615948   0.384   1.278  10.139 -0.4794  0.1773 -0.2067
  145SAPE   H6R15949   0.278   1.301  10.122 -0.6102  1.0626  1.6491
  145SAPE   C2715950   0.453   1.193  10.028 -0.4347 -0.1454 -0.4399
  145SAPE   H7R15951   0.504   1.107  10.076  1.2516  1.6961  1.0875
  145SAPE   H7S15952   0.532   1.254   9.981 -0.6469 -1.5731 -2.7620
  145SAPE   C2815953   0.370   1.140   9.914  0.1136  0.6352 -0.2414
  145SAPE   H8R15954   0.302   1.057   9.935  1.9377 -0.5907  0.8860
  145SAPE   C2915955   0.350   1.199   9.797  0.1535 -0.0071 -0.0736
  145SAPE   H9R15956   0.286   1.152   9.721 -1.4623  2.6722 -0.4099
  145SAPE  C21015957   0.396   1.335   9.751  0.0658 -0.5230 -0.0442
  145SAPE  H10R15958   0.496   1.326   9.704  0.4327 -0.3807  0.6974
  145SAPE  H10S15959   0.411   1.403   9.838 -1.3109 -0.8006  0.4136
  145SAPE  C21115960   0.300   1.403   9.658 -0.6632 -0.1539  0.1886
  145SAPE  H11R15961   0.210   1.445   9.704 -0.8560  1.7196 -1.8623
  145SAPE  C21215962   0.312   1.408   9.522  0.6533 -0.0837 -0.1086
  145SAPE  H12R15963   0.242   1.469   9.462 -1.0023 -0.8026  1.0408
  145SAPE  C21315964   0.420   1.347   9.440  0.1169 -0.7517 -0.0639
  145SAPE  H13R15965   0.500   1.303   9.504  1.3065  2.8282  1.0441
  145SAPE  H13S15966   0.482   1.427   9.395 -0.0266  0.5504  2.0030
  145SAPE  C21415967   0.366   1.252   9.338 -0.2136 -0.2705 -0.6489
  145SAPE  H14R15968   0.349   1.147   9.365  1.8240 -0.2818  0.6744
  145SAPE  C21515969   0.308   1.280   9.218 -0.4905 -0.2943  0.0237
  145SAPE  H15R15970   0.275   1.194   9.158  0.8785 -0.6267 -0.2486
  145SAPE  C21615971   0.294   1.418   9.157 -0.5714 -0.9162  0.5001
  145SAPE  H16R15972   0.341   1.491   9.226  0.0559 -0.5763 -0.2791
  145SAPE  H16S15973   0.190   1.453   9.147 -0.5730 -0.3752  2.2953
  145SAPE  C21715974   0.352   1.417   9.012  0.2341  0.0743  0.2726
  145SAPE  H17R15975   0.453   1.371   9.006 -0.3540 -1.0689 -1.1613
  145SAPE  H17S15976   0.365   1.522   8.979  0.6246 -0.4121 -1.1301
  145SAPE  C21815977   0.253   1.350   8.913  1.4121  0.2014  0.1273
  145SAPE  H18R15978   0.158   1.386   8.957  0.9105 -0.9544  0.0052
  145SAPE  H18S15979   0.261   1.240   8.899  0.0059  0.1697 -0.4778
  145SAPE  C21915980   0.277   1.403   8.769 -0.0672  0.9452 -0.0383
  145SAPE  H19R15981   0.386   1.395   8.749  0.4759  0.1953  2.9860
  145SAPE  H19S15982   0.246   1.509   8.763 -1.8034  0.4962  0.4130
  145SAPE  C22015983   0.205   1.312   8.671 -0.1660 -0.2007 -0.4346
  145SAPE  H20R15984   0.242   1.208   8.687 -0.7310 -0.3292  0.0213
  145SAPE  H20S15985   0.228   1.333   8.564  1.4682  0.9035  0.1045
  145SAPE  H20T15986   0.095   1.318   8.682 -0.1615  1.3583 -1.1591
  145SAPE   C3315987   0.455   0.392   9.838 -0.3751 -0.1622 -0.4160
  145SAPE   H3X15988   0.365   0.436   9.791 -0.9721 -1.0392 -0.0938
  145SAPE   H3Y15989   0.446   0.282   9.847  0.3207 -0.1132  1.0571
  145SAPE   C3415990   0.561   0.408   9.730  0.8523  0.6386 -0.2352
  145SAPE   H4X15991   0.658   0.366   9.765  0.8485 -0.2282 -1.2169
  145SAPE   H4Y15992   0.585   0.514   9.708  0.8732  0.8161  0.6499
  145SAPE   C3515993   0.517   0.353   9.591  0.3281 -0.0555 -0.4947
  145SAPE   H5X15994   0.425   0.412   9.569 -0.7804 -0.8787  1.6768
  145SAPE   H5Y15995   0.475   0.250   9.591  1.8223 -0.6833  0.4546
  145SAPE   C3615996   0.617   0.389   9.477 -0.2316  0.1721  0.8026
  145SAPE   H6X15997   0.718   0.354   9.506 -1.0571 -1.4237  1.8584
  145SAPE   H6Y15998   0.617   0.500   9.476  3.4196  0.2264  1.1469
  145SAPE   C3715999   0.571   0.329   9.343 -0.0222 -0.0246  0.0021
  145SAPE   H7X16000   0.477   0.381   9.317  1.2225  2.4995  0.4095
  145SAPE   H7Y16001   0.547   0.221   9.359  0.7020 -0.3545 -1.0823
  145SAPE   C3816002   0.673   0.333   9.230 -0.4796  0.1942 -0.7811
  145SAPE   H8X16003   0.643   0.269   9.144 -0.0340 -0.3128 -0.5617
  145SAPE   H8Y16004   0.768   0.298   9.274 -0.9716 -0.7321 -0.4436
  145SAPE   C3916005   0.696   0.469   9.172 -0.2264  0.0742 -0.4951
  145SAPE   H9X16006   0.706   0.544   9.254 -3.0506  0.2573 -0.2692
  145SAPE   H9Y16007   0.607   0.493   9.109  0.5194 -0.5158 -1.7746
  145SAPE  C31016008   0.825   0.471   9.081  0.3249  0.2168 -0.2691
  145SAPE  H10X16009   0.814   0.391   9.005  1.6326 -3.5515  3.3354
  145SAPE  H10Y16010   0.913   0.450   9.144 -1.1221 -3.2347  0.7257
  145SAPE  C31116011   0.838   0.604   9.007  0.0323  0.4076  0.3911
  145SAPE  H11X16012   0.839   0.695   9.070  0.4432  1.5490 -1.2489
  145SAPE  H11Y16013   0.753   0.610   8.935  1.3354 -2.3501 -1.4649
  145SAPE  C31216014   0.973   0.617   8.938 -0.7217 -0.0469 -0.4334
  145SAPE  H12X16015   0.971   0.540   8.858  0.1326  1.4562 -1.9361
  145SAPE  H12Y16016   1.063   0.603   9.001 -1.7349  1.1376  1.3124
  145SAPE  C31316017   0.991   0.750   8.859 -0.4069 -0.2217  0.0482
  145SAPE  H13X16018   1.024   0.831   8.927 -1.5851 -0.5748  1.0720
  145SAPE  H13Y16019   0.896   0.776   8.806 -0.2916  1.1629  0.5116
  145SAPE  C31416020   1.095   0.738   8.751  0.6755 -0.1276 -0.1732
  145SAPE  H14X16021   1.080   0.640   8.701 -1.4559 -0.6624  1.4261
  145SAPE  H14Y16022   1.191   0.741   8.805  0.7664 -2.5849 -0.1553
  145SAPE  C31516023   1.082   0.844   8.638  0.4909  0.3533  0.3468
  145SAPE  H15X16024   1.115   0.945   8.670 -0.0835  0.6820 -0.0959
  145SAPE  H15Y16025   0.979   0.841   8.596  0.4101  1.0253  0.4991
  145SAPE  C31616026   1.163   0.799   8.511 -0.3946  0.2978  0.5020
  145SAPE  H16X16027   1.141   0.696   8.478 -0.5577  1.1014 -2.0191
  145SAPE  H16Y16028   1.271   0.809   8.537 -0.5579  2.2360  0.5554
  145SAPE  C31716029   1.136   0.905   8.400 -0.2441 -0.2827 -0.3379
  145SAPE  H17X16030   1.213   0.985   8.402  0.7244 -1.1456 -1.7110
  145SAPE  H17Y16031   1.029   0.933   8.412 -0.6455 -1.6182 -0.6464
  145SAPE  C31816032   1.141   0.841   8.269  0.1212 -0.0340 -0.1553
  145SAPE  H18X16033   1.247   0.839   8.237  0.2933  1.3334  0.2859
  145SAPE  H18Y16034   1.099   0.907   8.191  0.1543  0.5644  0.3253
  145SAPE  H18Z16035   1.093   0.740   8.266  1.2541 -0.5635 -0.5596
  146SAPE     N16036   6.712   1.925  10.930  0.1523 -0.5383 -0.4588
  146SAPE   HN116037   6.736   1.832  10.892  0.0234  0.2564 -2.5367
  146SAPE   HN216038   6.762   1.937  11.021  0.3423  0.4911 -0.6963
  146SAPE   HN316039   6.610   1.941  10.942  0.1670 -0.1679 -0.8250
  146SAPE   C1216040   6.764   2.024  10.830 -0.4696  0.6184 -0.6767
  146SAPE  H12A16041   6.873   2.015  10.813 -0.6461 -2.0802 -0.5472
  146SAPE  H12B16042   6.759   2.128  10.869  0.4124  0.3043  0.2939
  146SAPE   C1116043   6.681   2.022  10.700 -0.0585  0.0469 -0.5549
  146SAPE  H11A16044   6.708   2.103  10.629 -1.2143  1.2512  0.3513
  146SAPE  H11B16045   6.576   2.043  10.728 -0.1013  1.0042 -1.4300
  146SAPE     P16046   6.560   1.811  10.598 -0.1826 -0.0577  0.0469
  146SAPE   O1316047   6.605   1.684  10.527 -0.4170 -0.3033 -0.2105
  146SAPE   O1416048   6.477   1.798  10.722  0.3021 -0.2663  0.1765
  146SAPE   O1216049   6.692   1.896  10.635 -0.1937  0.2959  0.4017
  146SAPE   O1116050   6.483   1.910  10.495  0.3118 -0.1485 -0.2394
  146SAPE    C116051   6.535   1.930  10.365  0.1093 -0.2666  0.0236
  146SAPE    HA16052   6.646   1.937  10.368  0.1358 -1.1748  1.6559
  146SAPE    HB16053   6.507   1.841  10.306 -0.9671 -0.4553  0.8075
  146SAPE    C216054   6.486   2.066  10.301 -0.2762  0.1566 -0.0405
  146SAPE    HS16055   6.499   2.135  10.387 -1.5035  0.4178 -0.0551
  146SAPE   O2116056   6.354   2.039  10.247  0.1142  1.1702 -0.2901
  146SAPE   C2116057   6.285   2.143  10.205  0.4001  0.0392  1.0951
  146SAPE   O2216058   6.326   2.256  10.187 -0.1517  0.1459 -0.1460
  146SAPE   C2216059   6.150   2.094  10.166 -1.0957  0.0360  0.2317
  146SAPE   H2R16060   6.152   2.050  10.064 -2.3737 -0.0861  0.2513
  146SAPE   H2S16061   6.134   2.008  10.235  0.8153 -0.2472  0.3590
  146SAPE    C316062   6.587   2.100  10.193 -0.2065 -0.3119  0.0120
  146SAPE    HX16063   6.562   2.202  10.157  1.0017 -0.1334 -0.3421
  146SAPE    HY16064   6.579   2.019  10.118 -0.2934  0.4735 -0.8392
  146SAPE   O3116065   6.722   2.112  10.244 -0.2678 -0.4402  0.8089
  146SAPE   C3116066   6.809   2.103  10.155 -0.1547 -0.4468 -0.0108
  146SAPE   O3216067   6.791   2.077  10.035  0.4524 -0.5009  0.1092
  146SAPE   C3216068   6.952   2.119  10.216 -0.6874  0.2334  0.0783
  146SAPE   H2X16069   6.966   2.033  10.285 -2.8047  1.0891  1.6140
  146SAPE   H2Y16070   6.954   2.216  10.270  0.8514 -0.1673  0.7677
  146SAPE   C2316071   6.035   2.204  10.173 -0.2185 -0.5727 -0.0097
  146SAPE   H3R16072   6.036   2.258  10.271  1.0145  2.3309 -1.5782
  146SAPE   H3S16073   5.942   2.143  10.163 -0.4124 -0.3086  0.1355
  146SAPE   C2416074   6.038   2.307  10.056 -0.4935  0.1289  0.0544
  146SAPE   H4R16075   6.140   2.348  10.040 -0.7996  0.4268 -1.2256
  146SAPE   H4S16076   5.975   2.389  10.095  0.7903  0.8858  0.5475
  146SAPE   C2516077   5.989   2.254   9.927  0.4902  0.4808 -0.4355
  146SAPE   H5R16078   5.883   2.237   9.904  0.7374 -1.1090 -0.4598
  146SAPE   C2616079   6.068   2.228   9.821 -0.7471 -0.3395  0.4930
  146SAPE   H6R16080   6.030   2.195   9.723  3.5307 -1.5668 -0.8386
  146SAPE   C2716081   6.218   2.239   9.820 -0.5442 -0.1588 -0.0769
  146SAPE   H7R16082   6.255   2.250   9.924  1.1219 -0.7968 -0.5833
  146SAPE   H7S16083   6.245   2.336   9.774  1.3306 -0.4997  0.2471
  146SAPE   C2816084   6.294   2.129   9.750  0.2375 -0.2468  0.3877
  146SAPE   H8R16085   6.246   2.038   9.711 -0.9576  0.2296  0.7444
  146SAPE   C2916086   6.421   2.138   9.718 -0.2664 -0.5341  0.5663
  146SAPE   H9R16087   6.472   2.050   9.676  0.9414  0.7181 -0.6263
  146SAPE  C21016088   6.512   2.251   9.759 -0.0891 -0.6137 -0.1910
  146SAPE  H10R16089   6.477   2.288   9.857 -3.1897  0.6158 -1.6867
  146SAPE  H10S16090   6.504   2.335   9.686  3.1123  0.0895  0.1936
  146SAPE  C21116091   6.657   2.219   9.771  0.2692 -0.3474 -0.4745
  146SAPE  H11R16092   6.698   2.228   9.873 -2.7284  0.0991  0.7686
  146SAPE  C21216093   6.743   2.179   9.680  0.2743 -0.2291 -0.1224
  146SAPE  H12R16094   6.842   2.153   9.719 -0.0744  0.0361  0.9327
  146SAPE  C21316095   6.717   2.153   9.533 -0.3597  0.5271 -0.4579
  146SAPE  H13R16096   6.814   2.153   9.478  0.1575  0.7927  0.4343
  146SAPE  H13S16097   6.663   2.239   9.489 -1.8910 -1.1101 -1.8627
  146SAPE  C21416098   6.641   2.038   9.498 -0.2402  0.2232 -0.6506
  146SAPE  H14R16099   6.634   1.960   9.576 -1.3023 -0.9275 -1.8755
  146SAPE  C21516100   6.594   2.012   9.375 -0.1159  0.0025 -0.1336
  146SAPE  H15R16101   6.524   1.928   9.385  0.1021  0.2081  4.0104
  146SAPE  C21616102   6.611   2.098   9.254  1.0301 -0.2413 -0.3631
  146SAPE  H16R16103   6.633   2.032   9.167 -2.6669 -0.8869 -0.8641
  146SAPE  H16S16104   6.689   2.177   9.261  0.4775  0.1691  1.2429
  146SAPE  C21716105   6.484   2.178   9.208  0.3577  0.3132  0.9631
  146SAPE  H17R16106   6.535   2.253   9.144 -1.2146 -0.5790 -1.4400
  146SAPE  H17S16107   6.430   2.244   9.279 -1.6480  0.0020 -0.2378
  146SAPE  C21816108   6.380   2.091   9.125 -0.5006 -0.4397  0.0719
  146SAPE  H18R16109   6.299   2.053   9.190 -1.0308 -1.9665 -1.4385
  146SAPE  H18S16110   6.426   2.001   9.079  1.1949 -0.0761  1.0299
  146SAPE  C21916111   6.323   2.182   9.012 -0.1762  0.0962 -0.1489
  146SAPE  H19R16112   6.295   2.287   9.037 -2.5376 -0.6270  0.3496
  146SAPE  H19S16113   6.228   2.136   8.977 -0.8841  1.5401 -0.1907
  146SAPE  C22016114   6.409   2.189   8.886  0.5609  0.0747  0.5395
  146SAPE  H20R16115   6.364   2.249   8.804  2.5622 -0.0714 -0.6910
  146SAPE  H20S16116   6.431   2.089   8.844 -2.9376 -0.2542 -0.6819
  146SAPE  H20T16117   6.505   2.237   8.913  0.2640 -0.3921  2.5084
  146SAPE   C3316118   7.058   2.135  10.107  0.4444  0.0317 -0.5057
  146SAPE   H3X16119   7.041   2.054  10.032 -2.1355  0.5071 -0.4523
  146SAPE   H3Y16120   7.159   2.128  10.154  0.7500  1.0971 -0.9739
  146SAPE   C3416121   7.058   2.272  10.039 -0.5081  0.4187 -0.2724
  146SAPE   H4X16122   7.064   2.351  10.117 -0.3923 -1.3642  1.5663
  146SAPE   H4Y16123   6.958   2.300   9.998  0.3233  2.2571 -1.1194
  146SAPE   C3516124   7.173   2.297   9.938 -0.3237  0.5791  0.6489
  146SAPE   H5X16125   7.276   2.293   9.980 -0.4558 -1.6591  0.8362
  146SAPE   H5Y16126   7.160   2.404   9.908 -2.2635  0.2642  0.2516
  146SAPE   C3616127   7.159   2.220   9.808  0.4478  0.0334 -0.3769
  146SAPE   H6X16128   7.051   2.224   9.781 -0.2672  1.6882  2.5333
  146SAPE   H6Y16129   7.182   2.114   9.832  0.0538 -0.0919 -0.5498
  146SAPE   C3716130   7.246   2.273   9.691  0.2694  0.6920 -0.2897
  146SAPE   H7X16131   7.353   2.261   9.719  0.4769  2.4586 -0.2236
  146SAPE   H7Y16132   7.227   2.383   9.698 -0.9397  0.4102  1.0702
  146SAPE   C3816133   7.211   2.227   9.551 -0.0684 -0.5006 -0.5185
  146SAPE   H8X16134   7.114   2.175   9.567  1.2848 -1.7485  4.3645
  146SAPE   H8Y16135   7.289   2.154   9.521  1.1818 -0.4048  2.3667
  146SAPE   C3916136   7.196   2.331   9.436 -0.2737  0.6147 -0.1286
  146SAPE   H9X16137   7.292   2.387   9.439  0.0789 -0.0129  0.3754
  146SAPE   H9Y16138   7.124   2.405   9.476 -1.5535 -1.6494  1.8841
  146SAPE  C31016139   7.173   2.261   9.309 -0.1082  0.4933  1.1673
  146SAPE  H10X16140   7.077   2.205   9.313  0.5906 -0.7288  1.1208
  146SAPE  H10Y16141   7.251   2.183   9.295  0.1527  0.8111  0.8128
  146SAPE  C31116142   7.172   2.350   9.180 -0.3661  0.7997  0.1646
  146SAPE  H11X16143   7.272   2.397   9.171  0.3285 -0.7423 -0.3509
  146SAPE  H11Y16144   7.108   2.440   9.192 -1.4915  0.0391 -0.0576
  146SAPE  C31216145   7.117   2.271   9.058 -0.0167  0.1950 -0.8573
  146SAPE  H12X16146   7.015   2.238   9.087  0.8461 -2.9154 -1.1573
  146SAPE  H12Y16147   7.181   2.181   9.042 -3.1528 -2.7903  2.4560
  146SAPE  C31316148   7.102   2.367   8.934 -0.3603  0.3244  1.0313
  146SAPE  H13X16149   7.207   2.386   8.902 -0.7226 -2.2283 -1.8795
  146SAPE  H13Y16150   7.047   2.459   8.963 -1.3199 -0.6486  2.3211
  146SAPE  C31416151   7.021   2.302   8.824 -0.4907 -0.0351  0.7053
  146SAPE  H14X16152   6.913   2.302   8.851 -0.1239  0.5170  2.2535
  146SAPE  H14Y16153   7.056   2.197   8.811 -0.1270  0.2449 -0.5965
  146SAPE  C31516154   7.034   2.372   8.687 -0.3434 -0.3040  0.7352
  146SAPE  H15X16155   7.142   2.354   8.667 -0.8635 -0.3227 -2.3678
  146SAPE  H15Y16156   7.004   2.479   8.690 -0.3278 -0.3101  1.2074
  146SAPE  C31616157   6.955   2.303   8.580 -0.0350 -0.2865 -0.4050
  146SAPE  H16X16158   6.851   2.330   8.606 -0.4539 -0.0416 -2.3013
  146SAPE  H16Y16159   6.950   2.194   8.602 -1.7246  0.1901  1.7062
  146SAPE  C31716160   6.986   2.348   8.441  0.4043  0.5936  0.9187
  146SAPE  H17X16161   7.086   2.333   8.395 -1.9348 -2.9266 -3.3935
  146SAPE  H17Y16162   6.968   2.458   8.440  0.0421  0.5365  1.0109
  146SAPE  C31816163   6.889   2.295   8.327  0.5693  0.6359 -0.8332
  146SAPE  H18X16164   6.911   2.329   8.224  0.9971 -0.9562 -1.2862
  146SAPE  H18Y16165   6.785   2.316   8.360  2.0762  2.6092  3.0039
  146SAPE  H18Z16166   6.893   2.184   8.334  2.0237  0.7247  0.0512
  147SAPE     N16167   1.614   4.700  11.037 -0.8611 -0.5835  0.2460
  147SAPE   HN116168   1.696   4.761  11.051 -2.8692  2.1986  0.2441
  147SAPE   HN216169   1.534   4.715  11.103  0.5162 -2.0848  2.3143
  147SAPE   HN316170   1.654   4.605  11.048 -0.1491 -0.3703 -0.5504
  147SAPE   C1216171   1.558   4.721  10.899 -0.1641 -0.1104 -0.1470
  147SAPE  H12A16172   1.536   4.622  10.853  0.5208 -0.3218 -0.0254
  147SAPE  H12B16173   1.639   4.767  10.838 -1.0329 -0.5887 -1.6879
  147SAPE   C1116174   1.429   4.809  10.901  0.1186 -0.6135  0.5779
  147SAPE  H11A16175   1.416   4.853  10.799 -3.1850 -0.0869  1.1534
  147SAPE  H11B16176   1.450   4.896  10.967  2.4927 -0.5880 -0.1698
  147SAPE     P16177   1.171   4.811  10.916 -0.0122 -0.3105  0.2009
  147SAPE   O1316178   1.061   4.748  10.990  0.4136 -0.1541 -0.0260
  147SAPE   O1416179   1.192   4.955  10.956  0.3861 -0.1970  0.2683
  147SAPE   O1216180   1.315   4.735  10.940  0.8641 -0.1867 -0.3366
  147SAPE   O1116181   1.144   4.798  10.758  0.3891 -0.3740 -0.3099
  147SAPE    C116182   1.144   4.662  10.701 -0.7439 -0.5762  0.2682
  147SAPE    HA16183   1.152   4.589  10.784  1.2127 -0.8051 -0.1174
  147SAPE    HB16184   1.051   4.642  10.642  0.0195 -1.1322 -0.7587
  147SAPE    C216185   1.262   4.632  10.603 -0.7921  1.2274 -0.3737
  147SAPE    HS16186   1.361   4.642  10.652 -1.0224  1.0585  0.1314
  147SAPE   O2116187   1.255   4.721  10.486 -1.0228 -0.2275  0.4238
  147SAPE   C2116188   1.320   4.833  10.492 -0.0485  0.1810 -0.9774
  147SAPE   O2216189   1.401   4.867  10.580 -0.6830 -0.3241 -0.2450
  147SAPE   C2216190   1.292   4.902  10.361  0.6400  0.0100 -0.6676
  147SAPE   H2R16191   1.337   4.838  10.282  0.8707  0.1193 -0.6269
  147SAPE   H2S16192   1.181   4.901  10.351  0.6261 -0.1005 -0.4988
  147SAPE    C316193   1.262   4.483  10.553 -0.5995  0.1539  0.1864
  147SAPE    HX16194   1.300   4.422  10.637 -1.8283 -1.4624 -0.4050
  147SAPE    HY16195   1.336   4.462  10.472 -1.5439 -2.5642 -0.0465
  147SAPE   O3116196   1.135   4.443  10.497 -0.6232 -0.1356  0.1878
  147SAPE   C3116197   1.101   4.310  10.521  0.5781 -0.1568 -0.1208
  147SAPE   O3216198   1.166   4.235  10.591 -0.1229  0.1392 -0.3726
  147SAPE   C3216199   0.968   4.268  10.461  0.3427 -0.9902  0.2251
  147SAPE   H2X16200   0.927   4.359  10.413  1.5275 -0.8246 -0.5186
  147SAPE   H2Y16201   0.897   4.237  10.540 -1.5637  1.3437 -0.5018
  147SAPE   C2316202   1.348   5.045  10.356  0.6007  0.3743 -0.4004
  147SAPE   H3R16203   1.458   5.046  10.372  0.8651  0.2031 -2.1721
  147SAPE   H3S16204   1.301   5.107  10.436 -0.8097 -1.9696  0.6367
  147SAPE   C2416205   1.334   5.121  10.225 -0.0442  0.5340  0.8228
  147SAPE   H4R16206   1.384   5.055  10.150  1.3010 -0.0220  2.1858
  147SAPE   H4S16207   1.379   5.222  10.232 -1.1661  1.1227 -0.3456
  147SAPE   C2516208   1.183   5.128  10.189 -0.5008  0.1232  0.4676
  147SAPE   H5R16209   1.119   5.138  10.278  0.2164  0.9431  0.9075
  147SAPE   C2616210   1.124   5.101  10.080  0.0875 -0.4242 -0.1731
  147SAPE   H6R16211   1.014   5.103  10.080  0.0506  0.4007  3.7356
  147SAPE   C2716212   1.179   5.049   9.950 -0.5222  0.3226 -0.9975
  147SAPE   H7R16213   1.280   5.004   9.961 -0.4695  0.8005  0.5691
  147SAPE   H7S16214   1.187   5.143   9.891 -3.1321  3.1437  2.8546
  147SAPE   C2816215   1.100   4.943   9.880  0.2883  0.2584  0.3375
  147SAPE   H8R16216   1.006   4.907   9.926  0.7423  2.7084  3.3839
  147SAPE   C2916217   1.129   4.895   9.755 -0.1666 -0.5493 -0.2461
  147SAPE   H9R16218   1.067   4.820   9.704 -0.0901 -0.1775 -0.8919
  147SAPE  C21016219   1.243   4.939   9.675  0.6821  0.4027 -0.6153
  147SAPE  H10R16220   1.303   5.012   9.734 -1.2188  2.7958 -1.5212
  147SAPE  H10S16221   1.214   5.006   9.591  1.9824  0.9838 -0.6214
  147SAPE  C21116222   1.334   4.832   9.617  0.3212 -0.3108 -0.2340
  147SAPE  H11R16223   1.403   4.796   9.695 -0.9333 -0.1488  0.9834
  147SAPE  C21216224   1.331   4.768   9.498  0.3925 -0.0164  0.4339
  147SAPE  H12R16225   1.405   4.688   9.484  0.5954 -0.0982  1.8824
  147SAPE  C21316226   1.233   4.795   9.391 -0.6562  0.3836  0.3008
  147SAPE  H13R16227   1.262   4.882   9.329 -1.2255 -1.3167 -2.4251
  147SAPE  H13S16228   1.135   4.811   9.440 -0.4181  0.4573  0.7597
  147SAPE  C21416229   1.220   4.672   9.303 -0.1534  0.7257 -0.6167
  147SAPE  H14R16230   1.204   4.576   9.354  1.3971  1.4254  1.2340
  147SAPE  C21516231   1.246   4.668   9.171  0.5865  0.3212  0.0890
  147SAPE  H15R16232   1.230   4.575   9.113 -2.0979 -0.6195  2.1990
  147SAPE  C21616233   1.273   4.792   9.094  0.4301  0.6164  0.9415
  147SAPE  H16R16234   1.294   4.766   8.988 -0.1063 -1.2345  1.2720
  147SAPE  H16S16235   1.359   4.850   9.136  1.3137 -0.5037  0.7132
  147SAPE  C21716236   1.154   4.900   9.060  0.2346 -0.9382  0.0142
  147SAPE  H17R16237   1.194   5.003   9.049  1.7342 -1.1894  2.5964
  147SAPE  H17S16238   1.088   4.912   9.149 -0.7807  1.5811 -1.0333
  147SAPE  C21816239   1.054   4.857   8.952 -0.5557 -0.1610 -0.3016
  147SAPE  H18R16240   1.027   4.752   8.975  1.4352 -0.5637  0.2915
  147SAPE  H18S16241   1.097   4.869   8.850 -0.5194  1.1344 -0.1419
  147SAPE  C21916242   0.928   4.936   8.942  0.1041  0.5364 -0.3340
  147SAPE  H19R16243   0.951   5.040   8.913 -0.4081  0.7067 -0.1335
  147SAPE  H19S16244   0.889   4.936   9.046  1.3066  2.5935  0.1506
  147SAPE  C22016245   0.825   4.871   8.853 -0.1670 -0.3534  0.1384
  147SAPE  H20R16246   0.864   4.877   8.749  1.3913 -1.4918  0.6318
  147SAPE  H20S16247   0.733   4.932   8.866 -1.5118 -2.0197 -1.3505
  147SAPE  H20T16248   0.784   4.776   8.894 -1.5691 -0.7053 -2.0219
  147SAPE   C3316249   0.977   4.152  10.362  0.1141  0.5476 -0.2765
  147SAPE   H3X16250   0.875   4.127  10.327 -0.0445 -1.2798  1.3771
  147SAPE   H3Y16251   1.008   4.065  10.423 -0.9184  1.0423  0.9679
  147SAPE   C3416252   1.059   4.177  10.229  0.0581 -0.4785  0.7720
  147SAPE   H4X16253   1.166   4.149  10.243  0.7167  1.7021  0.3524
  147SAPE   H4Y16254   1.052   4.278  10.184 -1.9219 -1.0444 -0.2190
  147SAPE   C3516255   1.014   4.079  10.119  0.3788 -0.3996  0.3517
  147SAPE   H5X16256   0.904   4.085  10.107  0.6964  1.8158 -1.6993
  147SAPE   H5Y16257   1.039   3.971  10.133 -1.8039 -0.8886  0.6335
  147SAPE   C3616258   1.089   4.106   9.988 -0.3424  0.1322  0.0256
  147SAPE   H6X16259   1.200   4.102   9.997 -0.1625  3.0851 -0.4937
  147SAPE   H6Y16260   1.063   4.210   9.960 -0.7288  0.5211  1.8145
  147SAPE   C3716261   1.056   4.005   9.873  0.2778 -0.0256  0.2932
  147SAPE   H7X16262   0.947   3.994   9.854  0.2211 -0.4539  0.8644
  147SAPE   H7Y16263   1.073   3.900   9.902 -1.6553 -0.0494  1.4178
  147SAPE   C3816264   1.129   4.034   9.736 -0.1905 -0.0998  0.7992
  147SAPE   H8X16265   1.234   3.999   9.744 -0.1994 -0.6316 -1.3299
  147SAPE   H8Y16266   1.126   4.142   9.709  2.0643  0.1582  1.4383
  147SAPE   C3916267   1.067   3.962   9.617 -0.2473  0.7543  0.4051
  147SAPE   H9X16268   0.970   4.010   9.592 -1.9268 -2.7726 -0.1619
  147SAPE   H9Y16269   1.057   3.855   9.645 -2.9221  0.6507 -0.8480
  147SAPE  C31016270   1.153   3.965   9.485  0.0659  0.8415  0.7374
  147SAPE  H10X16271   1.251   3.914   9.502 -0.2033 -0.0122 -0.2166
  147SAPE  H10Y16272   1.175   4.072   9.467 -0.4786  0.5379 -1.9399
  147SAPE  C31116273   1.094   3.891   9.365  0.0631  0.2388  0.2182
  147SAPE  H11X16274   0.985   3.912   9.359 -0.5715 -2.7601  0.5351
  147SAPE  H11Y16275   1.095   3.781   9.383 -1.2784  0.2149  0.2007
  147SAPE  C31216276   1.162   3.924   9.233 -0.1944 -0.3813  0.3272
  147SAPE  H12X16277   1.255   3.864   9.232 -1.1262 -1.8622 -0.3121
  147SAPE  H12Y16278   1.203   4.027   9.235 -1.0036 -0.0777  2.5142
  147SAPE  C31316279   1.087   3.891   9.102 -0.1381  0.0913  0.2936
  147SAPE  H13X16280   1.007   3.967   9.102  0.6681  0.9546  0.3087
  147SAPE  H13Y16281   1.030   3.796   9.111 -0.7412  0.5706  1.6134
  147SAPE  C31416282   1.166   3.903   8.970 -0.1107 -0.3619  0.0241
  147SAPE  H14X16283   1.255   3.837   8.977  1.3192  1.6578  1.5884
  147SAPE  H14Y16284   1.189   4.011   8.953 -0.1521 -0.2516  0.6379
  147SAPE  C31516285   1.089   3.856   8.842  0.3131 -0.2373  0.0951
  147SAPE  H15X16286   1.072   3.747   8.851 -3.1449  0.1365 -0.9307
  147SAPE  H15Y16287   1.156   3.883   8.758  0.6689 -0.1365  0.4059
  147SAPE  C31616288   0.955   3.933   8.827  0.0475  0.2511  0.0150
  147SAPE  H16X16289   0.968   4.038   8.860  0.1176  0.4999 -0.7899
  147SAPE  H16Y16290   0.878   3.889   8.894  0.0622 -0.6219 -0.5271
  147SAPE  C31716291   0.875   3.932   8.693  0.0765  0.5678 -0.0663
  147SAPE  H17X16292   0.832   3.837   8.657  0.3235 -0.2595  1.7393
  147SAPE  H17Y16293   0.943   3.961   8.610  2.1756 -0.6293  1.2045
  147SAPE  C31816294   0.761   4.027   8.719  0.0258  0.0951 -0.3051
  147SAPE  H18X16295   0.799   4.130   8.735  0.6912 -0.0283 -1.0252
  147SAPE  H18Y16296   0.697   3.991   8.802 -1.4600 -0.2312 -1.5695
  147SAPE  H18Z16297   0.688   4.026   8.636 -0.4749 -2.2690  0.1221
  148SAPE     N16298   2.084   0.992  10.576  0.5120  0.3013 -0.0655
  148SAPE   HN116299   1.982   0.989  10.555  0.8764  0.2671 -1.8865
  148SAPE   HN216300   2.109   0.899  10.616  1.5908  0.1005 -1.1834
  148SAPE   HN316301   2.103   1.054  10.657  1.1482 -1.2649  1.0083
  148SAPE   C1216302   2.175   1.026  10.468  0.0879  0.5195  0.0246
  148SAPE  H12A16303   2.138   1.115  10.413  0.2411  0.8115  0.3944
  148SAPE  H12B16304   2.166   0.945  10.392 -1.5698  0.6885  0.0078
  148SAPE   C1116305   2.323   1.056  10.502  0.1890 -0.5960 -0.1690
  148SAPE  H11A16306   2.325   1.144  10.570  2.1600  0.4791 -1.5810
  148SAPE  H11B16307   2.379   1.082  10.410 -0.0681 -1.2776 -0.5241
  148SAPE     P16308   2.536   0.971  10.628  0.0736  0.0983  0.1923
  148SAPE   O1316309   2.599   1.092  10.567 -0.6048 -0.2014  0.1137
  148SAPE   O1416310   2.540   0.940  10.775  0.2354 -0.2683  0.3430
  148SAPE   O1216311   2.385   0.956  10.582  0.3520  0.2322 -0.2050
  148SAPE   O1116312   2.599   0.842  10.564  0.1318 -0.3362  0.0294
  148SAPE    C116313   2.548   0.712  10.585 -0.2618 -0.1260 -0.3596
  148SAPE    HA16314   2.632   0.646  10.614 -0.8649 -0.9005 -0.3445
  148SAPE    HB16315   2.480   0.714  10.673  0.6126 -2.7118  0.4034
  148SAPE    C216316   2.480   0.640  10.465  0.0395 -0.3684  0.4260
  148SAPE    HS16317   2.423   0.551  10.500 -0.9584  0.7475  1.6840
  148SAPE   O2116318   2.575   0.617  10.362  0.2273 -0.6263 -0.2744
  148SAPE   C2116319   2.642   0.498  10.368 -0.3141 -0.1889  0.1857
  148SAPE   O2216320   2.623   0.413  10.457 -0.2333 -0.6538 -0.5164
  148SAPE   C2216321   2.735   0.494  10.239  0.6182  0.0889 -0.3047
  148SAPE   H2R16322   2.817   0.566  10.260 -0.9893  1.0058  3.2942
  148SAPE   H2S16323   2.775   0.394  10.214 -0.2607 -0.3112 -0.1537
  148SAPE    C316324   2.362   0.727  10.398  0.5000 -0.5629 -0.2943
  148SAPE    HX16325   2.418   0.820  10.374  0.5194 -0.1004  1.4436
  148SAPE    HY16326   2.288   0.734  10.480  1.6542 -0.3088  0.7520
  148SAPE   O3116327   2.300   0.659  10.288 -0.3416 -0.6661  0.2216
  148SAPE   C3116328   2.271   0.737  10.185  0.6122  0.6456  0.3052
  148SAPE   O3216329   2.300   0.850  10.163 -0.1672 -0.0961 -0.2674
  148SAPE   C3216330   2.219   0.639  10.079  0.2349  0.2765  0.7711
  148SAPE   H2X16331   2.111   0.617  10.095  0.2244 -0.3900 -0.1618
  148SAPE   H2Y16332   2.260   0.536  10.093 -2.0537 -0.5141  1.8411
  148SAPE   C2316333   2.664   0.550  10.113  0.2606  0.0166 -0.0841
  148SAPE   H3R16334   2.729   0.543  10.023 -1.2487 -0.4479 -1.1575
  148SAPE   H3S16335   2.624   0.652  10.133 -0.2563 -0.4412  1.2706
  148SAPE   C2416336   2.539   0.471  10.064 -0.4980  0.8602 -0.2831
  148SAPE   H4R16337   2.474   0.525   9.991  1.2097  0.6268 -2.0017
  148SAPE   H4S16338   2.473   0.451  10.152 -0.1621 -3.3197 -0.8665
  148SAPE   C2516339   2.586   0.335  10.021  0.0133 -0.1300  0.1133
  148SAPE   H5R16340   2.606   0.264  10.102 -1.0217 -1.5924 -0.8838
  148SAPE   C2616341   2.605   0.298   9.897 -0.5664 -0.8623 -0.4794
  148SAPE   H6R16342   2.638   0.196   9.872  1.6645 -0.0546 -1.0078
  148SAPE   C2716343   2.598   0.381   9.776 -0.1350 -0.7655  0.9315
  148SAPE   H7R16344   2.580   0.489   9.796  2.2773 -0.2918  0.6985
  148SAPE   H7S16345   2.502   0.347   9.732 -0.0615 -0.8369  0.8246
  148SAPE   C2816346   2.715   0.372   9.686 -0.1055 -0.0904 -0.0361
  148SAPE   H8R16347   2.811   0.364   9.740 -0.4055 -3.2631  0.1476
  148SAPE   C2916348   2.723   0.384   9.549 -0.4576  0.4999  0.3658
  148SAPE   H9R16349   2.815   0.366   9.490  0.1389 -1.0042  1.6948
  148SAPE  C21016350   2.602   0.401   9.458  0.5010  0.1583  0.6495
  148SAPE  H10R16351   2.512   0.368   9.515  0.0037  0.8725  0.2975
  148SAPE  H10S16352   2.608   0.326   9.376 -0.6463  2.0409 -1.2252
  148SAPE  C21116353   2.571   0.536   9.397  0.6513  0.0717  0.9115
  148SAPE  H11R16354   2.552   0.617   9.468 -0.9857 -0.3770  1.0245
  148SAPE  C21216355   2.559   0.561   9.267  1.1195 -0.1071 -0.2456
  148SAPE  H12R16356   2.543   0.662   9.227  0.6785 -0.3367 -0.6489
  148SAPE  C21316357   2.571   0.455   9.158 -0.1320 -0.1106  0.1439
  148SAPE  H13R16358   2.506   0.492   9.076  1.1796  0.5127 -0.6428
  148SAPE  H13S16359   2.513   0.368   9.195  1.5774 -0.4121  2.2152
  148SAPE  C21416360   2.713   0.432   9.108 -0.5571  0.1198  0.4025
  148SAPE  H14R16361   2.764   0.528   9.093  1.2146 -1.0761 -1.4568
  148SAPE  C21516362   2.770   0.312   9.083  0.0780  0.3774  0.2468
  148SAPE  H15R16363   2.872   0.297   9.044  0.2238 -1.1467  1.1687
  148SAPE  C21616364   2.711   0.173   9.101 -0.1455  0.3582 -0.6487
  148SAPE  H16R16365   2.610   0.188   9.146  0.4298  3.3224 -0.2529
  148SAPE  H16S16366   2.766   0.105   9.170 -0.4789 -1.0290 -1.7164
  148SAPE  C21716367   2.701   0.101   8.966  0.1860  0.1992  0.0878
  148SAPE  H17R16368   2.675   0.173   8.885 -0.2176  0.1550  0.1754
  148SAPE  H17S16369   2.626   0.019   8.959 -0.5340  0.9779 -1.6376
  148SAPE  C21816370   2.839   0.046   8.922 -0.3540  0.3113 -0.0152
  148SAPE  H18R16371   2.871  -0.024   9.003  0.0430 -1.5387 -1.7277
  148SAPE  H18S16372   2.914   0.122   8.891 -1.7198  0.5282 -2.9544
  148SAPE  C21916373   2.827  -0.054   8.812 -0.0268  0.6614  0.1303
  148SAPE  H19R16374   2.810   0.003   8.718  0.4121 -0.6783 -0.7846
  148SAPE  H19S16375   2.739  -0.119   8.828 -0.0364  1.3004  2.9019
  148SAPE  C22016376   2.942  -0.141   8.778 -0.6199 -0.2851 -0.2682
  148SAPE  H20R16377   2.985  -0.177   8.874  2.6609  0.6435 -1.2981
  148SAPE  H20S16378   3.032  -0.088   8.740  0.2518 -1.4589  0.1292
  148SAPE  H20T16379   2.917  -0.222   8.706  1.7507 -2.7776  1.5652
  148SAPE   C3316380   2.256   0.683   9.934 -0.4256  0.3870 -0.4317
  148SAPE   H3X16381   2.367   0.696   9.933 -0.3592  0.0629  1.2623
  148SAPE   H3Y16382   2.215   0.785   9.920  0.7496  1.4778  3.4605
  148SAPE   C3416383   2.193   0.597   9.822 -0.1502  0.2522 -0.1182
  148SAPE   H4X16384   2.082   0.601   9.834 -0.2051 -0.7603 -0.2623
  148SAPE   H4Y16385   2.217   0.489   9.818 -1.4923 -0.0957  0.7543
  148SAPE   C3516386   2.230   0.654   9.690  0.1523 -0.0971  0.1760
  148SAPE   H5X16387   2.339   0.667   9.672 -0.5192  2.3475 -2.3462
  148SAPE   H5Y16388   2.179   0.752   9.682 -4.0948 -2.0189  1.9885
  148SAPE   C3616389   2.173   0.570   9.573 -0.0752 -0.2333  0.1192
  148SAPE   H6X16390   2.070   0.533   9.590 -0.8771  1.0622 -1.7231
  148SAPE   H6Y16391   2.236   0.480   9.588 -1.2909 -1.4626 -1.9259
  148SAPE   C3716392   2.192   0.622   9.428  0.1667  0.3982  0.9368
  148SAPE   H7X16393   2.298   0.653   9.413  0.3097  1.0799  3.1975
  148SAPE   H7Y16394   2.118   0.702   9.409 -1.6393 -1.4180  0.0494
  148SAPE   C3816395   2.157   0.508   9.330 -0.0046 -0.1842 -0.6931
  148SAPE   H8X16396   2.059   0.465   9.358  0.4296 -0.6638  0.0847
  148SAPE   H8Y16397   2.231   0.426   9.335 -1.5713 -1.4595  2.8547
  148SAPE   C3916398   2.159   0.546   9.181 -0.1116  0.1443  0.3566
  148SAPE   H9X16399   2.259   0.585   9.150  0.1167 -0.1620  0.7064
  148SAPE   H9Y16400   2.084   0.628   9.175 -0.7493 -0.4830 -0.3525
  148SAPE  C31016401   2.119   0.425   9.089 -0.1080  0.1188 -0.8343
  148SAPE  H10X16402   2.008   0.421   9.081 -0.3742  2.0268  1.2800
  148SAPE  H10Y16403   2.152   0.333   9.142 -1.0258 -0.9628 -2.1116
  148SAPE  C31116404   2.187   0.427   8.954 -0.5527  0.1654  0.4120
  148SAPE  H11X16405   2.154   0.334   8.901 -2.7614  1.1500 -0.0243
  148SAPE  H11Y16406   2.293   0.418   8.984  0.3854  1.3567 -2.3779
  148SAPE  C31216407   2.161   0.550   8.869 -0.1162 -0.2471 -0.5378
  148SAPE  H12X16408   2.204   0.640   8.916 -1.8332  0.4989 -0.3588
  148SAPE  H12Y16409   2.051   0.561   8.851 -0.1658 -0.1238 -0.1629
  148SAPE  C31316410   2.227   0.551   8.730 -0.3492  0.9757  0.6626
  148SAPE  H13X16411   2.196   0.471   8.660 -0.1581  1.8031 -0.3779
  148SAPE  H13Y16412   2.334   0.523   8.742  0.3825  3.5143  0.3645
  148SAPE  C31416413   2.196   0.687   8.669 -0.3648 -0.2966 -0.5627
  148SAPE  H14X16414   2.224   0.762   8.746  1.5862 -1.7595  0.1816
  148SAPE  H14Y16415   2.088   0.705   8.647 -0.2117  0.7347 -0.4996
  148SAPE  C31516416   2.276   0.697   8.540  0.2881 -0.3910  0.6730
  148SAPE  H15X16417   2.255   0.610   8.475  0.9698 -0.0116 -0.0542
  148SAPE  H15Y16418   2.382   0.691   8.574 -0.4884  1.0075  3.5237
  148SAPE  C31616419   2.255   0.832   8.459 -0.2387  0.3684 -0.4122
  148SAPE  H16X16420   2.322   0.835   8.371  0.5100 -2.3718  0.0474
  148SAPE  H16Y16421   2.298   0.915   8.519 -2.1278  1.5691 -0.6454
  148SAPE  C31716422   2.113   0.862   8.425  0.3198  0.4473 -0.2842
  148SAPE  H17X16423   2.041   0.883   8.506 -0.4229 -0.0010 -0.8228
  148SAPE  H17Y16424   2.072   0.767   8.384 -0.8720  0.8743 -0.0974
  148SAPE  C31816425   2.096   0.986   8.333  0.3291  0.1706 -0.5186
  148SAPE  H18X16426   2.114   1.077   8.393 -0.2400 -0.5965  0.8231
  148SAPE  H18Y16427   1.993   0.997   8.293 -0.8669  0.5574  2.5908
  148SAPE  H18Z16428   2.173   0.988   8.252  1.1065 -0.3688  0.1944
  149SAPE     N16429   4.583   2.695  10.938 -0.7905  0.5557 -0.3770
  149SAPE   HN116430   4.559   2.649  11.028  1.1902  2.0428  0.9762
  149SAPE   HN216431   4.678   2.738  10.945 -0.9004  0.7318  0.0147
  149SAPE   HN316432   4.518   2.775  10.926 -2.1261 -1.0150 -4.2544
  149SAPE   C1216433   4.586   2.587  10.836 -0.0371 -0.9695 -0.2100
  149SAPE  H12A16434   4.596   2.632  10.735 -1.5310 -4.3881 -1.9498
  149SAPE  H12B16435   4.484   2.542  10.837 -0.5864  0.2357 -0.7896
  149SAPE   C1116436   4.690   2.493  10.877 -0.3193 -0.1432  0.1641
  149SAPE  H11A16437   4.704   2.417  10.797 -1.1768 -0.7977  0.6185
  149SAPE  H11B16438   4.648   2.429  10.958 -0.7880 -0.1465 -0.0796
  149SAPE     P16439   4.921   2.461  10.971 -0.0997 -0.0176 -0.2592
  149SAPE   O1316440   5.040   2.540  11.020 -0.3653 -0.1434 -0.3186
  149SAPE   O1416441   4.852   2.374  11.073 -0.3465  0.2692  0.6617
  149SAPE   O1216442   4.815   2.560  10.909  0.2224 -0.2880  0.5766
  149SAPE   O1116443   4.969   2.370  10.852 -0.2554 -0.3374  0.1213
  149SAPE    C116444   5.048   2.450  10.754  0.1442  0.2720 -0.6921
  149SAPE    HA16445   4.998   2.540  10.713 -0.8465 -0.2106 -0.5443
  149SAPE    HB16446   5.145   2.471  10.803  0.3122 -1.2838 -0.3279
  149SAPE    C216447   5.098   2.363  10.641 -0.7950  0.6023  0.0061
  149SAPE    HS16448   5.151   2.428  10.568 -1.3246 -1.1282 -1.9568
  149SAPE   O2116449   4.979   2.306  10.578 -0.1657 -0.1527  0.3473
  149SAPE   C2116450   4.902   2.395  10.519  0.0014  0.2615  0.6196
  149SAPE   O2216451   4.936   2.511  10.488  0.4257 -0.1973  0.0279
  149SAPE   C2216452   4.765   2.332  10.478 -0.0483 -0.2164  0.0353
  149SAPE   H2R16453   4.730   2.282  10.571  2.8206  1.1380  1.9395
  149SAPE   H2S16454   4.687   2.410  10.471  1.0428  0.6643 -2.5706
  149SAPE    C316455   5.192   2.245  10.689  0.3969 -0.1549  0.0877
  149SAPE    HX16456   5.143   2.202  10.779  0.8047  0.3454  0.5499
  149SAPE    HY16457   5.290   2.286  10.721  0.1366  1.4964 -1.1922
  149SAPE   O3116458   5.205   2.137  10.598 -0.0909 -0.2110  0.5502
  149SAPE   C3116459   5.289   2.153  10.492  0.4335 -0.4763 -0.0608
  149SAPE   O3216460   5.354   2.257  10.473 -0.1183 -0.2261  0.4549
  149SAPE   C3216461   5.259   2.040  10.397  0.4106 -0.0223  0.2450
  149SAPE   H2X16462   5.153   2.012  10.414  0.2070  0.2003 -0.5935
  149SAPE   H2Y16463   5.336   1.960  10.409 -0.7557 -1.1532  0.2836
  149SAPE   C2316464   4.761   2.228  10.367  0.0078  0.1156  0.5447
  149SAPE   H3R16465   4.668   2.167  10.373 -0.1514  0.3225  0.2339
  149SAPE   H3S16466   4.843   2.155  10.384 -0.0204  0.1986  1.0288
  149SAPE   C2416467   4.783   2.296  10.229 -0.3393 -0.2893  0.2384
  149SAPE   H4R16468   4.832   2.234  10.151 -0.1099 -2.5314  2.0862
  149SAPE   H4S16469   4.855   2.378  10.254 -0.2960 -0.8275  1.9965
  149SAPE   C2516470   4.659   2.358  10.168  0.0641  0.0413  0.1249
  149SAPE   H5R16471   4.589   2.406  10.239  1.1954 -0.0863  1.3438
  149SAPE   C2616472   4.624   2.361  10.038  0.1000 -0.5808 -0.7811
  149SAPE   H6R16473   4.532   2.422  10.027  0.9672  1.1144  0.9395
  149SAPE   C2716474   4.687   2.310   9.909  0.3678  0.2733  0.9352
  149SAPE   H7R16475   4.638   2.214   9.884  0.0237  0.6674  0.0738
  149SAPE   H7S16476   4.796   2.293   9.920  0.0675 -1.9475  0.7420
  149SAPE   C2816477   4.673   2.418   9.802  0.2310  0.8423 -0.6568
  149SAPE   H8R16478   4.728   2.504   9.842  0.1689 -0.0133  1.3139
  149SAPE   C2916479   4.645   2.411   9.668 -0.5235  0.4444 -0.5245
  149SAPE   H9R16480   4.663   2.498   9.603  1.9253  0.3998  0.0429
  149SAPE  C21016481   4.611   2.286   9.587 -0.6495  0.0343  0.0309
  149SAPE  H10R16482   4.522   2.315   9.527  0.3205  1.8013 -0.5811
  149SAPE  H10S16483   4.587   2.205   9.659  1.4182 -0.2151  0.4454
  149SAPE  C21116484   4.725   2.246   9.493 -0.5210  0.3831  0.6494
  149SAPE  H11R16485   4.822   2.243   9.545  0.7362  2.1903 -1.4889
  149SAPE  C21216486   4.714   2.210   9.361  0.5334 -0.2571 -0.4781
  149SAPE  H12R16487   4.806   2.176   9.311  0.3312 -0.2627 -0.8476
  149SAPE  C21316488   4.587   2.197   9.283  0.3216  0.1394  0.3934
  149SAPE  H13R16489   4.511   2.169   9.360  2.3217  1.1700  2.8184
  149SAPE  H13S16490   4.578   2.125   9.199 -3.1359  1.0764 -0.1414
  149SAPE  C21416491   4.565   2.338   9.232 -0.3903  0.2366 -0.7859
  149SAPE  H14R16492   4.587   2.413   9.309  0.7382 -1.7204  0.8726
  149SAPE  C21516493   4.522   2.373   9.117  0.1597  0.4097  0.5327
  149SAPE  H15R16494   4.539   2.480   9.097  1.8543  0.4007  1.7643
  149SAPE  C21616495   4.497   2.283   8.997 -0.0160 -0.5107  0.4731
  149SAPE  H16R16496   4.415   2.308   8.927  1.0829 -2.4290 -1.5731
  149SAPE  H16S16497   4.469   2.182   9.034  0.1942 -0.4371  0.8433
  149SAPE  C21716498   4.617   2.260   8.898  0.0553  0.3346  0.3134
  149SAPE  H17R16499   4.688   2.185   8.937 -0.1611 -0.4255 -0.7418
  149SAPE  H17S16500   4.666   2.356   8.872  0.8901  0.0325  0.7684
  149SAPE  C21816501   4.572   2.203   8.761 -0.4084 -0.0910  0.5531
  149SAPE  H18R16502   4.523   2.288   8.709  0.7064 -0.2576 -0.8164
  149SAPE  H18S16503   4.491   2.131   8.785 -0.4485 -0.2622 -0.0826
  149SAPE  C21916504   4.673   2.126   8.679  0.4933  0.2697  0.5073
  149SAPE  H19R16505   4.633   2.078   8.588  0.9182 -0.0664  0.4963
  149SAPE  H19S16506   4.702   2.049   8.754 -1.6643 -1.5332 -0.4791
  149SAPE  C22016507   4.804   2.202   8.643 -0.0545 -0.2744 -0.1967
  149SAPE  H20R16508   4.840   2.165   8.544 -0.4792  2.0128 -1.2408
  149SAPE  H20S16509   4.881   2.195   8.723 -1.7495 -1.0943  1.4199
  149SAPE  H20T16510   4.779   2.308   8.622  2.0653 -0.1040 -1.9362
  149SAPE   C3316511   5.263   2.092  10.243  0.8080  0.4654 -0.2178
  149SAPE   H3X16512   5.268   2.004  10.174  0.8271  1.1958 -1.1520
  149SAPE   H3Y16513   5.356   2.152  10.238  1.2502 -0.1212  0.8354
  149SAPE   C3416514   5.134   2.168  10.208  0.2575 -0.9820  0.3438
  149SAPE   H4X16515   5.118   2.250  10.282 -1.9162 -2.1833  1.2485
  149SAPE   H4Y16516   5.049   2.105  10.242 -1.7708  1.2184 -0.4857
  149SAPE   C3516517   5.117   2.216  10.062  0.2154 -0.6997  0.1846
  149SAPE   H5X16518   5.212   2.265  10.032  1.2845 -3.1492 -0.5961
  149SAPE   H5Y16519   5.028   2.282  10.066 -0.6995 -2.0220  3.6105
  149SAPE   C3616520   5.096   2.104   9.965  0.0872  0.0859  0.2462
  149SAPE   H6X16521   5.003   2.045   9.983 -1.5277  2.3335 -0.4441
  149SAPE   H6Y16522   5.185   2.038   9.973 -0.6077 -1.0826 -1.2599
  149SAPE   C3716523   5.096   2.147   9.816  0.4964  0.6416 -0.0289
  149SAPE   H7X16524   5.180   2.216   9.791  0.1211  0.8695 -0.6964
  149SAPE   H7Y16525   5.011   2.216   9.798  0.4968 -0.0815 -3.2268
  149SAPE   C3816526   5.085   2.037   9.702  0.3621  0.1172 -0.0298
  149SAPE   H8X16527   4.981   1.998   9.693  0.8769 -1.1861 -0.4726
  149SAPE   H8Y16528   5.148   1.949   9.726 -0.5305 -1.1602 -2.2198
  149SAPE   C3916529   5.121   2.098   9.564 -0.4359  0.1284 -0.7622
  149SAPE   H9X16530   5.070   2.195   9.550  3.3532  2.4073  0.4814
  149SAPE   H9Y16531   5.078   2.029   9.488  0.0643 -0.0188 -0.9179
  149SAPE  C31016532   5.271   2.106   9.523 -0.3186  0.3367  0.0878
  149SAPE  H10X16533   5.308   2.001   9.526 -1.1951  0.0144 -0.2297
  149SAPE  H10Y16534   5.331   2.159   9.600 -0.8116  0.0694  0.6573
  149SAPE  C31116535   5.308   2.186   9.395 -0.0615  0.3096 -0.2070
  149SAPE  H11X16536   5.414   2.165   9.369  0.0182  1.2019 -0.5944
  149SAPE  H11Y16537   5.300   2.296   9.405  0.7345  0.2903  0.8023
  149SAPE  C31216538   5.221   2.168   9.277 -0.6856  0.1684  0.6886
  149SAPE  H12X16539   5.257   2.236   9.196 -2.2997 -0.2072 -0.3651
  149SAPE  H12Y16540   5.114   2.190   9.299 -0.9979 -0.6368  0.0134
  149SAPE  C31316541   5.229   2.021   9.227  0.0587  0.0077  0.6655
  149SAPE  H13X16542   5.189   1.940   9.293  2.7046 -1.8131  0.0957
  149SAPE  H13Y16543   5.336   2.007   9.203 -0.7298 -1.2447 -2.3549
  149SAPE  C31416544   5.157   1.995   9.088  0.1934  0.7280 -0.1275
  149SAPE  H14X16545   5.188   1.893   9.056 -2.1183 -0.2851  0.6834
  149SAPE  H14Y16546   5.198   2.065   9.013  0.8109 -1.2646 -1.6894
  149SAPE  C31516547   5.001   2.012   9.075  0.2781  0.4709 -0.3196
  149SAPE  H15X16548   4.967   2.114   9.103  0.3873  0.9249 -1.7921
  149SAPE  H15Y16549   4.940   1.949   9.143  0.4901  0.6437  0.0318
  149SAPE  C31616550   4.948   1.986   8.937  0.8569 -0.5199 -0.1260
  149SAPE  H16X16551   5.015   2.026   8.857 -0.0369  1.6004  0.1551
  149SAPE  H16Y16552   4.855   2.044   8.925  0.2943 -1.6088 -1.2134
  149SAPE  C31716553   4.934   1.834   8.915 -0.0270  0.7447  0.0998
  149SAPE  H17X16554   4.856   1.796   8.985 -0.8410  0.7140 -0.8170
  149SAPE  H17Y16555   5.027   1.778   8.940 -1.0516 -1.0227  0.0596
  149SAPE  C31816556   4.893   1.777   8.772  0.1657 -0.1838 -0.5086
  149SAPE  H18X16557   4.981   1.804   8.710  0.2515 -0.0231 -0.3158
  149SAPE  H18Y16558   4.798   1.808   8.722  0.4957  2.2523  0.3219
  149SAPE  H18Z16559   4.884   1.667   8.774 -0.1473 -0.1441  0.8415
  150SAPE     N16560   6.614   1.462  10.659  0.4201 -0.1069 -0.2089
  150SAPE   HN116561   6.629   1.540  10.592 -1.7704  1.3243  0.9122
  150SAPE   HN216562   6.690   1.442  10.726  1.2767  3.3653 -0.0687
  150SAPE   HN316563   6.603   1.374  10.604 -0.0770 -1.3249  1.8125
  150SAPE   C1216564   6.489   1.481  10.731 -0.2644 -0.3230 -0.2188
  150SAPE  H12A16565   6.417   1.524  10.658 -0.0936  0.2713 -0.0396
  150SAPE  H12B16566   6.505   1.558  10.810  0.6125 -1.8388  1.0945
  150SAPE   C1116567   6.437   1.349  10.790  0.3305  0.2589 -0.1455
  150SAPE  H11A16568   6.437   1.267  10.715  2.8055  0.5874 -0.5416
  150SAPE  H11B16569   6.341   1.371  10.843  1.0838 -0.0531  1.3843
  150SAPE     P16570   6.624   1.183  10.883 -0.4325  0.1856  0.0616
  150SAPE   O1316571   6.746   1.185  10.979  0.5319  0.3085  0.0982
  150SAPE   O1416572   6.533   1.068  10.898 -0.4041  0.0792  0.4062
  150SAPE   O1216573   6.538   1.316  10.887  0.2634 -0.0421 -0.5834
  150SAPE   O1116574   6.677   1.183  10.737 -0.0322  0.4850 -0.1041
  150SAPE    C116575   6.782   1.091  10.690 -0.1275 -0.1437 -0.0635
  150SAPE    HA16576   6.879   1.121  10.735  0.0313 -1.4486  0.5154
  150SAPE    HB16577   6.768   0.985  10.722 -0.8641  0.1519  0.6049
  150SAPE    C216578   6.769   1.089  10.539 -0.0849  0.2523 -0.2576
  150SAPE    HS16579   6.789   1.192  10.502  1.7972 -0.7669 -2.1478
  150SAPE   O2116580   6.637   1.046  10.499  0.3728  0.1261 -0.2666
  150SAPE   C2116581   6.541   1.141  10.474  0.5629 -0.2919 -0.2441
  150SAPE   O2216582   6.559   1.262  10.484  0.9918 -0.0207  0.1747
  150SAPE   C2216583   6.411   1.069  10.425  0.7249 -0.2709  0.0273
  150SAPE   H2R16584   6.450   1.004  10.344  0.0999 -1.0697  0.3580
  150SAPE   H2S16585   6.374   1.010  10.511 -0.5970 -0.0846 -0.3880
  150SAPE    C316586   6.873   0.995  10.480  0.1728 -1.1102 -0.4664
  150SAPE    HX16587   6.846   0.887  10.484 -4.3118 -0.0343  0.7795
  150SAPE    HY16588   6.966   1.010  10.539  0.0382  0.3385 -0.6038
  150SAPE   O3116589   6.898   1.037  10.348 -0.2840 -0.3733 -0.1653
  150SAPE   C3116590   6.822   0.976  10.255  0.0492  0.0139 -0.0764
  150SAPE   O3216591   6.739   0.893  10.271  0.0246  0.2006  0.1692
  150SAPE   C3216592   6.848   1.049  10.129  0.1054  0.0939 -0.4854
  150SAPE   H2X16593   6.953   1.084  10.132  0.4476 -0.7215 -2.3605
  150SAPE   H2Y16594   6.784   1.139  10.140  0.5706  0.2413  1.1263
  150SAPE   C2316595   6.307   1.174  10.373  0.0931 -0.9274  0.3312
  150SAPE   H3R16596   6.357   1.231  10.292  0.7965 -2.8030 -0.5954
  150SAPE   H3S16597   6.274   1.239  10.457 -1.2811 -1.2133  0.0135
  150SAPE   C2416598   6.186   1.106  10.309  0.7953  0.4527  0.4178
  150SAPE   H4R16599   6.131   1.046  10.385 -0.1998 -1.5465 -1.8139
  150SAPE   H4S16600   6.211   1.035  10.228  2.0505 -0.2404  1.3942
  150SAPE   C2516601   6.095   1.205  10.246  0.2997  0.1508  0.5558
  150SAPE   H5R16602   6.011   1.232  10.311  0.0158 -1.5862  0.9503
  150SAPE   C2616603   6.092   1.251  10.114  0.5661 -0.1631 -0.2463
  150SAPE   H6R16604   6.013   1.323  10.090  0.7621  0.0390 -0.2863
  150SAPE   C2716605   6.174   1.203   9.993  0.1706  0.0208  0.3495
  150SAPE   H7R16606   6.214   1.102  10.018  1.2750  0.0617 -1.2385
  150SAPE   H7S16607   6.252   1.282   9.985  0.1462  0.0173  0.0853
  150SAPE   C2816608   6.088   1.191   9.873 -0.3171 -0.3164  0.0631
  150SAPE   H8R16609   5.988   1.149   9.889 -0.6188 -0.0850 -1.1737
  150SAPE   C2916610   6.114   1.239   9.750  0.2955  0.7096 -0.4216
  150SAPE   H9R16611   6.040   1.204   9.676  1.2664 -0.1412 -1.0059
  150SAPE  C21016612   6.239   1.296   9.692 -0.7924 -0.7068  0.7140
  150SAPE  H10R16613   6.286   1.209   9.641 -1.8612 -0.4357 -0.7622
  150SAPE  H10S16614   6.310   1.338   9.766  0.5715 -0.6467 -0.6054
  150SAPE  C21116615   6.194   1.397   9.595  0.4634  0.0665 -0.8101
  150SAPE  H11R16616   6.154   1.491   9.636  0.5911 -0.1679 -0.1513
  150SAPE  C21216617   6.217   1.399   9.462  0.3815 -0.0795  0.6595
  150SAPE  H12R16618   6.173   1.483   9.405  0.3190 -0.8739 -0.4789
  150SAPE  C21316619   6.294   1.292   9.393 -0.3904  0.7486  0.0978
  150SAPE  H13R16620   6.372   1.249   9.459 -0.5058  1.6297  0.8161
  150SAPE  H13S16621   6.350   1.331   9.306  2.0954 -1.5022  0.6139
  150SAPE  C21416622   6.222   1.167   9.360 -0.8192 -0.2278  0.2589
  150SAPE  H14R16623   6.169   1.112   9.439 -1.8222 -0.9994 -0.9292
  150SAPE  C21516624   6.204   1.124   9.228  0.3154  0.3816 -0.5431
  150SAPE  H15R16625   6.154   1.028   9.213  0.7625 -0.2582  1.9653
  150SAPE  C21616626   6.238   1.199   9.105 -0.1169 -0.2571  0.6289
  150SAPE  H16R16627   6.226   1.310   9.108 -1.1808 -0.1414 -3.9338
  150SAPE  H16S16628   6.151   1.168   9.043  0.1407 -3.2690  1.6946
  150SAPE  C21716629   6.367   1.154   9.038  0.2764 -0.4531  0.1453
  150SAPE  H17R16630   6.360   1.047   9.007 -0.8125 -1.3177  3.1621
  150SAPE  H17S16631   6.450   1.164   9.111  0.5278 -2.8952  0.2229
  150SAPE  C21816632   6.398   1.238   8.916 -0.3758  0.7221  0.8374
  150SAPE  H18R16633   6.401   1.346   8.940 -0.2277  0.9994 -0.3733
  150SAPE  H18S16634   6.318   1.225   8.839  2.5011  0.0449 -2.1563
  150SAPE  C21916635   6.531   1.196   8.866  0.2212 -0.1366 -0.0435
  150SAPE  H19R16636   6.532   1.085   8.864  1.2627 -0.1506  0.7217
  150SAPE  H19S16637   6.602   1.240   8.939 -0.4790  0.6882  0.1451
  150SAPE  C22016638   6.575   1.256   8.735 -0.5455  0.3789 -0.5272
  150SAPE  H20R16639   6.513   1.220   8.651  2.2829 -0.3801 -2.3656
  150SAPE  H20S16640   6.681   1.229   8.714 -0.5589 -0.1703  0.1247
  150SAPE  H20T16641   6.574   1.367   8.744 -0.8683  0.2035  1.8218
  150SAPE   C3316642   6.811   0.979   9.993  0.0049  0.1561 -0.3400
  150SAPE   H3X16643   6.729   0.908  10.015 -0.4542  1.1733  1.3691
  150SAPE   H3Y16644   6.899   0.923   9.955 -0.6919 -0.8301 -0.5197
  150SAPE   C3416645   6.760   1.081   9.890  0.6209 -0.1962 -0.5866
  150SAPE   H4X16646   6.850   1.144   9.877  0.0678  0.4108 -1.5594
  150SAPE   H4Y16647   6.677   1.141   9.931 -0.8542 -1.4047 -1.7120
  150SAPE   C3516648   6.724   1.015   9.758  0.6952  0.4406 -0.5345
  150SAPE   H5X16649   6.638   0.945   9.764 -0.4415  1.8941  0.6762
  150SAPE   H5Y16650   6.812   0.952   9.732 -1.2049 -1.6254 -2.0233
  150SAPE   C3616651   6.705   1.110   9.645 -0.1198 -0.1952  0.0328
  150SAPE   H6X16652   6.792   1.178   9.635 -1.1049  1.4921  2.4995
  150SAPE   H6Y16653   6.604   1.149   9.671  0.8280  2.4103 -0.0820
  150SAPE   C3716654   6.692   1.036   9.511  0.4752  0.1875  0.0270
  150SAPE   H7X16655   6.640   0.939   9.510  0.7341  0.0426 -1.4335
  150SAPE   H7Y16656   6.797   1.014   9.481  0.4701  1.6613 -1.1841
  150SAPE   C3816657   6.630   1.120   9.400  0.4295  0.1307  0.5213
  150SAPE   H8X16658   6.626   1.226   9.432  1.7192  0.9561 -1.9222
  150SAPE   H8Y16659   6.523   1.090   9.392 -0.0670  1.7940  0.8644
  150SAPE   C3916660   6.718   1.118   9.275  0.2039  0.0349 -0.5290
  150SAPE   H9X16661   6.822   1.146   9.302 -0.0996  0.3292  0.3222
  150SAPE   H9Y16662   6.684   1.197   9.205 -2.1516  0.0878  0.6248
  150SAPE  C31016663   6.720   0.988   9.199  0.0498 -0.3829  0.3723
  150SAPE  H10X16664   6.622   0.959   9.155  1.0441 -1.6047 -1.0608
  150SAPE  H10Y16665   6.754   0.912   9.272  0.3107 -1.8020 -1.2141
  150SAPE  C31116666   6.839   0.998   9.095  0.0301 -0.3748  0.2404
  150SAPE  H11X16667   6.926   1.047   9.142 -1.5543  1.3523  1.4116
  150SAPE  H11Y16668   6.802   1.057   9.008  1.3360 -0.7431 -0.5855
  150SAPE  C31216669   6.866   0.854   9.044  0.1365  0.1392 -0.1304
  150SAPE  H12X16670   6.768   0.801   9.040 -0.1723  0.8113 -1.6508
  150SAPE  H12Y16671   6.921   0.799   9.124  1.0661  1.5814  0.2357
  150SAPE  C31316672   6.948   0.841   8.912  0.1630  1.0260 -0.5015
  150SAPE  H13X16673   7.034   0.912   8.915  0.4731  0.7556 -2.6042
  150SAPE  H13Y16674   6.875   0.859   8.831 -2.3587 -0.6929  1.3190
  150SAPE  C31416675   7.011   0.696   8.887 -0.5092 -0.7727  0.0005
  150SAPE  H14X16676   6.933   0.623   8.917 -1.5041  0.5995  0.7622
  150SAPE  H14Y16677   7.084   0.675   8.969 -2.2043 -2.2205  1.1710
  150SAPE  C31516678   7.078   0.678   8.754 -0.2326 -0.5863  1.1026
  150SAPE  H15X16679   7.158   0.752   8.731 -0.9211 -0.1833 -0.0279
  150SAPE  H15Y16680   7.006   0.679   8.669  0.5762  1.6733  0.4024
  150SAPE  C31616681   7.144   0.542   8.738 -0.4568  0.5592  0.0752
  150SAPE  H16X16682   7.082   0.456   8.771  0.7146  0.3378  1.7541
  150SAPE  H16Y16683   7.236   0.550   8.800 -0.7575 -0.9145  0.7435
  150SAPE  C31716684   7.206   0.512   8.598  0.2869  0.5119  0.3794
  150SAPE  H17X16685   7.132   0.528   8.517 -0.0092  1.8073  0.9020
  150SAPE  H17Y16686   7.245   0.408   8.593  1.0886  0.7193  1.9316
  150SAPE  C31816687   7.317   0.604   8.552  0.0084 -0.1326 -1.0121
  150SAPE  H18X16688   7.279   0.708   8.540  0.9776  0.0090 -3.0015
  150SAPE  H18Y16689   7.360   0.581   8.453 -0.1430 -1.3803 -0.7967
  150SAPE  H18Z16690   7.394   0.604   8.632 -0.8109 -1.4779 -0.1838
  151SAPE     N16691   2.988   5.274  10.510 -0.7498  0.5704  0.1819
  151SAPE   HN116692   3.024   5.190  10.559 -0.8873  0.0288 -0.6226
  151SAPE   HN216693   3.069   5.338  10.521  0.4312 -0.8576  0.0702
  151SAPE   HN316694   2.910   5.300  10.573  2.8506  1.6525  4.4269
  151SAPE   C1216695   2.942   5.250  10.369 -0.0039  0.2262  0.5584
  151SAPE  H12A16696   2.864   5.321  10.335  0.5207  0.7621  0.4609
  151SAPE  H12B16697   2.896   5.149  10.364  3.0104 -1.3014  2.1062
  151SAPE   C1116698   3.061   5.258  10.277 -0.6869 -0.0056 -0.1927
  151SAPE  H11A16699   3.038   5.246  10.169  0.3979  2.4436 -0.7274
  151SAPE  H11B16700   3.132   5.176  10.303 -4.0787 -3.2257 -0.6425
  151SAPE     P16701   3.254   5.425  10.366  0.2775 -0.5082  0.5047
  151SAPE   O1316702   3.299   5.565  10.339 -0.0436 -0.0225 -0.8512
  151SAPE   O1416703   3.224   5.396  10.511  0.5050  0.2111  0.0416
  151SAPE   O1216704   3.122   5.392  10.281 -0.3042  0.2660  0.1316
  151SAPE   O1116705   3.350   5.317  10.291 -0.3186  0.2298  0.6235
  151SAPE    C116706   3.380   5.321  10.152  0.2953  0.6613  0.5352
  151SAPE    HA16707   3.415   5.218  10.128  1.6049  1.2183  0.0289
  151SAPE    HB16708   3.285   5.340  10.098  0.1798 -0.9363  0.1586
  151SAPE    C216709   3.489   5.425  10.117 -0.9010  0.4331 -0.4830
  151SAPE    HS16710   3.449   5.526  10.140  1.1688  0.8801  1.3154
  151SAPE   O2116711   3.520   5.414   9.973 -0.3536  0.0268 -0.0709
  151SAPE   C2116712   3.592   5.516   9.928  0.4940 -0.1503 -0.4455
  151SAPE   O2216713   3.609   5.625   9.979  0.1291 -0.2405 -0.3650
  151SAPE   C2216714   3.649   5.482   9.793 -0.5698 -0.5604 -0.0449
  151SAPE   H2R16715   3.658   5.372   9.780  1.1331 -0.4686  0.1463
  151SAPE   H2S16716   3.573   5.508   9.716 -0.1596  1.3535  0.1748
  151SAPE    C316717   3.622   5.402  10.212  0.2935 -1.6460 -1.0948
  151SAPE    HX16718   3.583   5.379  10.314  0.5983  0.1558 -0.5501
  151SAPE    HY16719   3.673   5.499  10.232  1.2778 -2.3363 -0.1800
  151SAPE   O3116720   3.709   5.291  10.171 -0.4052 -0.0487 -0.3374
  151SAPE   C3116721   3.812   5.327  10.094 -0.0973 -1.4503  0.0865
  151SAPE   O3216722   3.849   5.448  10.095  0.2690  0.3819  0.1669
  151SAPE   C3216723   3.882   5.205  10.034  0.0508 -0.3585  0.0763
  151SAPE   H2X16724   3.844   5.107  10.070  0.2994 -0.9872 -1.3331
  151SAPE   H2Y16725   3.983   5.206  10.080  0.0495 -0.0885  0.0700
  151SAPE   C2316726   3.774   5.571   9.760 -0.2271 -0.0036 -0.0637
  151SAPE   H3R16727   3.852   5.562   9.839 -0.3161  2.7542  0.4083
  151SAPE   H3S16728   3.751   5.679   9.747 -0.8840  0.0069  1.1692
  151SAPE   C2416729   3.847   5.529   9.626 -0.2378 -0.0459  0.5827
  151SAPE   H4R16730   3.775   5.533   9.542  0.8400  0.6170 -0.3361
  151SAPE   H4S16731   3.876   5.424   9.645  0.8925 -0.0251 -0.9241
  151SAPE   C2516732   3.971   5.615   9.603  0.0376  0.1971  0.3717
  151SAPE   H5R16733   4.001   5.684   9.682 -0.8835  2.0943 -0.8885
  151SAPE   C2616734   4.023   5.639   9.486 -0.0583  0.2757  0.0992
  151SAPE   H6R16735   4.116   5.699   9.488  0.1159 -0.0040  0.4815
  151SAPE   C2716736   3.977   5.568   9.354  0.2409 -0.5620 -0.5653
  151SAPE   H7R16737   3.975   5.634   9.265 -0.8232  1.0611  0.6275
  151SAPE   H7S16738   3.875   5.525   9.364 -0.7841  1.7993 -0.5510
  151SAPE   C2816739   4.076   5.469   9.330  0.0478  0.2146 -0.5371
  151SAPE   H8R16740   4.107   5.408   9.416 -2.1572  0.3359  0.3777
  151SAPE   C2916741   4.110   5.422   9.210 -0.1460 -0.3048  0.0098
  151SAPE   H9R16742   4.186   5.342   9.207 -1.7675 -1.8195 -1.9764
  151SAPE  C21016743   4.072   5.471   9.074 -0.7887  0.5244  0.4086
  151SAPE  H10R16744   4.048   5.579   9.072  0.5969  0.8583  1.4431
  151SAPE  H10S16745   3.988   5.404   9.045 -1.3034  1.0908  0.5918
  151SAPE  C21116746   4.178   5.450   8.971 -0.3388 -0.0202 -0.4620
  151SAPE  H11R16747   4.257   5.375   8.991  1.0702  1.5826  0.1134
  151SAPE  C21216748   4.183   5.513   8.857  0.0868 -0.6115  0.6612
  151SAPE  H12R16749   4.272   5.495   8.794 -0.1941  0.5217 -0.0737
  151SAPE  C21316750   4.086   5.621   8.812  0.3748 -0.0055  0.5762
  151SAPE  H13R16751   4.134   5.721   8.818 -0.4611  0.4819 -0.5959
  151SAPE  H13S16752   3.993   5.625   8.874  0.5234 -3.4657  1.1323
  151SAPE  C21416753   4.042   5.598   8.670  0.0704  1.0691 -0.0774
  151SAPE  H14R16754   3.941   5.556   8.658  1.6578 -2.3324 -2.3574
  151SAPE  C21516755   4.102   5.657   8.561 -0.2595  0.0368 -0.5481
  151SAPE  H15R16756   4.066   5.621   8.464 -0.3989  0.2387 -0.5727
  151SAPE  C21616757   4.223   5.747   8.548 -0.1282 -0.4167  0.3976
  151SAPE  H16R16758   4.281   5.713   8.460 -3.1416  0.8306 -2.1455
  151SAPE  H16S16759   4.291   5.748   8.636 -0.2335  2.2745  0.4820
  151SAPE  C21716760   4.195   5.898   8.521 -0.1802  0.3713 -0.2985
  151SAPE  H17R16761   4.285   5.955   8.490 -1.1293  2.4414  0.7085
  151SAPE  H17S16762   4.169   5.948   8.617 -1.5374  0.7420 -0.8533
  151SAPE  C21816763   4.085   5.916   8.414 -0.3491  0.7755 -0.2600
  151SAPE  H18R16764   3.983   5.898   8.454  0.4514 -0.8217  1.1539
  151SAPE  H18S16765   4.113   5.848   8.330  1.8348  0.6428  0.5530
  151SAPE  C21916766   4.092   6.067   8.368  0.5431  0.1541  0.8774
  151SAPE  H19R16767   4.026   6.089   8.282 -1.2451  1.8330  2.6171
  151SAPE  H19S16768   4.194   6.094   8.333  0.4493 -2.7813 -1.8219
  151SAPE  C22016769   4.037   6.167   8.479  0.1721 -0.5021  0.3099
  151SAPE  H20R16770   3.935   6.145   8.515  0.8740 -1.4206  1.8039
  151SAPE  H20S16771   4.035   6.273   8.448 -1.0466 -0.2321  1.2742
  151SAPE  H20T16772   4.096   6.168   8.573  1.0461  4.7389 -0.1690
  151SAPE   C3316773   3.887   5.204   9.879  0.1165 -0.3805 -0.7226
  151SAPE   H3X16774   3.937   5.293   9.835  0.0254 -0.8870 -1.8926
  151SAPE   H3Y16775   3.789   5.176   9.834 -1.1639  1.0774  1.1204
  151SAPE   C3416776   3.986   5.089   9.830 -0.3244 -0.2041  0.6021
  151SAPE   H4X16777   3.949   4.989   9.860  0.9697 -1.7964 -2.9145
  151SAPE   H4Y16778   4.077   5.106   9.891  0.0330  0.9926 -0.2455
  151SAPE   C3516779   4.010   5.105   9.685 -0.0013 -0.3135  0.5781
  151SAPE   H5X16780   4.104   5.053   9.656  0.6211  0.0688  1.8693
  151SAPE   H5Y16781   4.022   5.214   9.669  0.2120 -0.1231  2.0001
  151SAPE   C3616782   3.900   5.050   9.595 -0.1788  0.7074 -0.1088
  151SAPE   H6X16783   3.803   5.073   9.643 -1.4609  0.0930 -2.3707
  151SAPE   H6Y16784   3.920   4.941   9.604  1.2993  0.8929 -0.9613
  151SAPE   C3716785   3.918   5.116   9.454 -0.4833 -0.2672  0.6569
  151SAPE   H7X16786   4.020   5.102   9.414 -0.1663  1.8810  0.6681
  151SAPE   H7Y16787   3.901   5.225   9.462  0.4212 -0.3091  3.4284
  151SAPE   C3816788   3.820   5.062   9.356  0.1310 -0.1337 -0.1288
  151SAPE   H8X16789   3.724   5.092   9.402  1.2336  3.2496  0.0525
  151SAPE   H8Y16790   3.824   4.951   9.354 -1.0012 -0.3201  3.8049
  151SAPE   C3916791   3.833   5.120   9.217 -0.4012 -0.0677  0.1464
  151SAPE   H9X16792   3.839   5.229   9.235  1.1615 -0.1733  0.3164
  151SAPE   H9Y16793   3.738   5.097   9.164 -0.2132  2.5100 -1.3788
  151SAPE  C31016794   3.947   5.067   9.138  0.4544  0.2225 -0.3438
  151SAPE  H10X16795   3.965   4.959   9.156  2.4023  0.4750 -0.7187
  151SAPE  H10Y16796   4.047   5.108   9.163  0.3357 -0.7646  1.8401
  151SAPE  C31116797   3.926   5.089   8.992 -0.2319  0.6796  0.3913
  151SAPE  H11X16798   3.900   5.195   8.968 -0.2704  0.9081  1.3914
  151SAPE  H11Y16799   3.830   5.040   8.967 -0.6510  0.9660  1.4044
  151SAPE  C31216800   4.040   5.036   8.894 -0.3659 -0.4245 -0.6374
  151SAPE  H12X16801   4.034   4.925   8.890 -0.8995 -0.6077  3.2367
  151SAPE  H12Y16802   4.141   5.065   8.929 -0.3141 -1.5101  0.1501
  151SAPE  C31316803   4.032   5.093   8.747 -0.2503 -0.0963  0.0531
  151SAPE  H13X16804   4.110   5.055   8.678 -1.7442 -0.0676 -1.6891
  151SAPE  H13Y16805   4.027   5.204   8.745  1.2111 -0.0403 -0.8587
  151SAPE  C31416806   3.901   5.047   8.680  0.4203 -0.2363  0.2976
  151SAPE  H14X16807   3.824   5.127   8.685  0.4400 -0.3143  2.4118
  151SAPE  H14Y16808   3.860   4.953   8.722 -1.0351 -0.6872 -2.0366
  151SAPE  C31516809   3.924   5.015   8.536  0.1588  0.8627  0.3292
  151SAPE  H15X16810   4.006   4.939   8.535 -1.2150 -0.6468 -0.6436
  151SAPE  H15Y16811   3.977   5.098   8.485 -0.1321  1.4544  0.9825
  151SAPE  C31616812   3.797   4.969   8.462 -0.1620 -0.1193 -0.1650
  151SAPE  H16X16813   3.718   5.047   8.460 -0.1678 -0.1563 -1.9318
  151SAPE  H16Y16814   3.745   4.883   8.508 -0.7050  0.2954 -0.0059
  151SAPE  C31716815   3.828   4.910   8.319  0.5524 -0.3549  0.0199
  151SAPE  H17X16816   3.740   4.881   8.258 -1.2472  1.2550  1.7838
  151SAPE  H17Y16817   3.890   4.820   8.339 -2.8988 -2.6449  0.8721
  151SAPE  C31816818   3.907   4.996   8.222  0.8183  0.5017  0.3145
  151SAPE  H18X16819   4.000   5.039   8.264  2.0964 -0.8190 -1.0884
  151SAPE  H18Y16820   3.839   5.084   8.216 -0.6998 -0.4759  2.6497
  151SAPE  H18Z16821   3.922   4.956   8.119  0.9698  0.2258  0.4447
  152SAPE     N16822   6.032   4.871  10.686 -0.1350 -0.5609  0.0346
  152SAPE   HN116823   6.068   4.849  10.591  2.5422  2.1163  0.3466
  152SAPE   HN216824   6.100   4.817  10.743 -0.0677  0.8689  1.3494
  152SAPE   HN316825   5.941   4.823  10.702  0.0593 -1.3437 -1.1971
  152SAPE   C1216826   6.037   5.021  10.706  0.0301 -0.7921 -0.1012
  152SAPE  H12A16827   6.143   5.048  10.724 -0.3502  0.0471  1.0105
  152SAPE  H12B16828   5.966   5.036  10.790  1.3468  0.5661  0.7991
  152SAPE   C1116829   5.972   5.092  10.589 -0.2911  0.3658 -0.1693
  152SAPE  H11A16830   6.017   5.068  10.491  0.3334  3.3553 -0.6433
  152SAPE  H11B16831   5.977   5.202  10.599 -1.4817  0.4765 -0.6472
  152SAPE     P16832   5.708   5.159  10.603 -0.0988  0.2990 -0.1869
  152SAPE   O1316833   5.580   5.083  10.619  0.5115  0.6485  0.0716
  152SAPE   O1416834   5.748   5.245  10.711 -0.0436  0.5405 -0.0221
  152SAPE   O1216835   5.828   5.056  10.576  0.2696 -0.3396  0.9427
  152SAPE   O1116836   5.702   5.243  10.470  0.4462  0.5802  0.5569
  152SAPE    C116837   5.727   5.197  10.342  0.1348 -0.3518  0.5152
  152SAPE    HA16838   5.796   5.273  10.300 -0.7274 -0.7311 -1.6463
  152SAPE    HB16839   5.783   5.101  10.336  1.6889  0.5077  0.8066
  152SAPE    C216840   5.599   5.169  10.258  0.2976 -0.0731 -0.3396
  152SAPE    HS16841   5.588   5.060  10.241 -0.2183  0.1816 -1.7737
  152SAPE   O2116842   5.607   5.233  10.130  0.6337 -0.1529 -0.3742
  152SAPE   C2116843   5.685   5.178  10.042 -0.2969  0.4530  0.5880
  152SAPE   O2216844   5.756   5.077  10.062 -0.7607  0.5164  0.0708
  152SAPE   C2216845   5.672   5.251   9.907 -0.5028 -0.1926 -0.0369
  152SAPE   H2R16846   5.565   5.268   9.881 -0.3256  0.8068 -0.1634
  152SAPE   H2S16847   5.714   5.354   9.914  0.7318 -0.4785 -2.7131
  152SAPE    C316848   5.469   5.217  10.329 -0.1726 -0.4635 -0.0552
  152SAPE    HX16849   5.491   5.323  10.355 -2.3691  0.2483 -0.9942
  152SAPE    HY16850   5.445   5.156  10.419 -1.1816  2.4543  1.7575
  152SAPE   O3116851   5.361   5.220  10.236 -0.1400 -0.3634  0.3781
  152SAPE   C3116852   5.323   5.099  10.199 -0.8873 -0.3453 -0.2550
  152SAPE   O3216853   5.364   4.991  10.230  0.0467 -0.0488 -0.1565
  152SAPE   C3216854   5.207   5.116  10.103 -0.3324  0.8323  0.2785
  152SAPE   H2X16855   5.196   5.226  10.091  1.2500  0.9143 -0.6113
  152SAPE   H2Y16856   5.118   5.072  10.152  1.4484 -2.0398  1.0780
  152SAPE   C2316857   5.755   5.182   9.791  0.2603 -0.5459 -0.5934
  152SAPE   H3R16858   5.731   5.233   9.695  1.5507  1.5813  0.1700
  152SAPE   H3S16859   5.721   5.077   9.788 -3.7187  0.6799 -2.4860
  152SAPE   C2416860   5.904   5.182   9.804  0.3612  0.1220  0.3178
  152SAPE   H4R16861   5.941   5.103   9.735  1.1593  1.5599 -0.9346
  152SAPE   H4S16862   5.920   5.142   9.907 -1.6464 -4.0269 -0.8763
  152SAPE   C2516863   5.964   5.312   9.773  0.6330  0.4946  0.6518
  152SAPE   H5R16864   5.972   5.381   9.859  0.5231  0.9611  0.2918
  152SAPE   C2616865   6.016   5.358   9.660 -0.5564 -0.3938 -0.1216
  152SAPE   H6R16866   6.060   5.459   9.651  1.8682 -1.4581 -0.4791
  152SAPE   C2716867   6.022   5.273   9.537  0.3923  0.1745  0.1207
  152SAPE   H7R16868   5.974   5.175   9.553 -0.5683  0.7030  0.5077
  152SAPE   H7S16869   6.123   5.245   9.498  1.3418  0.9758  1.9240
  152SAPE   C2816870   5.941   5.334   9.424 -0.3319 -1.1202  0.1173
  152SAPE   H8R16871   5.873   5.415   9.453  1.2164  0.0147  0.6294
  152SAPE   C2916872   5.942   5.297   9.291  0.6803 -0.2862  0.6204
  152SAPE   H9R16873   5.881   5.343   9.213  0.1513 -0.4427  0.9411
  152SAPE  C21016874   6.035   5.198   9.240  0.6159  0.0521 -1.0084
  152SAPE  H10R16875   6.070   5.121   9.313 -0.9057 -0.5259 -0.8783
  152SAPE  H10S16876   6.132   5.245   9.215 -0.1881  2.3342  0.0207
  152SAPE  C21116877   5.984   5.121   9.125 -0.2879  0.0144 -0.0425
  152SAPE  H11R16878   5.892   5.065   9.151 -0.3614 -0.0976 -0.5388
  152SAPE  C21216879   6.039   5.124   9.000  0.1157 -0.2787  0.1946
  152SAPE  H12R16880   6.001   5.049   8.929  0.4439 -0.4652  0.2155
  152SAPE  C21316881   6.154   5.212   8.956  0.2784 -0.3266 -0.2481
  152SAPE  H13R16882   6.240   5.181   9.019 -1.0779 -2.3428  0.6649
  152SAPE  H13S16883   6.121   5.312   8.993 -2.4904 -0.9389 -0.9375
  152SAPE  C21416884   6.179   5.202   8.809 -0.0417  0.3369 -0.0359
  152SAPE  H14R16885   6.113   5.268   8.751 -0.9028  0.2301  0.8052
  152SAPE  C21516886   6.270   5.124   8.753  0.2091  0.6733 -0.5100
  152SAPE  H15R16887   6.281   5.145   8.646 -1.6717  1.5499 -0.5509
  152SAPE  C21616888   6.373   5.032   8.814 -0.7352  0.3234  0.1474
  152SAPE  H16R16889   6.423   5.075   8.904  0.2403 -0.0033 -0.2300
  152SAPE  H16S16890   6.459   5.023   8.744 -2.4739 -1.9206 -1.7710
  152SAPE  C21716891   6.332   4.888   8.851  0.3555 -0.1442 -0.5139
  152SAPE  H17R16892   6.237   4.898   8.908  1.0692 -1.1426  0.8623
  152SAPE  H17S16893   6.412   4.845   8.914  0.5592  0.1661 -0.5596
  152SAPE  C21816894   6.304   4.805   8.724 -0.1526 -0.0310  0.1377
  152SAPE  H18R16895   6.361   4.839   8.636  0.0998  0.5110  0.5044
  152SAPE  H18S16896   6.199   4.824   8.692 -0.2792  0.3566  0.7663
  152SAPE  C21916897   6.320   4.655   8.761  0.2358 -0.3616 -0.3165
  152SAPE  H19R16898   6.276   4.630   8.860  1.4254 -1.6427 -0.0952
  152SAPE  H19S16899   6.427   4.642   8.786 -0.1623 -0.2511  1.5077
  152SAPE  C22016900   6.265   4.563   8.645  0.2685 -0.4657  0.0273
  152SAPE  H20R16901   6.154   4.567   8.646  0.2970  0.2489  0.8155
  152SAPE  H20S16902   6.307   4.460   8.654 -0.8238 -0.9722 -0.6131
  152SAPE  H20T16903   6.292   4.595   8.543 -0.6766 -0.3686 -0.1969
  152SAPE   C3316904   5.229   5.042   9.967 -0.2515  0.6527  0.7947
  152SAPE   H3X16905   5.123   5.040   9.934 -0.3255  2.7659  0.8696
  152SAPE   H3Y16906   5.263   4.938   9.984  0.8656  0.9613  0.4994
  152SAPE   C3416907   5.314   5.111   9.868 -0.3390  0.5325 -0.5211
  152SAPE   H4X16908   5.420   5.096   9.896  0.0879  2.3675 -1.0365
  152SAPE   H4Y16909   5.315   5.223   9.864 -1.3326  0.5568 -0.2948
  152SAPE   C3516910   5.296   5.057   9.726 -0.5911 -0.4094  0.1737
  152SAPE   H5X16911   5.198   5.102   9.697  0.0085  1.5171  1.0897
  152SAPE   H5Y16912   5.313   4.948   9.742  0.9811 -0.3716 -1.0975
  152SAPE   C3616913   5.405   5.114   9.632 -0.2268  0.6293  0.0667
  152SAPE   H6X16914   5.507   5.073   9.651 -0.1235  0.1265 -1.4968
  152SAPE   H6Y16915   5.412   5.223   9.647 -2.6556  1.0064 -1.2676
  152SAPE   C3716916   5.368   5.094   9.484 -0.0044  0.4190 -0.0933
  152SAPE   H7X16917   5.258   5.106   9.476 -0.1661 -0.6384  0.4570
  152SAPE   H7Y16918   5.402   4.993   9.451 -1.9882 -0.9986  1.9708
  152SAPE   C3816919   5.433   5.191   9.384 -0.4076  0.3174  0.0158
  152SAPE   H8X16920   5.528   5.224   9.431 -0.5686  0.0327  0.5438
  152SAPE   H8Y16921   5.379   5.287   9.372  3.0377  2.6607  2.3684
  152SAPE   C3916922   5.462   5.136   9.240 -0.3545 -0.4815 -0.2358
  152SAPE   H9X16923   5.367   5.091   9.206 -0.6645 -0.7367  0.9599
  152SAPE   H9Y16924   5.537   5.055   9.249  1.3053  0.7020 -2.6934
  152SAPE  C31016925   5.516   5.240   9.140  0.1613  0.5765 -0.2376
  152SAPE  H10X16926   5.615   5.271   9.181  0.7740 -3.2239  1.4070
  152SAPE  H10Y16927   5.462   5.336   9.132  0.1690  0.6188  0.2073
  152SAPE  C31116928   5.544   5.186   8.997 -0.4496 -0.0971 -0.1364
  152SAPE  H11X16929   5.445   5.169   8.949  0.6463 -1.1648 -2.0869
  152SAPE  H11Y16930   5.581   5.081   9.002 -2.3385 -0.8695 -1.5722
  152SAPE  C31216931   5.630   5.284   8.915  0.3842 -0.1030 -0.3816
  152SAPE  H12X16932   5.728   5.286   8.967 -0.3709  1.0899  1.0594
  152SAPE  H12Y16933   5.591   5.386   8.936 -0.6701 -0.3535 -1.1256
  152SAPE  C31316934   5.647   5.254   8.769  0.3227  0.0288 -0.8262
  152SAPE  H13X16935   5.545   5.228   8.733 -0.3297  1.0085  0.2874
  152SAPE  H13Y16936   5.721   5.171   8.772 -0.5591 -0.7273  1.8745
  152SAPE  C31416937   5.717   5.372   8.692  0.1052  0.1086  0.2365
  152SAPE  H14X16938   5.656   5.465   8.693 -0.4499 -0.2503 -0.0424
  152SAPE  H14Y16939   5.721   5.330   8.590 -2.4036 -0.6790  0.4173
  152SAPE  C31516940   5.852   5.420   8.751  0.0095  0.3070  0.5049
  152SAPE  H15X16941   5.923   5.341   8.784  1.5104  1.7832  0.8614
  152SAPE  H15Y16942   5.827   5.476   8.843  0.2355  2.3327 -0.6526
  152SAPE  C31616943   5.930   5.507   8.647  0.0403  0.5092 -0.5763
  152SAPE  H16X16944   6.013   5.556   8.701  1.9884 -1.5147 -1.6329
  152SAPE  H16Y16945   5.860   5.588   8.618  1.5084  3.2717  3.2369
  152SAPE  C31716946   5.990   5.436   8.520  0.3493  0.3272  0.1419
  152SAPE  H17X16947   5.911   5.401   8.450  0.8840 -1.4554  0.4016
  152SAPE  H17Y16948   6.023   5.336   8.555  1.9673  0.7863 -0.0287
  152SAPE  C31816949   6.109   5.511   8.464 -0.4052  0.2947 -0.2309
  152SAPE  H18X16950   6.153   5.477   8.368 -0.4789  1.8268 -0.8328
  152SAPE  H18Y16951   6.197   5.522   8.531 -0.1837 -0.3928 -0.4059
  152SAPE  H18Z16952   6.072   5.613   8.437 -0.7065 -0.3942 -2.5636
  153SAPE     N16953   5.073   6.481  10.629 -0.4176  0.2336 -0.3925
  153SAPE   HN116954   5.160   6.537  10.620  0.5804 -1.4220 -1.3332
  153SAPE   HN216955   5.010   6.523  10.701 -3.9181 -1.1357 -2.5020
  153SAPE   HN316956   5.110   6.387  10.653 -0.5369  0.1180 -0.6629
  153SAPE   C1216957   4.997   6.497  10.495 -0.3818 -0.2278 -0.9029
  153SAPE  H12A16958   5.053   6.447  10.414  0.8796  0.7460 -0.6554
  153SAPE  H12B16959   4.987   6.607  10.482 -3.4983 -0.2339  0.8089
  153SAPE   C1116960   4.862   6.426  10.504 -0.2101 -0.2448  0.6366
  153SAPE  H11A16961   4.814   6.442  10.405  0.2991 -0.2308  0.3903
  153SAPE  H11B16962   4.796   6.478  10.577 -1.0711  1.9136 -1.6193
  153SAPE     P16963   4.765   6.204  10.582 -0.1286 -0.0647 -0.1130
  153SAPE   O1316964   4.728   6.210  10.724  0.5136 -0.1045  0.7383
  153SAPE   O1416965   4.664   6.230  10.485  0.0969 -0.4108 -0.7069
  153SAPE   O1216966   4.885   6.296  10.549 -0.1759  0.5270 -0.0678
  153SAPE   O1116967   4.822   6.063  10.556 -0.4515 -0.1083  0.4733
  153SAPE    C116968   4.944   6.032  10.479  0.4105 -0.4197 -0.2181
  153SAPE    HA16969   5.024   6.107  10.497  1.7146 -2.3183  2.2001
  153SAPE    HB16970   4.990   5.947  10.534  1.0775  0.1238  0.0795
  153SAPE    C216971   4.920   5.982  10.333 -0.1359 -0.2823 -0.8025
  153SAPE    HS16972   5.012   5.967  10.272 -0.4224 -0.9124 -1.0827
  153SAPE   O2116973   4.830   6.065  10.258  0.1805  0.0745  0.0651
  153SAPE   C2116974   4.877   6.182  10.228 -0.3720 -0.0697  0.0377
  153SAPE   O2216975   4.990   6.222  10.255  0.0177 -0.0570 -0.4118
  153SAPE   C2216976   4.774   6.258  10.150 -0.3866 -0.0751  0.1595
  153SAPE   H2R16977   4.674   6.212  10.162 -0.8351  0.9908  0.5988
  153SAPE   H2S16978   4.775   6.364  10.186  1.6438 -0.1214  0.3342
  153SAPE    C316979   4.854   5.842  10.346  0.6038  0.3128  0.1623
  153SAPE    HX16980   4.777   5.855  10.426  1.3241  1.2436  0.7155
  153SAPE    HY16981   4.926   5.771  10.392 -1.2333 -0.5800  1.7947
  153SAPE   O3116982   4.809   5.787  10.216 -0.0009 -0.0999  0.4682
  153SAPE   C3116983   4.671   5.791  10.212 -0.0333  1.1280  0.2179
  153SAPE   O3216984   4.593   5.813  10.303 -0.4523 -0.1816  0.6739
  153SAPE   C3216985   4.626   5.755  10.071  0.1577 -0.4292  0.9279
  153SAPE   H2X16986   4.544   5.825  10.044  0.9075  0.2725  0.4522
  153SAPE   H2Y16987   4.579   5.654  10.077 -1.0488  0.1080  0.7499
  153SAPE   C2316988   4.826   6.269  10.009  0.0859  0.3718  0.3225
  153SAPE   H3R16989   4.889   6.186   9.972  0.1951  1.4251 -1.9702
  153SAPE   H3S16990   4.900   6.351  10.003  2.5666 -1.9201 -1.1844
  153SAPE   C2416991   4.707   6.280   9.912  0.3806 -0.2265  0.8036
  153SAPE   H4R16992   4.653   6.182   9.910 -0.4777  0.2313 -2.4630
  153SAPE   H4S16993   4.746   6.304   9.811 -0.3333 -0.4993  0.4539
  153SAPE   C2516994   4.601   6.381   9.950  0.7020  0.0858 -0.5555
  153SAPE   H5R16995   4.583   6.384  10.058  1.5285 -1.1721 -0.3851
  153SAPE   C2616996   4.523   6.445   9.858  0.8769  0.1415 -0.3683
  153SAPE   H6R16997   4.449   6.515   9.900 -0.2298 -2.2344  1.7517
  153SAPE   C2716998   4.538   6.453   9.704  0.0550 -1.0804  0.2311
  153SAPE   H7R16999   4.447   6.414   9.652  0.2154  1.1258 -1.8102
  153SAPE   H7S17000   4.622   6.389   9.671  0.4143 -0.7498  0.5038
  153SAPE   C2817001   4.560   6.603   9.656 -0.1059 -0.0123  0.0776
  153SAPE   H8R17002   4.559   6.677   9.737  1.5845 -2.9664  2.9433
  153SAPE   C2917003   4.587   6.639   9.526 -0.6032  0.0323  0.1618
  153SAPE   H9R17004   4.578   6.743   9.491 -0.4248 -0.6505 -1.9878
  153SAPE  C21017005   4.595   6.529   9.419  0.3231  0.3225  0.5490
  153SAPE  H10R17006   4.556   6.429   9.447  0.0959  1.0074  2.8136
  153SAPE  H10S17007   4.700   6.513   9.385 -0.3356 -1.4347 -0.7221
  153SAPE  C21117008   4.510   6.569   9.300 -0.2559 -0.1581  0.6468
  153SAPE  H11R17009   4.403   6.549   9.317 -0.2373 -1.8256 -0.9576
  153SAPE  C21217010   4.560   6.618   9.180 -0.3088 -0.0934  1.0022
  153SAPE  H12R17011   4.482   6.646   9.107  1.7197 -0.6554 -1.4340
  153SAPE  C21317012   4.704   6.637   9.152 -0.1032 -0.3690  0.6733
  153SAPE  H13R17013   4.767   6.545   9.158  2.5470  1.2609 -1.2275
  153SAPE  H13S17014   4.744   6.695   9.238  2.5769  0.4376 -1.0689
  153SAPE  C21417015   4.758   6.701   9.024 -0.5044 -0.0173  0.5631
  153SAPE  H14R17016   4.770   6.810   9.023  0.1609 -0.0970 -1.0934
  153SAPE  C21517017   4.775   6.627   8.907 -0.0970  0.1830 -0.6437
  153SAPE  H15R17018   4.819   6.678   8.820  1.3645  0.6341  0.3400
  153SAPE  C21617019   4.752   6.476   8.890  0.1664  0.4224  0.3258
  153SAPE  H16R17020   4.722   6.452   8.786  0.7126 -0.5228  0.3771
  153SAPE  H16S17021   4.667   6.441   8.952 -0.2680  0.0340 -0.4826
  153SAPE  C21717022   4.868   6.381   8.926 -0.3623 -0.1523 -0.2560
  153SAPE  H17R17023   4.889   6.404   9.032 -1.9321  1.3699 -0.2447
  153SAPE  H17S17024   4.955   6.406   8.862 -0.1472 -0.5565 -0.1255
  153SAPE  C21817025   4.836   6.234   8.918  0.4317  0.1532  0.1587
  153SAPE  H18R17026   4.841   6.185   8.819  1.1032  1.0260 -0.2480
  153SAPE  H18S17027   4.734   6.217   8.959  1.1928 -2.0628  1.2329
  153SAPE  C21917028   4.924   6.148   9.001 -0.2746  1.1430  0.2140
  153SAPE  H19R17029   4.919   6.173   9.109 -1.1833  3.4992 -0.3425
  153SAPE  H19S17030   5.030   6.158   8.970  0.2335  2.1727  2.1966
  153SAPE  C22017031   4.877   5.997   8.990  0.3245 -0.7392 -0.5062
  153SAPE  H20R17032   4.817   5.987   8.897 -0.0641  1.3610 -0.5109
  153SAPE  H20S17033   4.806   5.973   9.072 -1.6736  2.2350 -1.2920
  153SAPE  H20T17034   4.961   5.925   8.999  0.0647 -0.8175  1.3915
  153SAPE   C3317035   4.734   5.749   9.962  0.5256 -0.7954 -0.0147
  153SAPE   H3X17036   4.694   5.690   9.877  2.6302  0.5772 -1.9887
  153SAPE   H3Y17037   4.824   5.692   9.995  2.0033  1.2860 -0.3739
  153SAPE   C3417038   4.779   5.886   9.909 -0.1621 -0.3225  0.3154
  153SAPE   H4X17039   4.828   5.946   9.988  4.0828 -0.5285 -2.0202
  153SAPE   H4Y17040   4.697   5.938   9.854 -0.4108 -0.2398  0.7676
  153SAPE   C3517041   4.894   5.879   9.812  0.1087  0.4056 -0.2103
  153SAPE   H5X17042   4.989   5.828   9.838 -1.1772 -1.1871  1.4354
  153SAPE   H5Y17043   4.920   5.987   9.801 -2.8845  1.0740 -1.3713
  153SAPE   C3617044   4.855   5.819   9.672 -0.2276  0.3594 -0.4725
  153SAPE   H6X17045   4.774   5.874   9.619 -2.4993 -1.8138  0.6119
  153SAPE   H6Y17046   4.808   5.719   9.687  0.0230  0.5343  1.6016
  153SAPE   C3717047   4.980   5.806   9.592 -0.0844 -0.4133 -0.1733
  153SAPE   H7X17048   5.053   5.734   9.636 -0.4682  0.3555  1.7758
  153SAPE   H7Y17049   5.040   5.900   9.585 -1.6847  0.6738  0.4390
  153SAPE   C3817050   4.959   5.739   9.455  0.5238  0.2811  0.1368
  153SAPE   H8X17051   4.887   5.802   9.398  0.2853  0.5538  0.7317
  153SAPE   H8Y17052   4.916   5.638   9.470  0.0732  0.1405 -1.8735
  153SAPE   C3917053   5.079   5.719   9.363  0.1077 -0.2774  0.4165
  153SAPE   H9X17054   5.149   5.637   9.390 -1.4634 -2.2128 -1.1924
  153SAPE   H9Y17055   5.127   5.819   9.357  0.8669 -0.7154 -1.1905
  153SAPE  C31017056   5.034   5.676   9.220 -0.0014 -0.4980 -0.3217
  153SAPE  H10X17057   4.977   5.758   9.172 -2.9014 -0.7757  2.5504
  153SAPE  H10Y17058   4.959   5.595   9.224  0.7577 -1.2112 -0.3597
  153SAPE  C31117059   5.150   5.637   9.137  0.1139 -0.1839 -0.1008
  153SAPE  H11X17060   5.215   5.572   9.199 -1.1599 -2.2377 -0.8819
  153SAPE  H11Y17061   5.208   5.727   9.106  0.5203 -1.3631 -2.8979
  153SAPE  C31217062   5.110   5.551   9.019 -0.1310  0.5388  0.2729
  153SAPE  H12X17063   5.036   5.606   8.957  1.0897  0.7000 -1.0576
  153SAPE  H12Y17064   5.051   5.464   9.054  2.7552 -0.8141  1.9361
  153SAPE  C31317065   5.230   5.489   8.948  1.0254  0.6524  0.1281
  153SAPE  H13X17066   5.196   5.407   8.880 -1.2371  2.5755 -1.1187
  153SAPE  H13Y17067   5.299   5.444   9.023  0.9967 -0.6184 -0.5771
  153SAPE  C31417068   5.307   5.594   8.868 -0.4779 -0.5873 -0.2621
  153SAPE  H14X17069   5.389   5.536   8.821  1.1388  2.2710 -1.0741
  153SAPE  H14Y17070   5.351   5.662   8.944  1.2978  0.7538 -2.4344
  153SAPE  C31517071   5.227   5.683   8.773 -0.2831 -0.1678  0.0696
  153SAPE  H15X17072   5.290   5.748   8.710 -2.0794 -0.0085 -1.6129
  153SAPE  H15Y17073   5.148   5.732   8.834 -0.1875 -0.1114  0.1454
  153SAPE  C31617074   5.159   5.594   8.663 -0.7040  0.7206 -0.3078
  153SAPE  H16X17075   5.072   5.538   8.704  1.1920 -2.4698 -0.3994
  153SAPE  H16Y17076   5.225   5.508   8.636 -1.7050 -0.3917  0.7423
  153SAPE  C31717077   5.135   5.664   8.528 -0.6086  0.0013 -0.3120
  153SAPE  H17X17078   5.217   5.732   8.495 -0.6984  0.4711  0.4085
  153SAPE  H17Y17079   5.048   5.731   8.542 -0.6975 -0.1486 -0.1619
  153SAPE  C31817080   5.087   5.567   8.418  0.5513 -0.1940  0.5132
  153SAPE  H18X17081   5.164   5.542   8.342  1.0525  0.0395  0.9380
  153SAPE  H18Y17082   5.005   5.618   8.363  2.8268  1.3215 -1.6224
  153SAPE  H18Z17083   5.053   5.467   8.453 -0.7921 -0.8145 -2.4038
  154SAPE     N17084   6.040   5.827  10.722  0.0238 -0.0209  0.3648
  154SAPE   HN117085   6.092   5.917  10.730 -2.0447  1.1260  1.3489
  154SAPE   HN217086   6.031   5.802  10.823 -0.2921 -0.0519  0.3296
  154SAPE   HN317087   6.093   5.762  10.661 -0.4782 -0.5553  0.4896
  154SAPE   C1217088   5.893   5.851  10.677 -0.7968  0.2929  0.1897
  154SAPE  H12A17089   5.829   5.868  10.766 -0.0555 -2.0179  1.2049
  154SAPE  H12B17090   5.871   5.757  10.622  2.9850 -1.0996  0.8929
  154SAPE   C1117091   5.881   5.969  10.580  0.1395  0.9339 -0.8742
  154SAPE  H11A17092   5.777   5.971  10.542  0.5575 -1.5917 -2.2456
  154SAPE  H11B17093   5.940   5.953  10.487 -0.6897  0.3978 -1.3086
  154SAPE     P17094   5.831   6.204  10.671 -0.6954 -0.2510  0.2199
  154SAPE   O1317095   5.701   6.161  10.711 -0.2555  0.7165  0.2895
  154SAPE   O1417096   5.913   6.293  10.764 -0.5315 -0.4993  0.1553
  154SAPE   O1217097   5.925   6.083  10.647  0.1108  0.4250  0.7939
  154SAPE   O1117098   5.827   6.272  10.527  0.1644  0.0895 -0.2880
  154SAPE    C117099   5.724   6.367  10.511  0.1741 -0.1377 -0.0707
  154SAPE    HA17100   5.679   6.412  10.602  0.2308  0.5727 -0.3918
  154SAPE    HB17101   5.762   6.457  10.458 -0.6316  0.6677  0.7083
  154SAPE    C217102   5.618   6.315  10.406  0.2328  0.5014  0.0889
  154SAPE    HS17103   5.579   6.224  10.455  1.7021 -0.4131 -0.4023
  154SAPE   O2117104   5.683   6.287  10.272  0.3336  0.5406  0.1963
  154SAPE   C2117105   5.692   6.148  10.247 -0.3409  0.1139 -0.8266
  154SAPE   O2217106   5.669   6.066  10.331  0.1760 -0.2995 -0.2364
  154SAPE   C2217107   5.740   6.124  10.105  0.1936  0.1020  0.1550
  154SAPE   H2R17108   5.653   6.139  10.037 -0.4831  0.3319  1.0631
  154SAPE   H2S17109   5.818   6.200  10.082  1.2576 -1.3334 -1.1331
  154SAPE    C317110   5.495   6.416  10.393  0.0803  0.5716 -0.1089
  154SAPE    HX17111   5.538   6.514  10.366 -1.4807  0.6965 -2.2351
  154SAPE    HY17112   5.438   6.419  10.488  1.6410 -2.2480  0.9815
  154SAPE   O3117113   5.409   6.370  10.282 -0.0866  0.5624 -0.2954
  154SAPE   C3117114   5.312   6.454  10.258 -0.8883 -0.0652 -0.3645
  154SAPE   O3217115   5.296   6.563  10.313  0.5198  0.0156 -0.2150
  154SAPE   C3217116   5.234   6.403  10.133  0.0187  0.3993 -0.2592
  154SAPE   H2X17117   5.159   6.482  10.113  0.0954  0.6220  0.3323
  154SAPE   H2Y17118   5.185   6.310  10.168  0.7279 -0.0564 -0.4645
  154SAPE   C2317119   5.790   5.980  10.083 -0.4137  0.9431 -0.6599
  154SAPE   H3R17120   5.704   5.911  10.092  0.8461 -0.8038 -1.5609
  154SAPE   H3S17121   5.861   5.950  10.163 -2.0086  1.0691  0.8204
  154SAPE   C2417122   5.838   5.955   9.936  0.4449  0.0387 -0.3594
  154SAPE   H4R17123   5.917   6.028   9.906 -1.3330  2.4558  0.6746
  154SAPE   H4S17124   5.753   5.981   9.869 -0.7914  0.0332  1.1685
  154SAPE   C2517125   5.913   5.822   9.911 -0.7960 -0.3588  0.7388
  154SAPE   H5R17126   5.967   5.796  10.004  1.8840 -0.9349 -0.9228
  154SAPE   C2617127   5.914   5.735   9.808  0.1041 -0.8279 -0.4520
  154SAPE   H6R17128   5.994   5.661   9.790  1.5661  1.0575 -2.0512
  154SAPE   C2717129   5.832   5.760   9.682 -0.4039 -0.1336 -0.6394
  154SAPE   H7R17130   5.772   5.853   9.679 -1.6377 -0.8575  0.5860
  154SAPE   H7S17131   5.746   5.690   9.695 -1.9108  2.2110  2.8668
  154SAPE   C2817132   5.918   5.730   9.562 -0.2481  0.0853  0.8583
  154SAPE   H8R17133   5.952   5.625   9.561 -2.1365 -0.5383 -0.8876
  154SAPE   C2917134   5.966   5.817   9.471  0.1366 -0.6485 -0.0315
  154SAPE   H9R17135   6.034   5.783   9.392  1.6166  1.6737  0.1805
  154SAPE  C21017136   5.940   5.964   9.466 -0.3566 -0.1476 -0.3845
  154SAPE  H10R17137   6.040   6.010   9.449  0.0047 -1.9411 -3.3876
  154SAPE  H10S17138   5.911   5.995   9.569  5.5106  0.7540  1.1561
  154SAPE  C21117139   5.842   6.003   9.361  0.3147  0.8634  0.3063
  154SAPE  H11R17140   5.742   5.958   9.368  1.9345 -3.2436 -1.0897
  154SAPE  C21217141   5.864   6.064   9.240 -0.3992 -0.7445 -0.2916
  154SAPE  H12R17142   5.774   6.095   9.186  0.9038  0.5731 -1.7519
  154SAPE  C21317143   5.995   6.120   9.182  0.1768 -0.5027 -0.3246
  154SAPE  H13R17144   6.067   6.140   9.265 -0.6166 -0.5456  0.3841
  154SAPE  H13S17145   5.976   6.224   9.148  1.1961 -0.6871 -1.5122
  154SAPE  C21417146   6.048   6.040   9.069  0.5091  0.4876  0.3391
  154SAPE  H14R17147   6.074   5.935   9.089 -1.5185  0.4293  3.1124
  154SAPE  C21517148   6.093   6.086   8.948  0.0132 -0.4599  0.6867
  154SAPE  H15R17149   6.143   6.024   8.871  0.4961 -1.0999  1.5087
  154SAPE  C21617150   6.090   6.227   8.900 -0.2967  0.2418 -0.2811
  154SAPE  H16R17151   5.987   6.259   8.928  0.0044  1.4005 -0.4743
  154SAPE  H16S17152   6.108   6.251   8.794  0.6536  1.2347  0.0997
  154SAPE  C21717153   6.195   6.297   8.988 -0.3622 -0.4517  0.0484
  154SAPE  H17R17154   6.163   6.283   9.093 -0.3541 -0.5711  0.0348
  154SAPE  H17S17155   6.193   6.406   8.965 -0.0890 -0.2043  1.2115
  154SAPE  C21817156   6.333   6.246   8.957  0.0784  0.3013  0.1825
  154SAPE  H18R17157   6.352   6.144   8.998 -0.7293  0.5036  1.0700
  154SAPE  H18S17158   6.400   6.303   9.025  0.3145  0.6282 -0.3231
  154SAPE  C21917159   6.386   6.269   8.812 -0.3979 -0.3269  0.3671
  154SAPE  H19R17160   6.330   6.197   8.749  1.6551 -0.5945 -1.1846
  154SAPE  H19S17161   6.488   6.227   8.804  0.0641  0.4343  1.9562
  154SAPE  C22017162   6.373   6.404   8.746  0.5072 -0.5155 -0.4743
  154SAPE  H20R17163   6.419   6.420   8.646  0.0748 -1.0108 -0.7516
  154SAPE  H20S17164   6.413   6.481   8.815 -1.6003 -2.1939  2.7332
  154SAPE  H20T17165   6.267   6.434   8.728  1.0172  0.9889 -1.0436
  154SAPE   C3317166   5.321   6.376  10.011  0.3556  0.1513 -0.0804
  154SAPE   H3X17167   5.256   6.350   9.924 -1.6035  0.7701  1.1494
  154SAPE   H3Y17168   5.377   6.283  10.034 -2.0391 -0.7349  2.5227
  154SAPE   C3417169   5.408   6.501   9.977  0.1332 -0.0133 -0.1840
  154SAPE   H4X17170   5.483   6.512  10.058  0.5993  0.4403 -0.6771
  154SAPE   H4Y17171   5.353   6.598   9.974  1.3573  0.8601  3.5831
  154SAPE   C3517172   5.475   6.486   9.842  0.8283 -0.2207 -0.4771
  154SAPE   H5X17173   5.515   6.587   9.817 -1.8563  0.8327 -0.6253
  154SAPE   H5Y17174   5.399   6.454   9.768  0.0478  0.2353  0.1221
  154SAPE   C3617175   5.590   6.391   9.844 -0.9950 -0.0549 -0.1064
  154SAPE   H6X17176   5.536   6.294   9.843 -1.5148  0.2180  0.9470
  154SAPE   H6Y17177   5.661   6.396   9.930  1.4136 -1.0560 -1.9789
  154SAPE   C3717178   5.680   6.413   9.725 -0.2616 -0.5278  0.2236
  154SAPE   H7X17179   5.717   6.518   9.717  1.2893 -1.0983 -0.0530
  154SAPE   H7Y17180   5.622   6.389   9.633 -2.5131 -0.6384  1.6202
  154SAPE   C3817181   5.813   6.330   9.721 -0.1084 -0.1544  0.8036
  154SAPE   H8X17182   5.789   6.222   9.715 -0.5327 -0.0465  0.5312
  154SAPE   H8Y17183   5.882   6.348   9.806  1.7001  0.4476 -0.7613
  154SAPE   C3917184   5.887   6.363   9.593  0.2700  0.2838 -0.6426
  154SAPE   H9X17185   5.824   6.330   9.508 -1.0393  1.3782 -0.1123
  154SAPE   H9Y17186   5.978   6.299   9.585 -1.0745 -1.6971 -0.6325
  154SAPE  C31017187   5.929   6.512   9.575  0.1226  0.6254 -0.4503
  154SAPE  H10X17188   5.985   6.544   9.666 -0.0500 -2.7256  0.9186
  154SAPE  H10Y17189   5.838   6.575   9.563  1.1434  2.3571  0.8180
  154SAPE  C31117190   6.025   6.536   9.458 -0.3214  0.4292  0.2974
  154SAPE  H11X17191   6.102   6.456   9.465  0.0299  0.7143 -0.2392
  154SAPE  H11Y17192   6.066   6.639   9.469  1.4283 -0.1161 -0.9431
  154SAPE  C31217193   5.963   6.532   9.315 -0.1747  0.4273  0.1885
  154SAPE  H12X17194   5.860   6.573   9.320 -1.4027 -2.6521  0.6906
  154SAPE  H12Y17195   5.965   6.424   9.290  1.2658  0.3364  0.6357
  154SAPE  C31317196   6.039   6.617   9.217  0.7883  0.3107  0.3090
  154SAPE  H13X17197   6.144   6.582   9.218  0.6141 -0.3342 -1.6227
  154SAPE  H13Y17198   6.038   6.722   9.252  1.5872 -0.0606  1.4484
  154SAPE  C31417199   5.978   6.616   9.073  0.8357 -0.6614 -0.2460
  154SAPE  H14X17200   5.870   6.640   9.083  1.3336  1.4995  0.1975
  154SAPE  H14Y17201   5.988   6.509   9.044 -2.0945 -1.4831  1.5497
  154SAPE  C31517202   6.030   6.715   8.973 -0.2524  0.0395  0.3726
  154SAPE  H15X17203   6.140   6.707   8.968 -0.4056 -1.7802 -0.2383
  154SAPE  H15Y17204   6.008   6.820   9.004 -0.1761  0.4747 -1.0303
  154SAPE  C31617205   5.968   6.678   8.835  0.0767  0.6108 -0.1370
  154SAPE  H16X17206   5.860   6.706   8.836  0.2239  1.2120  1.0090
  154SAPE  H16Y17207   5.973   6.567   8.831  0.9087  0.5936  1.0047
  154SAPE  C31717208   6.038   6.744   8.714 -0.2675  0.3652  0.9452
  154SAPE  H17X17209   6.146   6.721   8.724  0.0310  0.8820 -0.8400
  154SAPE  H17Y17210   6.034   6.854   8.728  1.9621  0.8466 -1.6577
  154SAPE  C31817211   5.993   6.692   8.577 -0.0133  0.7231  0.5551
  154SAPE  H18X17212   6.046   6.747   8.497 -0.1710 -0.3694 -0.3002
  154SAPE  H18Y17213   5.885   6.685   8.555  0.0721 -0.9206  0.6017
  154SAPE  H18Z17214   6.024   6.586   8.570  1.7297  1.3665 -2.0884
  155SAPE     N17215   6.458   0.255  11.059  0.2796  0.2288  0.3054
  155SAPE   HN117216   6.552   0.280  11.096 -0.8438  2.6645  1.5883
  155SAPE   HN217217   6.423   0.346  11.022  2.4467 -0.1328 -2.8568
  155SAPE   HN317218   6.398   0.224  11.138 -0.6320  0.3831 -0.3210
  155SAPE   C1217219   6.454   0.169  10.938 -0.2558  0.2162  0.1814
  155SAPE  H12A17220   6.353   0.126  10.922  0.5803 -0.9927 -1.9576
  155SAPE  H12B17221   6.522   0.084  10.961 -2.6053 -1.8149 -0.1535
  155SAPE   C1117222   6.498   0.257  10.814 -0.1355  0.6654  0.0785
  155SAPE  H11A17223   6.424   0.339  10.807 -2.2658 -1.1023  1.2647
  155SAPE  H11B17224   6.483   0.202  10.719  1.1253  0.7180 -0.1624
  155SAPE     P17225   6.752   0.243  10.788 -0.1093 -0.1347 -0.0980
  155SAPE   O1317226   6.871   0.315  10.823 -0.7743  0.0847  0.7516
  155SAPE   O1417227   6.749   0.107  10.843  0.8866  0.1072  0.3086
  155SAPE   O1217228   6.630   0.315  10.835  0.0457 -0.2477  0.0792
  155SAPE   O1117229   6.726   0.217  10.636 -0.1709  0.1530 -0.0055
  155SAPE    C117230   6.734   0.329  10.551  0.4596  0.0093  0.4711
  155SAPE    HA17231   6.643   0.394  10.560  1.5871  1.5231  1.2276
  155SAPE    HB17232   6.822   0.396  10.559  0.2459  0.6007 -1.6687
  155SAPE    C217233   6.743   0.278  10.410 -0.3420  0.0440  0.2441
  155SAPE    HS17234   6.841   0.228  10.395 -0.1956  1.0147 -2.3611
  155SAPE   O2117235   6.746   0.394  10.324  0.0793  0.0213  0.0183
  155SAPE   C2117236   6.866   0.454  10.287 -0.5330  0.1287  0.4963
  155SAPE   O2217237   6.974   0.400  10.306 -0.3041 -0.4887  0.2503
  155SAPE   C2217238   6.845   0.587  10.227 -0.8850 -0.3422 -0.0058
  155SAPE   H2R17239   6.818   0.662  10.304  2.3554 -0.5719  1.4597
  155SAPE   H2S17240   6.942   0.617  10.181  0.8129 -1.2842  2.8126
  155SAPE    C317241   6.626   0.186  10.375 -0.0770 -0.2344 -0.5393
  155SAPE    HX17242   6.536   0.240  10.410  1.5293  1.2792  1.3607
  155SAPE    HY17243   6.616   0.092  10.433  0.7173 -0.2731 -0.4553
  155SAPE   O3117244   6.620   0.161  10.230 -0.7046 -0.2170 -0.5116
  155SAPE   C3117245   6.714   0.069  10.190  0.1158 -0.1806  0.1513
  155SAPE   O3217246   6.778   0.001  10.265 -0.6083  0.5558 -0.3666
  155SAPE   C3217247   6.730   0.077  10.035  0.3959  0.0164  0.2992
  155SAPE   H2X17248   6.675   0.165   9.995  0.5103  0.0422  0.1968
  155SAPE   H2Y17249   6.676  -0.011   9.994 -2.8110  1.8150  0.5400
  155SAPE   C2317250   6.733   0.588  10.125 -0.2268  0.6178  0.2677
  155SAPE   H3R17251   6.695   0.692  10.114 -0.6538  0.4347  0.0045
  155SAPE   H3S17252   6.656   0.517  10.162  1.5683 -1.6555 -0.2378
  155SAPE   C2417253   6.792   0.548   9.983 -0.3481  0.5355 -0.3235
  155SAPE   H4R17254   6.827   0.443   9.986 -1.5020  0.1063 -1.6025
  155SAPE   H4S17255   6.870   0.624   9.961 -1.0247  0.9354 -1.3983
  155SAPE   C2517256   6.685   0.560   9.876  0.3937 -0.0932 -0.0792
  155SAPE   H5R17257   6.584   0.549   9.919  0.8340  2.3879  1.7034
  155SAPE   C2617258   6.705   0.558   9.736  0.1798 -0.5046  0.4580
  155SAPE   H6R17259   6.623   0.557   9.663 -0.3264  0.1831  1.0132
  155SAPE   C2717260   6.839   0.547   9.671 -0.0150  1.1701  0.1185
  155SAPE   H7R17261   6.848   0.450   9.616  0.5586  0.4921  1.3960
  155SAPE   H7S17262   6.916   0.541   9.751  1.2425 -0.4350 -1.1520
  155SAPE   C2817263   6.871   0.660   9.580 -0.2443 -0.8507 -0.2066
  155SAPE   H8R17264   6.949   0.727   9.619  0.6443 -2.9999  1.8161
  155SAPE   C2917265   6.833   0.677   9.451 -0.4109  0.0829  0.1175
  155SAPE   H9R17266   6.857   0.770   9.398 -1.2442  0.6987  0.8234
  155SAPE  C21017267   6.756   0.582   9.366  0.1823 -0.0962 -0.0536
  155SAPE  H10R17268   6.708   0.647   9.289 -1.0398 -2.0692 -1.0010
  155SAPE  H10S17269   6.679   0.534   9.430  1.3819  0.0111  1.5112
  155SAPE  C21117270   6.840   0.479   9.302 -0.1226 -0.2854  0.3627
  155SAPE  H11R17271   6.936   0.470   9.354  1.3837 -1.4046 -2.5064
  155SAPE  C21217272   6.816   0.429   9.184  0.1627 -0.3022 -0.1342
  155SAPE  H12R17273   6.889   0.364   9.134  2.2517  0.9147  1.2763
  155SAPE  C21317274   6.691   0.476   9.100 -0.3915 -0.0367 -0.6697
  155SAPE  H13R17275   6.723   0.563   9.038  2.5595 -0.7290 -0.1922
  155SAPE  H13S17276   6.613   0.519   9.166  1.4465 -0.5923  1.9075
  155SAPE  C21417277   6.623   0.373   9.015 -0.3173 -0.2707  0.6068
  155SAPE  H14R17278   6.568   0.301   9.076 -0.3761 -2.9255 -2.4980
  155SAPE  C21517279   6.609   0.372   8.879  1.1448 -0.6144  0.8537
  155SAPE  H15R17280   6.552   0.295   8.824 -0.2428 -0.7954  2.4973
  155SAPE  C21617281   6.668   0.464   8.774  0.0846 -0.3554 -0.0213
  155SAPE  H16R17282   6.735   0.398   8.715  1.2256 -1.1108  2.0996
  155SAPE  H16S17283   6.733   0.537   8.826 -0.5772  0.6027 -0.5114
  155SAPE  C21717284   6.567   0.512   8.668 -0.2190  0.4177 -0.5962
  155SAPE  H17R17285   6.486   0.573   8.714 -0.2884  0.0406 -0.2077
  155SAPE  H17S17286   6.520   0.436   8.602 -1.1389 -1.1349  1.7589
  155SAPE  C21817287   6.643   0.611   8.577 -0.4045  0.1937  0.0622
  155SAPE  H18R17288   6.704   0.682   8.638  0.9758 -0.9958  0.0822
  155SAPE  H18S17289   6.577   0.671   8.510  0.2101  0.0124 -0.7125
  155SAPE  C21917290   6.737   0.546   8.472 -0.8556  0.6266 -0.1851
  155SAPE  H19R17291   6.676   0.483   8.404  0.2146  0.3074 -0.8459
  155SAPE  H19S17292   6.816   0.483   8.517 -0.6696  0.4543 -0.7499
  155SAPE  C22017293   6.803   0.653   8.387 -0.1199  0.3625  0.1260
  155SAPE  H20R17294   6.728   0.706   8.325  1.2318  1.0932 -0.9107
  155SAPE  H20S17295   6.863   0.604   8.308 -1.5543 -1.2516  0.0245
  155SAPE  H20T17296   6.870   0.717   8.450  0.2444 -1.8787  2.0916
  155SAPE   C3317297   6.885   0.075  10.004 -0.0762 -0.0148 -0.2710
  155SAPE   H3X17298   6.934  -0.009  10.058  0.1555  0.3803  0.1354
  155SAPE   H3Y17299   6.944   0.165  10.032 -1.3701  1.3354 -1.7913
  155SAPE   C3417300   6.915   0.050   9.854 -0.1513  0.2480  0.5051
  155SAPE   H4X17301   6.864  -0.038   9.811  0.0229 -0.5500  1.9157
  155SAPE   H4Y17302   7.025   0.034   9.849 -0.1702  0.1138  0.5129
  155SAPE   C3517303   6.882   0.163   9.757  0.4875  0.5805  0.0711
  155SAPE   H5X17304   6.937   0.248   9.804  1.1223  0.7826 -1.0185
  155SAPE   H5Y17305   6.772   0.178   9.762  0.2115 -1.4276  0.1531
  155SAPE   C3617306   6.938   0.152   9.616 -0.7474 -0.3040 -0.0037
  155SAPE   H6X17307   7.048   0.137   9.613 -0.4660  1.5750  0.0629
  155SAPE   H6Y17308   6.926   0.256   9.579 -0.7297 -1.2787 -2.8779
  155SAPE   C3717309   6.859   0.052   9.533 -0.5823  0.9109 -0.1139
  155SAPE   H7X17310   6.754   0.082   9.554 -1.1324 -0.3590 -1.0017
  155SAPE   H7Y17311   6.872  -0.053   9.567 -0.2643  0.3232 -1.9791
  155SAPE   C3817312   6.874   0.065   9.376  0.2288 -0.2938  0.5379
  155SAPE   H8X17313   6.794   0.131   9.335  0.9999  0.3732  0.0853
  155SAPE   H8Y17314   6.849  -0.036   9.339  2.0341 -1.5977  2.8041
  155SAPE   C3917315   7.012   0.101   9.325 -0.1431 -0.5057  0.1152
  155SAPE   H9X17316   7.080   0.028   9.373 -0.3445 -1.4606 -1.0302
  155SAPE   H9Y17317   7.046   0.204   9.348 -0.5594 -0.1286 -0.9169
  155SAPE  C31017318   7.020   0.087   9.174 -0.5118  0.1687  0.0529
  155SAPE  H10X17319   6.954   0.165   9.130  0.3128  0.3457 -0.8746
  155SAPE  H10Y17320   6.997  -0.019   9.147  0.3709 -0.7881  2.8818
  155SAPE  C31117321   7.167   0.117   9.126  0.0543  0.4091 -0.0579
  155SAPE  H11X17322   7.239   0.074   9.198  2.1005  1.4103 -1.4703
  155SAPE  H11Y17323   7.176   0.228   9.134  2.1635  0.3523 -1.4280
  155SAPE  C31217324   7.189   0.089   8.980  0.7500 -0.2233 -0.1150
  155SAPE  H12X17325   7.093   0.097   8.926  1.2975  1.2465 -0.8990
  155SAPE  H12Y17326   7.234  -0.011   8.963  0.2350 -0.3219 -0.9292
  155SAPE  C31317327   7.293   0.177   8.909  0.3966 -0.4219 -0.3294
  155SAPE  H13X17328   7.392   0.173   8.959  0.2516 -0.6745 -0.0562
  155SAPE  H13Y17329   7.252   0.280   8.920  0.3994 -0.4465 -0.0937
  155SAPE  C31417330   7.313   0.155   8.761  0.5357 -0.6928 -0.1668
  155SAPE  H14X17331   7.351   0.248   8.715 -0.0132 -0.2912  0.1813
  155SAPE  H14Y17332   7.208   0.139   8.726  0.1338  0.4739  0.4675
  155SAPE  C31517333   7.389   0.030   8.716 -0.4050  0.0950 -0.6363
  155SAPE  H15X17334   7.357  -0.008   8.617 -1.7362 -0.1131 -0.1350
  155SAPE  H15Y17335   7.387  -0.040   8.802  3.9564  1.0757  0.3989
  155SAPE  C31617336   7.540   0.055   8.698  0.3917 -0.4320  0.1927
  155SAPE  H16X17337   7.586   0.048   8.799  0.5147 -0.0896  0.1616
  155SAPE  H16Y17338   7.544   0.164   8.676 -1.2856  0.5892  4.2906
  155SAPE  C31717339   7.616  -0.040   8.594  0.1623  0.1086  0.4121
  155SAPE  H17X17340   7.622   0.012   8.497 -1.2150  2.6352  1.6225
  155SAPE  H17Y17341   7.559  -0.135   8.583  2.4601 -1.0891 -1.5871
  155SAPE  C31817342   7.762  -0.064   8.632  0.2842 -0.2283 -0.4151
  155SAPE  H18X17343   7.818   0.029   8.655  0.1833 -0.0231 -0.9935
  155SAPE  H18Y17344   7.818  -0.112   8.549  0.6191  1.5210 -1.2001
  155SAPE  H18Z17345   7.762  -0.125   8.725 -0.7861  0.7191  0.2182
  156SAPE     N17346   4.408   5.188  10.561  0.1814  0.0220  0.4811
  156SAPE   HN117347   4.447   5.284  10.550  0.5568 -0.3900 -1.8924
  156SAPE   HN217348   4.308   5.214  10.571  0.5477  2.0475 -0.8562
  156SAPE   HN317349   4.452   5.147  10.646  0.6192  1.3799  0.9275
  156SAPE   C1217350   4.419   5.096  10.439  0.6490 -0.1683 -0.7214
  156SAPE  H12A17351   4.390   5.156  10.350 -1.6150  0.3251  0.3154
  156SAPE  H12B17352   4.342   5.017  10.449  0.7968 -0.3250 -0.8261
  156SAPE   C1117353   4.558   5.035  10.424 -0.4678 -0.1140 -0.6266
  156SAPE  H11A17354   4.632   5.116  10.437  0.5031 -1.3210  1.7663
  156SAPE  H11B17355   4.563   4.989  10.323 -0.1863  0.5586 -0.9175
  156SAPE     P17356   4.563   4.789  10.509 -0.2569 -0.3626 -0.1212
  156SAPE   O1317357   4.586   4.722  10.640  0.1544  0.4559  0.4383
  156SAPE   O1417358   4.431   4.762  10.444 -0.5383  0.0687  0.2979
  156SAPE   O1217359   4.585   4.939  10.532 -0.2759 -0.2523  0.1330
  156SAPE   O1117360   4.678   4.748  10.405  0.6990 -0.9002  0.6826
  156SAPE    C117361   4.800   4.814  10.398 -0.4037 -0.3443  0.3438
  156SAPE    HA17362   4.784   4.924  10.403 -0.5889 -0.2089 -2.4862
  156SAPE    HB17363   4.864   4.800  10.489 -0.7204 -0.6024  0.5274
  156SAPE    C217364   4.878   4.771  10.276 -0.1904  0.4060  0.3348
  156SAPE    HS17365   4.970   4.831  10.260  0.0779 -0.2360 -0.5664
  156SAPE   O2117366   4.802   4.776  10.157 -0.1426 -0.4672  0.3073
  156SAPE   C2117367   4.788   4.905  10.109  0.0344 -0.1268 -0.1369
  156SAPE   O2217368   4.850   4.999  10.156 -0.2085 -0.4539 -0.1761
  156SAPE   C2217369   4.685   4.907   9.990  0.4413  0.4233  0.1666
  156SAPE   H2R17370   4.639   4.806   9.993 -2.2523  1.6215  1.2311
  156SAPE   H2S17371   4.606   4.982  10.014 -0.9049 -0.9009 -0.0855
  156SAPE    C317372   4.928   4.627  10.298 -0.0340 -0.0910 -0.3240
  156SAPE    HX17373   4.834   4.569  10.309 -0.5105  0.2934 -2.1047
  156SAPE    HY17374   4.994   4.618  10.387  0.4646  0.6881 -0.6079
  156SAPE   O3117375   4.998   4.579  10.179  0.6609  0.1173 -0.2248
  156SAPE   C3117376   5.119   4.633  10.147 -0.6459  0.6717 -0.2898
  156SAPE   O3217377   5.168   4.731  10.204  0.7938 -0.4858  0.1988
  156SAPE   C3217378   5.186   4.555  10.049  0.1892  0.4490  0.6201
  156SAPE   H2X17379   5.137   4.456  10.044 -0.0319  0.5369  1.0192
  156SAPE   H2Y17380   5.293   4.533  10.071  0.9133  1.2039 -1.9732
  156SAPE   C2317381   4.753   4.940   9.850  0.2339 -0.1238  0.1243
  156SAPE   H3R17382   4.829   5.018   9.876 -0.0908  0.6978 -1.3469
  156SAPE   H3S17383   4.673   4.998   9.799 -1.2724 -1.0130  1.4307
  156SAPE   C2417384   4.808   4.816   9.781  0.0812 -0.0009 -0.2020
  156SAPE   H4R17385   4.719   4.765   9.737 -1.5760  1.8688  0.8613
  156SAPE   H4S17386   4.862   4.750   9.851  0.8327  0.3038 -0.4939
  156SAPE   C2517387   4.913   4.857   9.680 -0.1270  0.0533 -0.5587
  156SAPE   H5R17388   5.011   4.872   9.726  0.6885 -5.0608 -0.3479
  156SAPE   C2617389   4.898   4.892   9.549  0.0422 -0.4465  0.2440
  156SAPE   H6R17390   4.977   4.914   9.477  1.1212  0.1488  1.5838
  156SAPE   C2717391   4.762   4.868   9.482  0.1397 -0.0616 -0.3688
  156SAPE   H7R17392   4.770   4.938   9.395  1.4613 -0.5991 -0.6907
  156SAPE   H7S17393   4.674   4.895   9.543 -0.7978 -0.8699 -1.3512
  156SAPE   C2817394   4.740   4.722   9.450 -0.4224  0.1271  0.2915
  156SAPE   H8R17395   4.778   4.652   9.525 -0.7304 -1.0422 -0.6385
  156SAPE   C2917396   4.684   4.679   9.337 -0.7236  0.9483  0.5538
  156SAPE   H9R17397   4.687   4.572   9.313  1.6915  1.8065 -3.3240
  156SAPE  C21017398   4.628   4.759   9.228 -0.0286  0.2026 -0.0540
  156SAPE  H10R17399   4.648   4.867   9.244 -0.5323  0.1793  0.7985
  156SAPE  H10S17400   4.519   4.738   9.236  0.5806 -3.0287  0.6412
  156SAPE  C21117401   4.671   4.725   9.093 -0.5329  0.7131  0.0306
  156SAPE  H11R17402   4.748   4.792   9.053 -1.2687  0.9368 -1.0406
  156SAPE  C21217403   4.619   4.631   9.010  0.1419 -0.0692 -0.8594
  156SAPE  H12R17404   4.676   4.615   8.917 -0.4846  1.5190 -1.5233
  156SAPE  C21317405   4.510   4.537   9.056 -0.0269  0.2203 -0.1543
  156SAPE  H13R17406   4.407   4.566   9.024 -1.6337 -3.3133  1.4628
  156SAPE  H13S17407   4.507   4.530   9.166  1.9297  0.0928 -0.1099
  156SAPE  C21417408   4.536   4.391   9.014 -0.0177  0.0992 -0.3599
  156SAPE  H14R17409   4.611   4.347   9.081 -1.0064 -2.4167 -0.8669
  156SAPE  C21517410   4.485   4.323   8.911 -0.3821 -0.1913  0.6539
  156SAPE  H15R17411   4.504   4.216   8.894 -2.0596 -0.2187 -1.2896
  156SAPE  C21617412   4.384   4.389   8.813 -0.1756 -0.6508  0.8004
  156SAPE  H16R17413   4.390   4.334   8.717 -0.7963  0.1723  0.2833
  156SAPE  H16S17414   4.411   4.495   8.795 -0.5604 -0.7634 -0.4813
  156SAPE  C21717415   4.228   4.395   8.868  0.3661  0.2339  0.0866
  156SAPE  H17R17416   4.215   4.455   8.960 -1.0018 -1.6846  1.1785
  156SAPE  H17S17417   4.189   4.292   8.885  1.0063 -0.2800 -1.4400
  156SAPE  C21817418   4.138   4.468   8.772  0.1624 -0.0301  0.1898
  156SAPE  H18R17419   4.138   4.421   8.671 -0.9466  1.4708 -0.5462
  156SAPE  H18S17420   4.166   4.573   8.748  1.4685  0.4498  3.6134
  156SAPE  C21917421   3.994   4.488   8.818  0.0098 -0.6243  0.0722
  156SAPE  H19R17422   3.997   4.586   8.870 -1.0057  0.4526 -1.8349
  156SAPE  H19S17423   3.960   4.407   8.886 -2.6360  0.3820  0.0004
  156SAPE  C22017424   3.891   4.504   8.701  0.2076  0.3814 -0.1788
  156SAPE  H20R17425   3.893   4.412   8.638  0.5765 -1.2722  2.1776
  156SAPE  H20S17426   3.906   4.600   8.648  1.8542  0.1956 -0.0781
  156SAPE  H20T17427   3.788   4.505   8.744 -0.8732  0.5574 -2.7208
  156SAPE   C3317428   5.192   4.632   9.913  0.0153  0.0122 -0.1224
  156SAPE   H3X17429   5.253   4.724   9.927  0.5270 -0.0318 -1.9027
  156SAPE   H3Y17430   5.086   4.656   9.887 -0.3546  0.3390  1.6137
  156SAPE   C3417431   5.258   4.562   9.796  0.5784  0.0087  0.4221
  156SAPE   H4X17432   5.234   4.453   9.798 -1.1759  0.3301 -1.1188
  156SAPE   H4Y17433   5.367   4.571   9.810  1.3237 -2.3784 -3.0789
  156SAPE   C3517434   5.226   4.625   9.661 -0.2668  0.0574 -0.5599
  156SAPE   H5X17435   5.242   4.734   9.673  1.1469 -0.0438 -1.4070
  156SAPE   H5Y17436   5.119   4.601   9.640 -0.6012 -2.0660  3.1655
  156SAPE   C3617437   5.302   4.573   9.540  0.0189  0.4514  0.5803
  156SAPE   H6X17438   5.283   4.463   9.544 -1.0532  0.6310  0.5670
  156SAPE   H6Y17439   5.411   4.595   9.541  0.0543  0.4689 -1.0338
  156SAPE   C3717440   5.248   4.626   9.403  0.0181 -0.1106  0.0359
  156SAPE   H7X17441   5.137   4.634   9.400  0.1169  2.8232  1.9148
  156SAPE   H7Y17442   5.264   4.558   9.316 -2.8286 -1.6742  0.6905
  156SAPE   C3817443   5.294   4.767   9.375  0.6316  0.0700  0.1567
  156SAPE   H8X17444   5.403   4.766   9.355  0.6599 -0.5321  0.3184
  156SAPE   H8Y17445   5.269   4.839   9.456  0.3425 -0.1796  0.2943
  156SAPE   C3917446   5.219   4.821   9.255  0.0710  0.6931  1.0627
  156SAPE   H9X17447   5.227   4.932   9.248 -0.2978  0.5486 -2.3999
  156SAPE   H9Y17448   5.109   4.810   9.266  0.0809 -0.2869  0.2066
  156SAPE  C31017449   5.251   4.761   9.116  0.3264  0.0389  0.0890
  156SAPE  H10X17450   5.163   4.776   9.050  0.3812  0.6899  0.1708
  156SAPE  H10Y17451   5.259   4.651   9.130  2.1238  0.2604  0.8930
  156SAPE  C31117452   5.383   4.808   9.055 -0.4210  0.7278  0.1752
  156SAPE  H11X17453   5.466   4.796   9.128 -0.2447 -2.4384 -0.4740
  156SAPE  H11Y17454   5.360   4.916   9.049 -0.2602  0.8291  1.2468
  156SAPE  C31217455   5.413   4.756   8.916  0.1918 -0.2904  0.3782
  156SAPE  H12X17456   5.316   4.775   8.864 -0.3168  0.1278  1.4642
  156SAPE  H12Y17457   5.423   4.646   8.920  0.3501 -0.2951 -0.1312
  156SAPE  C31317458   5.539   4.808   8.853 -0.4740 -0.5679 -0.1215
  156SAPE  H13X17459   5.623   4.753   8.899  0.7538  1.5818  0.2400
  156SAPE  H13Y17460   5.551   4.918   8.855 -0.0878 -0.5643 -1.6412
  156SAPE  C31417461   5.544   4.778   8.705  1.0122  0.7911  0.3609
  156SAPE  H14X17462   5.446   4.788   8.654  1.7493 -2.0259 -1.7288
  156SAPE  H14Y17463   5.562   4.669   8.691  1.6696  0.9186  0.1770
  156SAPE  C31517464   5.640   4.867   8.625 -1.1753 -0.0347  0.6044
  156SAPE  H15X17465   5.621   4.975   8.647 -3.1590 -0.6039  1.8118
  156SAPE  H15Y17466   5.624   4.867   8.515  0.0308 -0.5616  0.4204
  156SAPE  C31617467   5.788   4.831   8.647 -0.1131  0.1925 -0.8353
  156SAPE  H16X17468   5.794   4.723   8.623  2.3493  0.4380 -1.4888
  156SAPE  H16Y17469   5.839   4.848   8.744 -0.8254  0.6712 -0.5391
  156SAPE  C31717470   5.880   4.878   8.542 -0.1434 -0.8980 -0.5717
  156SAPE  H17X17471   5.824   4.906   8.450  2.2995  0.4283 -1.7125
  156SAPE  H17Y17472   5.948   4.795   8.515  0.3234 -0.6097 -0.2817
  156SAPE  C31817473   5.955   5.002   8.592  0.3479  0.4312  0.5211
  156SAPE  H18X17474   6.007   5.001   8.690 -1.6966  0.3033  1.6123
  156SAPE  H18Y17475   5.900   5.098   8.585 -0.4893  0.0357  1.6458
  156SAPE  H18Z17476   6.033   5.008   8.512 -0.5719  1.4652 -0.3167
  157SAPE     N17477   2.759   4.779  10.600  0.7842 -0.2958 -0.1388
  157SAPE   HN117478   2.746   4.838  10.684  0.2243  0.4274 -0.7316
  157SAPE   HN217479   2.687   4.815  10.534  0.5495 -1.5892 -0.6135
  157SAPE   HN317480   2.741   4.678  10.620 -4.6782  0.9448  2.1505
  157SAPE   C1217481   2.899   4.792  10.542  0.2078 -0.3661 -1.0392
  157SAPE  H12A17482   2.909   4.896  10.503 -0.9543  0.7937  1.6262
  157SAPE  H12B17483   2.911   4.715  10.463 -0.0627 -1.0716 -0.3902
  157SAPE   C1117484   3.009   4.760  10.643  1.3721  0.1863  0.4364
  157SAPE  H11A17485   2.999   4.657  10.681 -2.2480  0.8753  1.5906
  157SAPE  H11B17486   2.991   4.818  10.736 -2.5078 -1.5683  0.8853
  157SAPE     P17487   3.201   4.933  10.587  0.4747 -0.0965  0.3113
  157SAPE   O1317488   3.108   5.034  10.532  0.4829  0.5684 -0.0687
  157SAPE   O1417489   3.239   4.950  10.732 -0.1695 -0.3999  0.0344
  157SAPE   O1217490   3.132   4.790  10.579 -0.2741 -0.5383  0.4860
  157SAPE   O1117491   3.333   4.927  10.492  0.5018  0.7866  0.4258
  157SAPE    C117492   3.369   4.798  10.446  0.3688 -0.1831 -0.3009
  157SAPE    HA17493   3.407   4.739  10.532 -0.2826  1.8086  1.3869
  157SAPE    HB17494   3.283   4.743  10.402 -1.1220 -0.1066  2.3930
  157SAPE    C217495   3.474   4.810  10.336 -0.1999  0.4018 -0.6395
  157SAPE    HS17496   3.566   4.856  10.379 -0.6747 -0.9122  1.8726
  157SAPE   O2117497   3.429   4.896  10.225  0.1928  0.5787  0.0672
  157SAPE   C2117498   3.524   4.936  10.143 -0.0851  1.0777 -0.1170
  157SAPE   O2217499   3.644   4.938  10.174  0.0374  0.6741 -0.1771
  157SAPE   C2217500   3.461   4.974  10.009 -0.1397 -0.0757  0.3955
  157SAPE   H2R17501   3.441   4.876   9.961 -1.1434 -0.4974  1.6775
  157SAPE   H2S17502   3.363   5.022  10.029  0.9154  2.3649 -0.0064
  157SAPE    C317503   3.513   4.670  10.288 -0.1403  0.0137  0.4235
  157SAPE    HX17504   3.428   4.643  10.221  0.2829 -1.0683  0.3190
  157SAPE    HY17505   3.521   4.621  10.387  1.4572  2.7458  1.6962
  157SAPE   O3117506   3.627   4.668  10.200 -0.4358 -0.2046  0.5865
  157SAPE   C3117507   3.738   4.611  10.246  0.6940 -0.7988 -0.1764
  157SAPE   O3217508   3.749   4.554  10.351 -0.6980  0.3632  0.2504
  157SAPE   C3217509   3.854   4.638  10.140  0.3995 -0.1707 -0.1678
  157SAPE   H2X17510   3.942   4.687  10.186  0.6525 -0.6788 -0.1016
  157SAPE   H2Y17511   3.823   4.716  10.067  0.9662  2.4425  2.2792
  157SAPE   C2317512   3.561   5.045   9.917  0.6442  0.6776 -0.2370
  157SAPE   H3R17513   3.644   4.972   9.899 -0.6861 -1.3655  1.6019
  157SAPE   H3S17514   3.601   5.133   9.972 -1.8598  1.0042  1.1293
  157SAPE   C2417515   3.504   5.092   9.780  0.4781  0.7985  0.7649
  157SAPE   H4R17516   3.489   4.992   9.733 -0.7958  0.6543  1.4484
  157SAPE   H4S17517   3.588   5.135   9.722 -0.0649  0.3491 -0.3839
  157SAPE   C2517518   3.377   5.175   9.788 -0.0922  0.2909  0.3965
  157SAPE   H5R17519   3.334   5.181   9.889 -4.6180  0.9371 -1.4484
  157SAPE   C2617520   3.323   5.237   9.685  0.8038  0.4270  0.2102
  157SAPE   H6R17521   3.235   5.302   9.698  0.4704  0.2856 -1.2911
  157SAPE   C2717522   3.385   5.230   9.545 -0.0793  0.7204  0.4892
  157SAPE   H7R17523   3.313   5.181   9.477  1.7155 -0.1552 -0.8242
  157SAPE   H7S17524   3.486   5.184   9.537 -0.4949  0.2032 -2.0188
  157SAPE   C2817525   3.383   5.377   9.502  0.1835 -0.0745 -0.3791
  157SAPE   H8R17526   3.335   5.448   9.571 -1.9034 -1.1754 -0.6602
  157SAPE   C2917527   3.426   5.431   9.388 -0.3698 -0.4734 -1.1670
  157SAPE   H9R17528   3.397   5.535   9.365  0.8129  0.1925  0.3106
  157SAPE  C21017529   3.493   5.354   9.279 -0.6247 -0.2860  0.5188
  157SAPE  H10R17530   3.421   5.340   9.195  0.1429  1.2383 -0.4166
  157SAPE  H10S17531   3.511   5.250   9.314  0.4821  0.0694  1.0209
  157SAPE  C21117532   3.625   5.414   9.245  0.0363  0.4051 -0.2610
  157SAPE  H11R17533   3.695   5.403   9.329  0.0505 -2.1849 -0.5764
  157SAPE  C21217534   3.670   5.491   9.142  0.6598 -0.2333 -1.1594
  157SAPE  H12R17535   3.777   5.516   9.139 -0.0124  2.8432 -0.5688
  157SAPE  C21317536   3.598   5.532   9.021  0.6543  0.1258  0.4074
  157SAPE  H13R17537   3.548   5.630   9.036 -0.7644 -0.7019  1.2285
  157SAPE  H13S17538   3.514   5.460   9.012 -1.0076  2.2685 -1.7117
  157SAPE  C21417539   3.678   5.543   8.895 -0.3168  0.5507 -0.1485
  157SAPE  H14R17540   3.763   5.612   8.903 -0.5450  0.7298  0.7824
  157SAPE  C21517541   3.659   5.484   8.778 -0.7604 -0.7821  0.5047
  157SAPE  H15R17542   3.718   5.505   8.688  0.2885 -1.3439  1.0587
  157SAPE  C21617543   3.549   5.384   8.753 -0.0693  0.0403 -0.2678
  157SAPE  H16R17544   3.470   5.396   8.830 -0.2119 -0.4014 -0.3449
  157SAPE  H16S17545   3.600   5.285   8.751  2.2774  1.1715  0.7151
  157SAPE  C21717546   3.490   5.409   8.613  0.0002  0.0140  0.0597
  157SAPE  H17R17547   3.557   5.375   8.531 -0.1383  1.9285 -0.8652
  157SAPE  H17S17548   3.466   5.517   8.608 -1.0753 -0.1748  0.8130
  157SAPE  C21817549   3.353   5.339   8.593 -0.5949  0.0696 -0.4375
  157SAPE  H18R17550   3.285   5.371   8.674  0.3543 -1.7029  1.1203
  157SAPE  H18S17551   3.373   5.229   8.588  0.5393  0.2261  0.3512
  157SAPE  C21917552   3.274   5.381   8.468  0.1594  0.5634 -0.1542
  157SAPE  H19R17553   3.259   5.491   8.475 -0.1976  0.5953 -1.3282
  157SAPE  H19S17554   3.174   5.334   8.480  0.2530  0.0813 -1.1958
  157SAPE  C22017555   3.335   5.357   8.330 -0.7436  0.3190  0.1571
  157SAPE  H20R17556   3.269   5.402   8.252 -0.3851  0.4682 -0.0596
  157SAPE  H20S17557   3.329   5.247   8.311 -1.5559  0.5354 -0.9372
  157SAPE  H20T17558   3.441   5.389   8.318  0.6939 -3.8974  0.8328
  157SAPE   C3317559   3.911   4.507  10.088 -0.2180  0.6986  0.0491
  157SAPE   H3X17560   3.950   4.451  10.176 -1.6399 -1.4475 -0.6565
  157SAPE   H3Y17561   4.000   4.522  10.025  0.3043 -1.2367  0.2782
  157SAPE   C3417562   3.796   4.420  10.028  0.6163 -0.0584 -0.3490
  157SAPE   H4X17563   3.728   4.491   9.977  1.7856  1.6883  0.4903
  157SAPE   H4Y17564   3.743   4.368  10.111  2.4577 -0.0507  0.8599
  157SAPE   C3517565   3.846   4.318   9.924 -0.3369  0.6266 -0.6151
  157SAPE   H5X17566   3.921   4.371   9.862 -0.6452  1.8502  0.0260
  157SAPE   H5Y17567   3.761   4.277   9.867 -0.5491 -0.3529  0.3892
  157SAPE   C3617568   3.914   4.200   9.994  0.5502 -0.2206 -0.3292
  157SAPE   H6X17569   3.849   4.142  10.062 -0.3875  2.5908  1.2529
  157SAPE   H6Y17570   4.002   4.228  10.057  1.0905 -1.1035 -0.6908
  157SAPE   C3717571   3.986   4.108   9.890 -0.4118  0.0882  0.0748
  157SAPE   H7X17572   4.030   4.021   9.943 -0.7849 -0.9448 -1.2741
  157SAPE   H7Y17573   4.068   4.167   9.843 -2.8937  2.5065 -1.3904
  157SAPE   C3817574   3.891   4.065   9.779 -0.2243  0.0900 -0.0878
  157SAPE   H8X17575   3.859   4.152   9.717 -1.0312 -0.7902 -0.9406
  157SAPE   H8Y17576   3.802   4.015   9.824  0.7145  0.3952  2.1870
  157SAPE   C3917577   3.959   3.961   9.688 -0.0462 -0.1980 -0.8384
  157SAPE   H9X17578   3.988   3.870   9.744 -0.7561 -0.0531 -0.2296
  157SAPE   H9Y17579   4.056   4.001   9.654  0.4336  2.5004  3.4074
  157SAPE  C31017580   3.880   3.931   9.563 -0.1367 -0.4238 -0.6175
  157SAPE  H10X17581   3.819   4.018   9.530  1.4357  0.9622  0.0864
  157SAPE  H10Y17582   3.812   3.844   9.577  1.1516 -1.2805  0.4478
  157SAPE  C31117583   3.972   3.904   9.439 -0.3053  0.0129 -0.1836
  157SAPE  H11X17584   4.061   3.848   9.477 -1.1501 -0.4358  1.1411
  157SAPE  H11Y17585   4.010   3.999   9.396 -0.1620  0.3603  0.7091
  157SAPE  C31217586   3.896   3.833   9.332 -0.0324  0.4405  0.4604
  157SAPE  H12X17587   3.837   3.753   9.383  0.6019 -1.4520 -1.6747
  157SAPE  H12Y17588   3.976   3.777   9.279  0.4842  1.4385  0.1774
  157SAPE  C31317589   3.823   3.923   9.229  0.2915 -0.2849 -0.6507
  157SAPE  H13X17590   3.889   3.995   9.176  1.5706  0.6713  2.1093
  157SAPE  H13Y17591   3.745   3.984   9.279 -0.3287 -0.1939 -1.7342
  157SAPE  C31417592   3.750   3.856   9.108  0.1914  0.3321  0.5945
  157SAPE  H14X17593   3.654   3.810   9.138  0.9346 -1.2551  0.5941
  157SAPE  H14Y17594   3.810   3.767   9.078  1.8593  2.2296 -1.8930
  157SAPE  C31517595   3.725   3.949   8.993  0.2465  0.1600  0.5271
  157SAPE  H15X17596   3.815   4.003   8.957  0.1249  0.4038  0.5859
  157SAPE  H15Y17597   3.654   4.024   9.035 -0.5738 -0.7384  0.7641
  157SAPE  C31617598   3.652   3.870   8.878 -0.5208 -0.6370 -0.0243
  157SAPE  H16X17599   3.628   3.939   8.794  1.7446 -0.1079 -0.2676
  157SAPE  H16Y17600   3.554   3.840   8.920  1.8100 -1.3025  5.3562
  157SAPE  C31717601   3.732   3.753   8.819 -0.3741  0.1210  0.4139
  157SAPE  H17X17602   3.736   3.673   8.896 -1.5765 -0.2256  0.1281
  157SAPE  H17Y17603   3.837   3.783   8.796 -0.4231 -0.5725 -0.7696
  157SAPE  C31817604   3.678   3.698   8.693 -0.2209 -0.0869 -0.3631
  157SAPE  H18X17605   3.676   3.778   8.616 -1.3221  0.5508  0.3140
  157SAPE  H18Y17606   3.573   3.660   8.696 -0.4507  0.4557 -1.1755
  157SAPE  H18Z17607   3.735   3.608   8.663  1.8641  0.9177  0.5110
  158SAPE     N17608   4.636   5.735  10.867 -0.2226 -0.0480  0.7396
  158SAPE   HN117609   4.543   5.712  10.826  0.6373 -1.5435 -0.4010
  158SAPE   HN217610   4.660   5.646  10.915  0.0241 -1.1540 -1.4217
  158SAPE   HN317611   4.618   5.819  10.927  0.7461  1.3095 -0.8355
  158SAPE   C1217612   4.741   5.762  10.765  0.0488 -0.1050 -0.3387
  158SAPE  H12A17613   4.822   5.803  10.829  0.9506 -1.0963 -0.8192
  158SAPE  H12B17614   4.700   5.832  10.690  0.9955 -0.3974 -1.1418
  158SAPE   C1117615   4.782   5.634  10.690  0.4083 -0.4405  1.2408
  158SAPE  H11A17616   4.833   5.553  10.746 -0.0186 -0.4380  1.6328
  158SAPE  H11B17617   4.861   5.660  10.616  0.8482 -2.2218  1.0561
  158SAPE     P17618   4.668   5.450  10.543 -0.1001 -0.0525  0.2018
  158SAPE   O1317619   4.729   5.339  10.621  0.5171  0.3777  0.0827
  158SAPE   O1417620   4.527   5.430  10.513 -1.0273  0.4122 -0.1551
  158SAPE   O1217621   4.668   5.584  10.624 -0.3307  0.5626  0.4052
  158SAPE   O1117622   4.755   5.475  10.414 -0.6121 -0.1674  0.0404
  158SAPE    C117623   4.894   5.444  10.428  0.1065  0.1506  0.1108
  158SAPE    HA17624   4.941   5.520  10.494 -0.1212  0.6030 -0.2427
  158SAPE    HB17625   4.909   5.338  10.459 -2.6083 -0.2135  0.2706
  158SAPE    C217626   4.974   5.467  10.289  0.0912 -0.6929 -0.3780
  158SAPE    HS17627   4.995   5.574  10.272 -0.3145 -0.4348  0.7210
  158SAPE   O2117628   4.904   5.413  10.176 -0.7960  0.1400 -0.3433
  158SAPE   C2117629   4.948   5.456  10.058 -0.2042  0.6350  0.2442
  158SAPE   O2217630   5.018   5.555  10.036 -0.4124 -0.7680  0.0156
  158SAPE   C2217631   4.878   5.378   9.944 -0.4227  0.7609 -0.4524
  158SAPE   H2R17632   4.881   5.273   9.981  0.1983  1.0305  0.2975
  158SAPE   H2S17633   4.774   5.417   9.944 -0.2848  1.1336 -0.8884
  158SAPE    C317634   5.111   5.403  10.311  0.2653  0.5928 -0.4118
  158SAPE    HX17635   5.095   5.295  10.289  2.1096  0.0428  0.8085
  158SAPE    HY17636   5.155   5.419  10.411  0.9468  0.2807 -0.6603
  158SAPE   O3117637   5.200   5.437  10.204 -0.1783 -0.1872  0.4597
  158SAPE   C3117638   5.272   5.554  10.231  0.0185  0.4838  0.1461
  158SAPE   O3217639   5.261   5.621  10.326 -0.3737 -0.7174 -0.5244
  158SAPE   C3217640   5.350   5.596  10.104  0.5656 -0.1110  0.2132
  158SAPE   H2X17641   5.366   5.706  10.102 -0.0591 -0.0281 -0.7999
  158SAPE   H2Y17642   5.297   5.570  10.010  1.8894  1.9596 -1.1518
  158SAPE   C2317643   4.922   5.419   9.798  0.1876 -0.0378  0.1125
  158SAPE   H3R17644   4.914   5.529   9.784  1.6402  0.1372  0.5783
  158SAPE   H3S17645   4.851   5.373   9.727 -2.0480  1.2029  1.4944
  158SAPE   C2417646   5.060   5.374   9.757  0.3112  0.2243  1.2793
  158SAPE   H4R17647   5.066   5.263   9.754  3.1500  0.3695 -0.4137
  158SAPE   H4S17648   5.149   5.394   9.821 -0.6510  1.5915  2.2287
  158SAPE   C2517649   5.098   5.432   9.621 -0.3322 -0.3894  0.1935
  158SAPE   H5R17650   5.150   5.527   9.641  1.4520 -1.4831  0.9387
  158SAPE   C2617651   5.078   5.391   9.494  0.2779 -0.8189 -0.0778
  158SAPE   H6R17652   5.134   5.440   9.414 -2.5003 -0.2972 -1.7574
  158SAPE   C2717653   5.009   5.270   9.447 -0.2728  0.6260 -0.0019
  158SAPE   H7R17654   4.969   5.220   9.538 -0.8298 -0.1276 -0.6619
  158SAPE   H7S17655   5.088   5.209   9.399  1.1519  0.6113  2.2528
  158SAPE   C2817656   4.896   5.289   9.352 -0.6131 -0.1123  0.8072
  158SAPE   H8R17657   4.831   5.377   9.365  1.1509  1.4557 -0.6030
  158SAPE   C2917658   4.860   5.213   9.242  0.9382  0.4122 -0.0669
  158SAPE   H9R17659   4.764   5.245   9.199  0.5102  0.2120  0.7303
  158SAPE  C21017660   4.921   5.085   9.183  0.0549  0.0307 -0.5245
  158SAPE  H10R17661   4.894   5.004   9.254  0.1077 -1.1565 -1.8593
  158SAPE  H10S17662   5.032   5.081   9.175 -0.0122 -1.4382 -0.8044
  158SAPE  C21117663   4.857   5.051   9.056  0.6658 -0.4447 -0.4640
  158SAPE  H11R17664   4.747   5.053   9.058  0.6931  0.8891 -0.0738
  158SAPE  C21217665   4.925   5.030   8.941  0.1623 -0.0898 -0.8336
  158SAPE  H12R17666   4.863   5.002   8.855 -0.3477 -2.2103  0.1917
  158SAPE  C21317667   5.076   5.021   8.910  0.4285 -0.0503 -0.2586
  158SAPE  H13R17668   5.101   4.923   8.864  1.9050 -0.0900  0.6182
  158SAPE  H13S17669   5.134   5.032   9.004  1.8333 -1.8993 -0.8936
  158SAPE  C21417670   5.113   5.140   8.820 -1.1036  0.7534 -0.2008
  158SAPE  H14R17671   5.070   5.235   8.856 -1.7972 -0.2653  1.7188
  158SAPE  C21517672   5.184   5.121   8.711 -0.4295  0.4701 -0.0990
  158SAPE  H15R17673   5.207   5.216   8.661 -1.4614  1.3276  1.0408
  158SAPE  C21617674   5.252   4.996   8.662 -0.2248  0.2995  0.1283
  158SAPE  H16R17675   5.207   4.907   8.711 -3.6945  2.9139  1.8846
  158SAPE  H16S17676   5.359   4.995   8.693 -0.6353 -1.6106  1.5967
  158SAPE  C21717677   5.227   4.978   8.510 -0.4050  0.0390 -0.1547
  158SAPE  H17R17678   5.115   4.981   8.508 -0.4261 -0.0206  0.8134
  158SAPE  H17S17679   5.255   4.879   8.469 -2.4505  0.2440 -2.1893
  158SAPE  C21817680   5.274   5.077   8.402 -0.2254 -0.3349 -1.1933
  158SAPE  H18R17681   5.233   5.180   8.412 -0.6236 -0.7055  1.1085
  158SAPE  H18S17682   5.235   5.039   8.305 -0.4235 -2.6926 -0.2185
  158SAPE  C21917683   5.428   5.100   8.411 -0.9080  0.2186 -0.0362
  158SAPE  H19R17684   5.475   5.004   8.381 -0.9526 -0.1887  1.1966
  158SAPE  H19S17685   5.445   5.129   8.516 -0.5444  0.6798 -0.2183
  158SAPE  C22017686   5.479   5.217   8.316  0.4811 -0.4076 -0.6274
  158SAPE  H20R17687   5.490   5.175   8.214 -0.6782 -2.9437  0.2351
  158SAPE  H20S17688   5.584   5.246   8.337  0.5835 -1.6966  0.8033
  158SAPE  H20T17689   5.413   5.305   8.305  0.5549 -0.3476 -0.5898
  158SAPE   C3317690   5.497   5.532  10.086  0.0219  0.4994 -0.2189
  158SAPE   H3X17691   5.487   5.425  10.056  0.8825  0.0402  1.0937
  158SAPE   H3Y17692   5.542   5.532  10.188  0.2450  2.2833 -0.3013
  158SAPE   C3417693   5.585   5.623  10.005  0.1354  0.5988 -0.5593
  158SAPE   H4X17694   5.687   5.583   9.988  0.7945  1.8084  0.4132
  158SAPE   H4Y17695   5.612   5.718  10.057 -0.3231  0.6318 -0.3754
  158SAPE   C3517696   5.521   5.650   9.867 -0.5087 -0.8652  0.7174
  158SAPE   H5X17697   5.585   5.720   9.810 -0.0475  0.1216  2.3906
  158SAPE   H5Y17698   5.428   5.709   9.882 -0.9294 -1.4712  0.5129
  158SAPE   C3617699   5.494   5.529   9.785 -0.2329  0.2336 -0.5417
  158SAPE   H6X17700   5.423   5.460   9.835  2.3389 -2.9080 -1.0592
  158SAPE   H6Y17701   5.576   5.454   9.776  0.1138  0.7307 -1.6225
  158SAPE   C3717702   5.427   5.556   9.644  0.6303  0.0256  0.0372
  158SAPE   H7X17703   5.350   5.636   9.646 -1.5005 -1.9415 -0.9312
  158SAPE   H7Y17704   5.376   5.462   9.614  3.0900 -1.0961 -0.7386
  158SAPE   C3817705   5.529   5.603   9.538 -0.1275  0.1111 -0.3758
  158SAPE   H8X17706   5.625   5.548   9.548 -0.8595 -1.0304  0.4080
  158SAPE   H8Y17707   5.551   5.711   9.551  1.0862 -0.1156 -0.5303
  158SAPE   C3917708   5.484   5.591   9.392 -0.1087  0.2159 -0.2609
  158SAPE   H9X17709   5.391   5.646   9.369 -1.9110 -3.3269 -1.9297
  158SAPE   H9Y17710   5.471   5.482   9.371  1.8378 -0.4097  1.5687
  158SAPE  C31017711   5.601   5.629   9.292 -0.0780  0.0919 -0.2246
  158SAPE  H10X17712   5.687   5.559   9.305  1.4049  2.1328  1.5062
  158SAPE  H10Y17713   5.655   5.721   9.323  0.1601  0.0694 -0.5652
  158SAPE  C31117714   5.562   5.648   9.146 -0.3742 -0.1215  0.0487
  158SAPE  H11X17715   5.493   5.735   9.138 -1.8344 -1.0120  2.5159
  158SAPE  H11Y17716   5.504   5.557   9.121  0.5473 -1.0604  1.2821
  158SAPE  C31217717   5.695   5.669   9.068 -0.4123 -0.0169  0.8820
  158SAPE  H12X17718   5.755   5.576   9.072 -1.4620 -0.7310  0.2440
  158SAPE  H12Y17719   5.752   5.743   9.128  1.5673 -0.7670 -0.0534
  158SAPE  C31317720   5.668   5.728   8.926  0.4102 -0.2661 -0.1199
  158SAPE  H13X17721   5.584   5.800   8.925  0.4350 -0.2342  0.0876
  158SAPE  H13Y17722   5.635   5.641   8.866 -1.7174  0.4032  0.0334
  158SAPE  C31417723   5.790   5.797   8.861 -0.4553  0.1067 -0.1076
  158SAPE  H14X17724   5.863   5.715   8.843  1.1899  2.0221 -2.6748
  158SAPE  H14Y17725   5.853   5.851   8.935  2.5722 -2.7711 -0.4838
  158SAPE  C31517726   5.749   5.873   8.737 -0.1752 -0.2245 -0.0316
  158SAPE  H15X17727   5.685   5.956   8.773 -0.5458  0.0448 -1.3080
  158SAPE  H15Y17728   5.694   5.802   8.672 -0.2902  0.5546 -0.7902
  158SAPE  C31617729   5.868   5.928   8.657 -0.1998  0.5572 -0.0592
  158SAPE  H16X17730   5.951   5.856   8.638  0.5701  1.1843  0.8949
  158SAPE  H16Y17731   5.922   6.002   8.719 -0.7704 -0.0330  1.1558
  158SAPE  C31717732   5.831   5.993   8.521 -0.1009  0.3616 -0.0268
  158SAPE  H17X17733   5.897   6.078   8.494 -1.4722  0.9386 -1.6665
  158SAPE  H17Y17734   5.739   6.055   8.532 -1.0133 -0.7220 -1.3702
  158SAPE  C31817735   5.817   5.892   8.412  0.1479  0.2640 -0.1617
  158SAPE  H18X17736   5.905   5.829   8.389 -1.1971 -0.9623 -2.1220
  158SAPE  H18Y17737   5.794   5.932   8.311  0.9482 -0.3870 -0.6028
  158SAPE  H18Z17738   5.735   5.831   8.454  0.7031  2.1228  3.8428
  159SAPE     N17739   4.424   3.183   6.680  0.1852  0.3975  0.1994
  159SAPE   HN117740   4.489   3.182   6.599  0.2563 -1.6972  0.2414
  159SAPE   HN217741   4.347   3.248   6.655  0.2812  0.7945  0.9095
  159SAPE   HN317742   4.478   3.214   6.763 -0.8423 -1.0123  1.4256
  159SAPE   C1217743   4.376   3.046   6.722  1.1384  0.1163  0.4494
  159SAPE  H12A17744   4.330   3.004   6.629  2.3951 -0.7539  0.2151
  159SAPE  H12B17745   4.297   3.050   6.800 -1.7503  3.1703 -2.4636
  159SAPE   C1117746   4.494   2.963   6.770  0.1157 -0.0167  0.3819
  159SAPE  H11A17747   4.457   2.861   6.795  0.4223  0.2054  1.7837
  159SAPE  H11B17748   4.518   3.014   6.866 -1.2729 -0.2652  0.8802
  159SAPE     P17749   4.609   2.859   6.561 -0.3247  0.1387 -0.2011
  159SAPE   O1317750   4.486   2.885   6.483  0.3006 -0.4794 -0.3625
  159SAPE   O1417751   4.730   2.862   6.485 -0.9978  0.2679 -0.1489
  159SAPE   O1217752   4.610   2.958   6.688  0.3351 -0.1119 -0.1118
  159SAPE   O1117753   4.581   2.722   6.637 -0.2540  0.1266  0.2686
  159SAPE    C117754   4.690   2.666   6.709 -0.1441  0.0494 -0.5713
  159SAPE    HA17755   4.752   2.605   6.640  1.1132 -0.4233  0.9400
  159SAPE    HB17756   4.765   2.739   6.747 -0.8897  0.1838  0.6644
  159SAPE    C217757   4.631   2.594   6.835  0.1687  0.3990  0.2030
  159SAPE    HS17758   4.545   2.535   6.799  0.7064 -0.4922  0.3524
  159SAPE   O2117759   4.579   2.690   6.926  0.5797  0.1628  0.3593
  159SAPE   C2117760   4.454   2.664   6.979  0.6006 -1.3955  0.5309
  159SAPE   O2217761   4.396   2.559   6.973 -0.5192 -0.0191 -0.1300
  159SAPE   C2217762   4.406   2.786   7.052  0.6998  0.2922  0.5358
  159SAPE   H2R17763   4.466   2.877   7.031  0.2782  0.1213 -1.5838
  159SAPE   H2S17764   4.302   2.814   7.022  0.6883 -0.1004  0.2027
  159SAPE    C317765   4.741   2.510   6.906 -0.2793 -1.0345  0.1367
  159SAPE    HX17766   4.825   2.574   6.938  0.5007 -3.2692  2.7848
  159SAPE    HY17767   4.779   2.445   6.824 -1.8622  1.5353 -2.7383
  159SAPE   O3117768   4.696   2.427   7.018  0.5013 -0.4435  0.0125
  159SAPE   C3117769   4.633   2.312   6.986 -0.5252 -0.7605  0.1834
  159SAPE   O3217770   4.609   2.285   6.867  0.7025  0.2161  0.2225
  159SAPE   C3217771   4.583   2.244   7.104  0.3113  0.6510 -0.1491
  159SAPE   H2X17772   4.497   2.178   7.080  0.4835 -0.4312  2.0628
  159SAPE   H2Y17773   4.538   2.324   7.166  0.4982 -0.1994  1.1009
  159SAPE   C2317774   4.407   2.754   7.202  0.8446 -0.1486 -0.3005
  159SAPE   H3R17775   4.368   2.651   7.217  1.1289 -0.1936  0.1355
  159SAPE   H3S17776   4.329   2.822   7.244  1.1470 -0.0629  0.1318
  159SAPE   C2417777   4.541   2.793   7.271 -0.1497  0.0199  0.1087
  159SAPE   H4R17778   4.533   2.822   7.377  0.5043 -1.3797  0.5532
  159SAPE   H4S17779   4.569   2.885   7.214 -0.1029  0.4247  0.7782
  159SAPE   C2517780   4.651   2.696   7.251  0.3574 -0.3981  0.4626
  159SAPE   H5R17781   4.688   2.694   7.147 -0.3106 -0.4537  0.2261
  159SAPE   C2617782   4.697   2.610   7.345  0.3444  0.0448  0.0330
  159SAPE   H6R17783   4.778   2.536   7.336  0.8288  0.5362  0.3402
  159SAPE   C2717784   4.623   2.603   7.479 -0.2787  0.1015 -0.2947
  159SAPE   H7R17785   4.634   2.499   7.515  0.8979  0.1311 -0.5395
  159SAPE   H7S17786   4.514   2.626   7.483 -0.3550 -0.1192 -1.0281
  159SAPE   C2817787   4.680   2.687   7.590 -0.0005 -0.3281  0.1904
  159SAPE   H8R17788   4.724   2.785   7.567 -1.7071  0.7462  1.4274
  159SAPE   C2917789   4.668   2.659   7.725 -0.0115  0.6127 -0.2436
  159SAPE   H9R17790   4.705   2.731   7.801  0.5964 -1.6163  1.6353
  159SAPE  C21017791   4.605   2.539   7.783  1.1574 -0.9864 -0.2312
  159SAPE  H10R17792   4.556   2.473   7.707  0.7600 -1.3609  0.3507
  159SAPE  H10S17793   4.534   2.581   7.857  1.1480 -0.7091 -0.3974
  159SAPE  C21117794   4.700   2.447   7.852 -0.4064  0.3554 -0.1571
  159SAPE  H11R17795   4.773   2.401   7.784 -0.6374  1.3362 -1.0685
  159SAPE  C21217796   4.705   2.431   7.986  0.2537  0.3830  0.1316
  159SAPE  H12R17797   4.784   2.366   8.026 -1.6137 -1.0810  1.5509
  159SAPE  C21317798   4.627   2.494   8.097  0.5649  0.3623 -0.6198
  159SAPE  H13R17799   4.524   2.451   8.097  1.0047 -0.6985  0.4319
  159SAPE  H13S17800   4.603   2.598   8.065 -0.6811  0.1736 -0.3388
  159SAPE  C21417801   4.689   2.495   8.226  0.5253 -0.0770 -0.3129
  159SAPE  H14R17802   4.787   2.446   8.243  0.6131 -0.4591 -1.9051
  159SAPE  C21517803   4.618   2.532   8.340  0.6822  0.8922 -0.1625
  159SAPE  H15R17804   4.668   2.525   8.438  0.3640 -2.4862 -0.1861
  159SAPE  C21617805   4.472   2.574   8.356 -0.1835  1.0053  0.0425
  159SAPE  H16R17806   4.426   2.493   8.416  3.0223 -0.5517  0.4931
  159SAPE  H16S17807   4.433   2.575   8.252 -1.7058 -0.2569  0.5877
  159SAPE  C21717808   4.462   2.708   8.434  0.4137  0.4018  0.3911
  159SAPE  H17R17809   4.368   2.765   8.413 -0.2098 -0.4248  0.9069
  159SAPE  H17S17810   4.550   2.771   8.409 -1.2163  2.5328 -0.1346
  159SAPE  C21817811   4.467   2.681   8.583  0.2094 -0.0009  0.1726
  159SAPE  H18R17812   4.485   2.781   8.629 -0.7776 -0.0033  0.5840
  159SAPE  H18S17813   4.540   2.601   8.608  1.4827  0.5905 -1.5922
  159SAPE  C21917814   4.327   2.641   8.630 -0.4240  0.2828  0.2692
  159SAPE  H19R17815   4.307   2.542   8.584  3.4558 -0.9833  1.1173
  159SAPE  H19S17816   4.251   2.711   8.591  1.4488  1.9801 -0.4195
  159SAPE  C22017817   4.313   2.626   8.783  0.2024  0.0434 -0.6718
  159SAPE  H20R17818   4.218   2.575   8.809  0.0474 -0.2022 -1.7069
  159SAPE  H20S17819   4.323   2.727   8.828  0.1241  0.8040 -2.3209
  159SAPE  H20T17820   4.397   2.565   8.823 -0.7113 -0.8141 -0.0330
  159SAPE   C3317821   4.699   2.180   7.183  0.3135  0.5348 -0.3500
  159SAPE   H3X17822   4.752   2.266   7.228  0.5436  0.1292  0.1609
  159SAPE   H3Y17823   4.765   2.114   7.123  0.3909  0.3982 -0.1140
  159SAPE   C3417824   4.651   2.092   7.298 -0.3577  0.0930  0.4214
  159SAPE   H4X17825   4.606   2.004   7.247 -1.2571 -0.5129  2.2183
  159SAPE   H4Y17826   4.561   2.134   7.348 -0.5410  0.0001  0.1733
  159SAPE   C3517827   4.759   2.067   7.406 -0.1991 -0.4777  0.1475
  159SAPE   H5X17828   4.815   2.162   7.421  3.0201 -2.4560  1.2461
  159SAPE   H5Y17829   4.831   1.989   7.373  0.9741  0.4218  0.5411
  159SAPE   C3617830   4.701   2.045   7.550  0.6245  0.2708  0.3704
  159SAPE   H6X17831   4.783   2.000   7.610  0.6028  0.8229  0.8240
  159SAPE   H6Y17832   4.615   1.977   7.533  1.4543 -0.4676 -1.0432
  159SAPE   C3717833   4.636   2.167   7.621 -0.1699  0.3733  0.5056
  159SAPE   H7X17834   4.565   2.215   7.550 -0.5694 -3.9062 -2.1736
  159SAPE   H7Y17835   4.723   2.234   7.636  1.9292 -1.2962 -3.5393
  159SAPE   C3817836   4.560   2.133   7.755  0.3034  0.3019  0.3715
  159SAPE   H8X17837   4.479   2.063   7.727  0.8023 -0.0392 -0.2187
  159SAPE   H8Y17838   4.511   2.226   7.791  1.5504  1.3053 -0.4281
  159SAPE   C3917839   4.642   2.061   7.859  0.7623  0.1800 -0.6032
  159SAPE   H9X17840   4.730   2.124   7.887  0.6737 -0.6165  1.5210
  159SAPE   H9Y17841   4.679   1.963   7.822  1.3168  0.9534 -2.1658
  159SAPE  C31017842   4.554   2.022   7.981 -0.5999 -0.8189 -1.0281
  159SAPE  H10X17843   4.461   1.976   7.942 -1.0456 -0.2897 -0.5952
  159SAPE  H10Y17844   4.517   2.107   8.043 -1.2947  0.2748 -2.9076
  159SAPE  C31117845   4.628   1.933   8.090 -0.4902  0.3120 -0.1561
  159SAPE  H11X17846   4.706   1.999   8.134  0.4209 -0.9058  0.0836
  159SAPE  H11Y17847   4.669   1.847   8.034 -0.2045 -0.8328  1.7991
  159SAPE  C31217848   4.529   1.890   8.205  0.6675 -0.7072 -0.2454
  159SAPE  H12X17849   4.448   1.823   8.169  0.6053 -1.2010  0.7901
  159SAPE  H12Y17850   4.478   1.980   8.245  0.5426 -0.8316 -0.1281
  159SAPE  C31317851   4.607   1.831   8.331  0.1685 -0.2406 -0.1758
  159SAPE  H13X17852   4.531   1.842   8.411  0.6437 -0.6556  0.3363
  159SAPE  H13Y17853   4.697   1.895   8.343  0.1480  0.0337 -1.4047
  159SAPE  C31417854   4.642   1.678   8.312 -0.4114  0.2463 -0.4021
  159SAPE  H14X17855   4.673   1.656   8.207 -1.6044  0.1163 -0.7305
  159SAPE  H14Y17856   4.542   1.634   8.329 -0.2473 -0.8998 -2.2052
  159SAPE  C31517857   4.741   1.639   8.415  0.1086  0.0683  0.1923
  159SAPE  H15X17858   4.691   1.653   8.514  0.9391  3.8860  0.1419
  159SAPE  H15Y17859   4.838   1.693   8.408 -0.3398  0.9215  0.4365
  159SAPE  C31617860   4.790   1.496   8.405 -0.6612 -0.0930  0.2542
  159SAPE  H16X17861   4.844   1.480   8.309 -2.3359  2.3266 -1.1360
  159SAPE  H16Y17862   4.702   1.429   8.407 -2.2618  1.9736  0.4607
  159SAPE  C31717863   4.883   1.443   8.521 -0.3458  0.0126  0.2189
  159SAPE  H17X17864   4.958   1.519   8.553 -0.9188  0.7729 -0.2277
  159SAPE  H17Y17865   4.930   1.346   8.494  0.5757 -0.1488  2.3217
  159SAPE  C31817866   4.798   1.410   8.643 -0.3693 -0.1057 -0.3055
  159SAPE  H18X17867   4.729   1.489   8.681 -1.8839 -1.5117 -0.0689
  159SAPE  H18Y17868   4.876   1.389   8.719  0.2259  3.8648  0.2435
  159SAPE  H18Z17869   4.732   1.322   8.626 -3.4977  1.8401  1.2831
  160SAPE     N17870   3.536   3.266   6.721 -0.1100 -0.3102 -0.2150
  160SAPE   HN117871   3.472   3.348   6.725 -0.2133 -0.4606  4.1358
  160SAPE   HN217872   3.483   3.180   6.700 -1.5477  0.6971 -0.7946
  160SAPE   HN317873   3.592   3.266   6.809 -1.7711  0.2641  0.8898
  160SAPE   C1217874   3.639   3.288   6.611 -0.1312 -1.1823 -0.3131
  160SAPE  H12A17875   3.580   3.282   6.517 -0.0197  0.2940 -0.4915
  160SAPE  H12B17876   3.710   3.203   6.623  0.1585 -0.7851  0.8927
  160SAPE   C1117877   3.706   3.425   6.632  0.5792  0.1782 -0.2866
  160SAPE  H11A17878   3.782   3.417   6.712  0.8469 -0.4672 -0.6044
  160SAPE  H11B17879   3.644   3.511   6.664 -0.3638 -1.0581  1.3141
  160SAPE     P17880   3.888   3.540   6.490 -0.2214 -0.1632  0.4479
  160SAPE   O1317881   4.001   3.473   6.554 -0.0799 -0.0662 -0.4622
  160SAPE   O1417882   3.901   3.606   6.359 -0.4753 -0.3290 -0.5893
  160SAPE   O1217883   3.764   3.448   6.503 -1.2694  0.1430 -0.3373
  160SAPE   O1117884   3.845   3.648   6.590 -0.2659  0.3296 -0.3214
  160SAPE    C117885   3.924   3.743   6.649 -0.6680 -0.1949 -0.6688
  160SAPE    HA17886   4.035   3.732   6.652 -0.5011  1.6350  0.2420
  160SAPE    HB17887   3.920   3.843   6.599  1.8212  0.5909  0.6254
  160SAPE    C217888   3.891   3.769   6.798 -0.2869  0.1128 -0.1354
  160SAPE    HS17889   3.928   3.671   6.836 -1.2995 -1.1095 -2.2225
  160SAPE   O2117890   3.749   3.794   6.822 -0.2252  0.4147  0.0587
  160SAPE   C2117891   3.697   3.753   6.942  0.1650  0.3142  0.5202
  160SAPE   O2217892   3.752   3.685   7.024 -0.3492 -0.3956 -0.3441
  160SAPE   C2217893   3.552   3.803   6.955  0.7331 -0.1875  0.2868
  160SAPE   H2R17894   3.487   3.754   6.878  0.0786  0.3177  0.5071
  160SAPE   H2S17895   3.519   3.778   7.058  1.0382  0.2321  0.4836
  160SAPE    C317896   3.972   3.892   6.841  0.6200 -0.4829  0.2414
  160SAPE    HX17897   3.945   3.982   6.782 -0.9388 -0.3944  1.0536
  160SAPE    HY17898   4.079   3.872   6.819  0.8505 -1.5904  2.1950
  160SAPE   O3117899   3.953   3.926   6.978 -0.8342 -0.3093  1.1460
  160SAPE   C3117900   4.021   3.850   7.060 -0.0304 -0.5849  0.2848
  160SAPE   O3217901   4.108   3.768   7.025  0.1437  0.0055 -0.1988
  160SAPE   C3217902   3.971   3.886   7.199 -0.6433 -0.2812 -0.3033
  160SAPE   H2X17903   3.881   3.950   7.205  0.0498  0.6449  0.4660
  160SAPE   H2Y17904   4.045   3.948   7.254  0.7899 -1.1879 -1.1603
  160SAPE   C2317905   3.539   3.954   6.915  0.1623  0.5013  0.1176
  160SAPE   H3R17906   3.434   3.982   6.891 -0.1871 -0.0963  0.9609
  160SAPE   H3S17907   3.608   3.978   6.831 -0.4483  0.8123 -0.3014
  160SAPE   C2417908   3.589   4.035   7.035 -0.0546  0.3339 -0.1331
  160SAPE   H4R17909   3.620   4.137   7.003 -1.0372  0.3200 -1.1575
  160SAPE   H4S17910   3.682   3.986   7.071  0.2972  0.5332 -0.7469
  160SAPE   C2517911   3.477   4.043   7.140 -0.2786  0.5696 -0.1882
  160SAPE   H5R17912   3.389   4.104   7.114  0.3955  1.9011  0.5611
  160SAPE   C2617913   3.478   4.004   7.268 -0.5294 -0.1491  0.0478
  160SAPE   H6R17914   3.383   4.022   7.321 -0.0961  1.5106  0.2876
  160SAPE   C2717915   3.600   3.942   7.342  1.0053  0.0200  0.3796
  160SAPE   H7R17916   3.674   3.904   7.270 -2.0395 -0.2092 -2.7625
  160SAPE   H7S17917   3.570   3.844   7.385 -1.3061  0.4240 -0.2566
  160SAPE   C2817918   3.650   4.028   7.463  0.3426  0.1369  0.4367
  160SAPE   H8R17919   3.734   4.089   7.426  0.2065  0.6638  0.9881
  160SAPE   C2917920   3.614   4.028   7.591 -0.3366 -0.6421 -0.0624
  160SAPE   H9R17921   3.670   4.089   7.663 -2.2222  0.6217  0.3915
  160SAPE  C21017922   3.490   3.954   7.645 -0.1959  1.1640  0.3943
  160SAPE  H10R17923   3.528   3.869   7.705  2.0470  0.9334 -1.3011
  160SAPE  H10S17924   3.428   3.922   7.559 -0.2552 -0.5641  1.0699
  160SAPE  C21117925   3.414   4.042   7.736  0.3208  0.7558  1.0014
  160SAPE  H11R17926   3.361   4.127   7.691 -0.1809 -0.1425 -0.1076
  160SAPE  C21217927   3.383   4.015   7.863 -0.6998 -0.2719 -0.7756
  160SAPE  H12R17928   3.341   4.103   7.914 -1.9923 -0.9507 -0.6676
  160SAPE  C21317929   3.410   3.896   7.944 -0.5266  0.2317 -0.0589
  160SAPE  H13R17930   3.405   3.817   7.866  1.6121 -0.5848  0.5908
  160SAPE  H13S17931   3.326   3.870   8.012  0.6008  1.5559  1.8846
  160SAPE  C21417932   3.548   3.899   8.007  0.6602 -0.0774 -0.5953
  160SAPE  H14R17933   3.633   3.913   7.939 -0.4912  0.5926 -1.9542
  160SAPE  C21517934   3.574   3.923   8.132 -0.7313  0.8524  0.4204
  160SAPE  H15R17935   3.680   3.911   8.161 -0.9499  1.0511  1.3036
  160SAPE  C21617936   3.485   3.935   8.255 -0.2072 -0.5479  0.4150
  160SAPE  H16R17937   3.510   3.868   8.340 -2.4749 -1.3440  0.4930
  160SAPE  H16S17938   3.377   3.915   8.239 -0.1060 -0.2583 -0.6518
  160SAPE  C21717939   3.491   4.080   8.307 -0.2744 -0.4471  0.0089
  160SAPE  H17R17940   3.432   4.148   8.242  0.5554 -0.2253 -0.5252
  160SAPE  H17S17941   3.595   4.120   8.304  0.4773 -2.4081 -1.0169
  160SAPE  C21817942   3.440   4.092   8.454  0.4635 -0.4607  0.7637
  160SAPE  H18R17943   3.533   4.106   8.514  0.9754  1.8279 -0.4890
  160SAPE  H18S17944   3.386   3.999   8.482 -1.5401 -0.4557 -2.7641
  160SAPE  C21917945   3.356   4.223   8.466  0.2802  0.4965 -0.6790
  160SAPE  H19R17946   3.384   4.304   8.396  1.1081  0.6677 -0.1626
  160SAPE  H19S17947   3.386   4.272   8.562  2.6392  0.8417 -1.5600
  160SAPE  C22017948   3.204   4.189   8.458  0.0668  0.2316  0.4091
  160SAPE  H20R17949   3.200   4.105   8.530  0.3240  0.5480  0.7991
  160SAPE  H20S17950   3.173   4.166   8.354 -0.0371  1.3252  0.1940
  160SAPE  H20T17951   3.122   4.261   8.481 -1.1898 -0.9362 -0.3093
  160SAPE   C3317952   3.953   3.762   7.287 -0.1980 -0.8248 -0.6338
  160SAPE   H3X17953   4.043   3.696   7.293  0.2226 -0.1893  0.1581
  160SAPE   H3Y17954   3.872   3.695   7.250  0.4248 -1.3426 -1.0938
  160SAPE   C3417955   3.935   3.798   7.437 -0.1379 -0.0915 -0.2256
  160SAPE   H4X17956   3.852   3.870   7.450 -0.2816 -0.0912 -1.0984
  160SAPE   H4Y17957   4.032   3.840   7.472 -0.9917  0.1740  1.8999
  160SAPE   C3517958   3.909   3.673   7.523 -0.3127 -0.0189 -0.5020
  160SAPE   H5X17959   4.001   3.611   7.531 -1.6342 -2.1272 -1.1093
  160SAPE   H5Y17960   3.828   3.618   7.470 -1.2170 -0.3506  1.1866
  160SAPE   C3617961   3.865   3.697   7.677 -0.4115 -0.2866 -0.0136
  160SAPE   H6X17962   3.761   3.734   7.665 -0.0985  0.9497  0.9584
  160SAPE   H6Y17963   3.929   3.777   7.720 -0.6742  1.0127 -2.0192
  160SAPE   C3717964   3.855   3.570   7.761 -0.4809 -1.2141  0.5258
  160SAPE   H7X17965   3.941   3.506   7.733  1.4466  0.6204  2.0264
  160SAPE   H7Y17966   3.765   3.519   7.720 -1.1618 -0.3796  0.9655
  160SAPE   C3817967   3.857   3.595   7.912  0.1224 -0.5667 -0.9267
  160SAPE   H8X17968   3.782   3.660   7.962  0.0201 -2.4019  1.3874
  160SAPE   H8Y17969   3.953   3.637   7.951 -0.1853  0.3554 -1.1509
  160SAPE   C3917970   3.839   3.470   7.994  0.0404  0.8599 -0.2255
  160SAPE   H9X17971   3.918   3.394   7.975 -1.6164 -1.0838  0.5081
  160SAPE   H9Y17972   3.745   3.427   7.953  0.4669  0.7414 -1.0897
  160SAPE  C31017973   3.823   3.508   8.145 -0.1625  0.2513  0.0294
  160SAPE  H10X17974   3.759   3.598   8.160 -1.0659 -0.4408  0.3152
  160SAPE  H10Y17975   3.924   3.534   8.185  0.1216  1.3952 -1.3826
  160SAPE  C31117976   3.772   3.396   8.234  0.6061 -0.4603  0.5689
  160SAPE  H11X17977   3.835   3.305   8.226  0.7007 -0.2360 -1.3673
  160SAPE  H11Y17978   3.673   3.367   8.192  1.4303  0.1380 -1.8900
  160SAPE  C31217979   3.767   3.432   8.385 -0.5163 -0.4320 -0.3531
  160SAPE  H12X17980   3.688   3.509   8.398 -0.8598 -0.7022 -0.8330
  160SAPE  H12Y17981   3.863   3.478   8.417 -0.0789 -0.9535 -0.8925
  160SAPE  C31317982   3.739   3.322   8.488  0.1066 -0.7785 -0.1202
  160SAPE  H13X17983   3.695   3.371   8.577 -0.1598 -0.3721 -0.4745
  160SAPE  H13Y17984   3.838   3.282   8.519  0.2825 -0.0016  0.3436
  160SAPE  C31417985   3.641   3.208   8.451  0.2307  0.0529  0.2430
  160SAPE  H14X17986   3.673   3.161   8.355  0.7133  0.7530  0.0534
  160SAPE  H14Y17987   3.543   3.253   8.426  0.1585 -1.2349 -1.9544
  160SAPE  C31517988   3.633   3.090   8.556 -0.4785  0.8270  0.6252
  160SAPE  H15X17989   3.604   3.123   8.658 -0.0962  1.5421  0.5061
  160SAPE  H15Y17990   3.740   3.059   8.561 -0.6712 -0.4174 -2.0520
  160SAPE  C31617991   3.538   2.978   8.532  0.8192  0.4524 -0.1660
  160SAPE  H16X17992   3.443   3.031   8.510  0.3671 -1.0716 -1.9581
  160SAPE  H16Y17993   3.529   2.912   8.621  0.5181  0.6175 -0.0749
  160SAPE  C31717994   3.568   2.889   8.411 -0.5020  0.0116 -0.4583
  160SAPE  H17X17995   3.667   2.844   8.432 -1.1874 -2.0641 -1.5212
  160SAPE  H17Y17996   3.585   2.949   8.318 -0.8152  2.0414  0.7694
  160SAPE  C31817997   3.475   2.769   8.397 -0.1920 -0.5913  0.3282
  160SAPE  H18X17998   3.491   2.702   8.485  0.2009  1.0974  1.5720
  160SAPE  H18Y17999   3.489   2.715   8.301  1.0416  2.3864 -1.2208
  160SAPE  H18Z18000   3.370   2.806   8.398 -0.4285 -1.1114 -2.6129
  161SAPE     N18001   5.403   1.749   5.993 -0.3377  0.0144 -0.4796
  161SAPE   HN118002   5.348   1.715   5.911 -1.6237  1.8143 -0.3989
  161SAPE   HN218003   5.389   1.850   6.014  1.9742  1.1199 -3.7290
  161SAPE   HN318004   5.505   1.735   5.982 -0.0598  0.1217  1.8767
  161SAPE   C1218005   5.358   1.669   6.106 -0.1716 -0.1917  0.6484
  161SAPE  H12A18006   5.362   1.563   6.072  1.1101 -0.4122  1.4414
  161SAPE  H12B18007   5.253   1.694   6.131  0.6062  2.0425  1.8238
  161SAPE   C1118008   5.460   1.664   6.228  0.4917  0.3868  0.5515
  161SAPE  H11A18009   5.541   1.593   6.200  0.9945  1.0365  0.3440
  161SAPE  H11B18010   5.425   1.614   6.321  1.9097 -1.2345  0.2357
  161SAPE     P18011   5.649   1.838   6.237  0.1617  0.7111 -0.0568
  161SAPE   O1318012   5.665   1.818   6.091 -0.2608  0.0236 -0.0532
  161SAPE   O1418013   5.679   1.977   6.274 -0.2359 -0.2072 -0.0918
  161SAPE   O1218014   5.498   1.794   6.270  0.2717  0.6561  0.0708
  161SAPE   O1118015   5.733   1.719   6.309 -0.3723 -0.3080 -0.4476
  161SAPE    C118016   5.709   1.702   6.448  0.5448  0.6292 -0.2957
  161SAPE    HA18017   5.641   1.777   6.494  0.0224 -0.2266  0.3423
  161SAPE    HB18018   5.662   1.604   6.471  0.3404  0.5658 -0.9760
  161SAPE    C218019   5.839   1.693   6.549 -0.5331  0.2392 -0.4996
  161SAPE    HS18020   5.801   1.666   6.649  0.6223  0.0017 -0.1107
  161SAPE   O2118021   5.922   1.807   6.538 -0.7687  0.3129 -0.9367
  161SAPE   C2118022   5.859   1.905   6.611  0.1364  0.2674 -0.2008
  161SAPE   O2218023   5.756   1.897   6.669 -0.1636  0.1172  0.0765
  161SAPE   C2218024   5.959   2.025   6.619 -0.2906 -0.0409 -0.5664
  161SAPE   H2R18025   6.055   1.985   6.582  0.2947  0.6288  0.1947
  161SAPE   H2S18026   5.920   2.088   6.536 -1.0741 -0.9264 -0.8735
  161SAPE    C318027   5.931   1.574   6.506  0.1895 -0.1851 -0.2824
  161SAPE    HX18028   5.969   1.594   6.403 -0.6361  3.5816  0.0548
  161SAPE    HY18029   5.870   1.481   6.502  2.9765 -2.0346 -1.5726
  161SAPE   O3118030   6.035   1.570   6.606  0.3216  0.3045  0.3839
  161SAPE   C3118031   6.014   1.483   6.710 -0.5303  0.2727  0.0670
  161SAPE   O3218032   5.919   1.408   6.720 -0.1439 -0.0740 -0.1695
  161SAPE   C3218033   6.123   1.504   6.813 -0.8882 -0.0866  0.0463
  161SAPE   H2X18034   6.161   1.608   6.804  1.2121 -0.9104 -1.1310
  161SAPE   H2Y18035   6.199   1.428   6.785 -0.7197 -0.7521  2.2111
  161SAPE   C2318036   5.976   2.099   6.752 -0.8641  0.0703 -0.5768
  161SAPE   H3R18037   5.885   2.137   6.803  1.5046  2.8876  1.6995
  161SAPE   H3S18038   6.038   2.188   6.730  1.6666 -1.2069  1.1380
  161SAPE   C2418039   6.069   2.026   6.847 -0.0607 -0.9163  0.1016
  161SAPE   H4R18040   6.116   2.096   6.920 -0.8166 -0.9991  0.6724
  161SAPE   H4S18041   6.151   1.981   6.786  0.3471  0.0553 -0.0843
  161SAPE   C2518042   5.989   1.919   6.913  0.0070  0.0121 -0.3627
  161SAPE   H5R18043   5.929   1.860   6.843 -2.0596  0.6767  0.8284
  161SAPE   C2618044   6.006   1.901   7.043 -0.1642  0.6436 -0.5050
  161SAPE   H6R18045   5.944   1.829   7.098  0.2973  1.5440  1.2249
  161SAPE   C2718046   6.098   1.971   7.143 -0.0765  0.3412 -0.4430
  161SAPE   H7R18047   6.032   2.015   7.220 -0.7355  0.3173 -0.9892
  161SAPE   H7S18048   6.136   2.066   7.098 -0.2900  0.5022 -0.2844
  161SAPE   C2818049   6.225   1.896   7.190 -0.3828 -0.0322  0.0480
  161SAPE   H8R18050   6.295   1.855   7.116 -0.4584  1.0449 -0.6208
  161SAPE   C2918051   6.277   1.896   7.312 -0.0089  0.1284 -0.5517
  161SAPE   H9R18052   6.364   1.833   7.332  0.0479  0.5039  0.4534
  161SAPE  C21018053   6.224   1.957   7.439  0.2673 -0.0580 -0.5826
  161SAPE  H10R18054   6.120   1.990   7.424  0.9737  1.6117 -1.9302
  161SAPE  H10S18055   6.286   2.047   7.462 -1.5134  0.8133  0.8937
  161SAPE  C21118056   6.240   1.870   7.558 -0.4383  0.0790  0.4997
  161SAPE  H11R18057   6.201   1.767   7.550  1.7316 -0.7561  0.2610
  161SAPE  C21218058   6.272   1.917   7.681 -0.0511 -0.0323  0.4172
  161SAPE  H12R18059   6.273   1.842   7.761 -2.0356 -0.3881  0.1437
  161SAPE  C21318060   6.302   2.057   7.729 -0.3456 -0.2487 -0.2895
  161SAPE  H13R18061   6.272   2.141   7.662  0.2781  1.7309  1.8292
  161SAPE  H13S18062   6.411   2.069   7.749 -0.5151  1.0459 -0.0814
  161SAPE  C21418063   6.239   2.095   7.860  0.7899 -0.4838  0.3737
  161SAPE  H14R18064   6.151   2.160   7.847  1.1099  0.0325  0.7751
  161SAPE  C21518065   6.292   2.058   7.981  0.2611  0.1402 -0.0657
  161SAPE  H15R18066   6.245   2.097   8.073  2.2578 -0.5624  1.2963
  161SAPE  C21618067   6.420   1.983   8.004 -0.4196 -0.1591 -0.3659
  161SAPE  H16R18068   6.502   2.026   7.942  0.1919 -2.6160 -1.3675
  161SAPE  H16S18069   6.408   1.879   7.964  0.1981  0.7932 -3.1770
  161SAPE  C21718070   6.471   1.980   8.146 -1.5658  0.7285 -0.6550
  161SAPE  H17R18071   6.568   1.925   8.148 -2.0078 -0.0538 -0.2924
  161SAPE  H17S18072   6.402   1.916   8.205  1.4561  0.5981  2.9244
  161SAPE  C21818073   6.496   2.109   8.222 -0.1012  0.8040 -0.2675
  161SAPE  H18R18074   6.402   2.169   8.223 -1.8660 -1.7598 -2.9982
  161SAPE  H18S18075   6.573   2.170   8.169 -1.4007  0.9933 -1.9756
  161SAPE  C21918076   6.535   2.097   8.371  0.2595  1.4523  0.0575
  161SAPE  H19R18077   6.639   2.064   8.392 -0.4403  0.7415  2.4843
  161SAPE  H19S18078   6.473   2.018   8.417 -0.3183  0.8281 -1.7693
  161SAPE  C22018079   6.506   2.221   8.449  0.9640  0.5051 -0.2100
  161SAPE  H20R18080   6.400   2.252   8.441  0.4778 -1.0068  0.2144
  161SAPE  H20S18081   6.561   2.306   8.402 -0.0753  1.2720 -0.0418
  161SAPE  H20T18082   6.550   2.215   8.551  2.5014  0.8088 -0.8364
  161SAPE   C3318083   6.075   1.497   6.950  0.2367  0.3059 -0.3963
  161SAPE   H3X18084   6.028   1.397   6.957  0.6679  0.1513  0.2595
  161SAPE   H3Y18085   6.003   1.578   6.973 -0.3054  0.1643 -1.5298
  161SAPE   C3418086   6.179   1.498   7.058 -0.0588 -0.6916  0.6031
  161SAPE   H4X18087   6.264   1.567   7.042 -1.0800  0.9319  1.9343
  161SAPE   H4Y18088   6.238   1.404   7.056 -0.4043 -0.8946 -0.5322
  161SAPE   C3518089   6.122   1.533   7.199  0.3597  0.0553  0.6234
  161SAPE   H5X18090   6.068   1.629   7.184 -1.2423 -0.9634 -0.2991
  161SAPE   H5Y18091   6.212   1.555   7.261 -0.0783  0.4085  1.1411
  161SAPE   C3618092   6.040   1.415   7.255 -0.3662 -0.5611 -0.8908
  161SAPE   H6X18093   6.094   1.318   7.268  0.3689 -0.2016 -1.2490
  161SAPE   H6Y18094   5.951   1.402   7.191 -0.5550  1.9991 -1.1961
  161SAPE   C3718095   5.991   1.455   7.397 -0.2952  0.4861 -0.0014
  161SAPE   H7X18096   6.071   1.449   7.473  0.6390 -1.2055 -1.0770
  161SAPE   H7Y18097   5.916   1.378   7.423 -1.2954  0.9031 -1.5927
  161SAPE   C3818098   5.899   1.580   7.395 -0.7565 -0.7266  0.2635
  161SAPE   H8X18099   5.808   1.564   7.334 -0.6234 -1.0642  0.1494
  161SAPE   H8Y18100   5.960   1.660   7.349  0.0143 -1.7664 -0.5445
  161SAPE   C3918101   5.855   1.622   7.531 -0.7355  0.5800  0.0160
  161SAPE   H9X18102   5.791   1.544   7.577  1.6520 -1.7485 -0.4025
  161SAPE   H9Y18103   5.806   1.719   7.514  0.2740  1.8522  3.9128
  161SAPE  C31018104   5.957   1.630   7.640 -0.1661 -0.0418  0.1631
  161SAPE  H10X18105   6.010   1.727   7.627 -0.7610  0.5151  1.7246
  161SAPE  H10Y18106   6.038   1.553   7.640 -1.0064 -0.9559  1.5338
  161SAPE  C31118107   5.878   1.629   7.774  0.4621 -0.3203 -0.5259
  161SAPE  H11X18108   5.872   1.522   7.801  2.6457 -0.3774 -0.1922
  161SAPE  H11Y18109   5.779   1.676   7.753  0.1812 -0.2227  0.9437
  161SAPE  C31218110   5.961   1.716   7.873  0.3814  0.0023 -0.0951
  161SAPE  H12X18111   5.970   1.822   7.842 -0.3192  0.2421  0.4845
  161SAPE  H12Y18112   6.062   1.672   7.881  0.8562  1.1807  0.4471
  161SAPE  C31318113   5.905   1.712   8.016  0.2203 -0.4210 -0.5777
  161SAPE  H13X18114   5.795   1.716   8.001  0.1060 -5.0122 -1.7678
  161SAPE  H13Y18115   5.939   1.800   8.075  0.0145 -0.8887  0.2461
  161SAPE  C31418116   5.946   1.591   8.101  0.4864 -0.1916  0.0415
  161SAPE  H14X18117   6.053   1.605   8.131  0.6766 -1.1924 -0.1567
  161SAPE  H14Y18118   5.951   1.501   8.036 -3.2929 -0.7330  0.4269
  161SAPE  C31518119   5.853   1.563   8.216  0.8279 -0.1882 -0.8734
  161SAPE  H15X18120   5.854   1.460   8.259  0.3607  0.3344  0.4271
  161SAPE  H15Y18121   5.752   1.575   8.170  1.2967 -0.3338 -1.9557
  161SAPE  C31618122   5.863   1.664   8.334  0.5090 -0.1272 -1.0306
  161SAPE  H16X18123   5.808   1.754   8.299  0.8548 -0.3988 -2.2843
  161SAPE  H16Y18124   5.965   1.695   8.363 -0.5031 -0.2881  3.1113
  161SAPE  C31718125   5.789   1.621   8.459  0.0296 -0.0945  0.0176
  161SAPE  H17X18126   5.808   1.513   8.477 -1.2491 -1.1376 -4.4505
  161SAPE  H17Y18127   5.680   1.640   8.451 -0.1394 -1.2340 -0.4422
  161SAPE  C31818128   5.842   1.706   8.577 -0.2395 -0.1134 -0.0393
  161SAPE  H18X18129   5.813   1.653   8.670 -1.9968 -1.1600 -1.1619
  161SAPE  H18Y18130   5.794   1.805   8.578  3.0078  1.5650 -1.7573
  161SAPE  H18Z18131   5.953   1.710   8.584 -0.1349 -2.3578  0.2063
  162SAPE     N18132   5.094   4.508   5.711 -0.6850 -0.4228 -0.7339
  162SAPE   HN118133   5.136   4.526   5.618 -1.6316  0.8091 -0.9385
  162SAPE   HN218134   5.173   4.494   5.777 -1.5558  1.0791  0.6709
  162SAPE   HN318135   5.047   4.416   5.704  0.9655 -1.2280 -1.5029
  162SAPE   C1218136   5.003   4.613   5.766 -0.5807  0.1162  0.6094
  162SAPE  H12A18137   5.000   4.704   5.703 -0.3414  0.7590  1.5192
  162SAPE  H12B18138   5.054   4.641   5.860 -0.2328  1.7220 -0.0445
  162SAPE   C1118139   4.864   4.557   5.796  0.5274 -0.4391 -0.0131
  162SAPE  H11A18140   4.823   4.524   5.698 -0.1519  0.2722  0.0218
  162SAPE  H11B18141   4.803   4.644   5.831 -0.1949 -2.6879  4.7251
  162SAPE     P18142   4.747   4.443   5.994 -0.3424 -0.1655  0.1399
  162SAPE   O1318143   4.631   4.526   5.949 -0.5026  0.0420 -0.6644
  162SAPE   O1418144   4.721   4.292   6.002  0.7815 -0.1363  0.1359
  162SAPE   O1218145   4.867   4.454   5.895 -0.1825  0.4355 -0.3132
  162SAPE   O1118146   4.788   4.500   6.136  0.5322 -0.0780 -0.3240
  162SAPE    C118147   4.834   4.631   6.149  0.1614 -0.2091  0.6025
  162SAPE    HA18148   4.944   4.626   6.165  0.1317 -1.5642  0.4130
  162SAPE    HB18149   4.816   4.704   6.068  0.3297  0.3956  1.1053
  162SAPE    C218150   4.753   4.704   6.264 -0.1881  0.0237  0.2066
  162SAPE    HS18151   4.781   4.810   6.281 -0.2637  0.4279 -1.9916
  162SAPE   O2118152   4.753   4.627   6.387  0.2374 -0.1575 -0.3094
  162SAPE   C2118153   4.877   4.640   6.449  0.0812  1.0108  0.2937
  162SAPE   O2218154   4.957   4.716   6.414 -0.1193 -0.8361  0.1972
  162SAPE   C2218155   4.882   4.568   6.586 -0.1540 -0.2841  0.2661
  162SAPE   H2R18156   4.775   4.573   6.614 -0.7092 -0.6494 -1.6957
  162SAPE   H2S18157   4.917   4.466   6.563 -2.2750 -0.8469 -0.5718
  162SAPE    C318158   4.601   4.720   6.220 -0.2588  0.1334  0.2434
  162SAPE    HX18159   4.564   4.621   6.186  0.7294  0.5414 -2.1286
  162SAPE    HY18160   4.592   4.786   6.131  0.7733 -1.1595 -0.8585
  162SAPE   O3118161   4.525   4.781   6.319 -0.0280 -0.4980  0.3706
  162SAPE   C3118162   4.398   4.766   6.332 -0.8037  0.6050  0.4163
  162SAPE   O3218163   4.325   4.689   6.271  0.4304  0.0804  1.3061
  162SAPE   C3218164   4.351   4.852   6.446  0.7260  0.1389  0.2638
  162SAPE   H2X18165   4.244   4.869   6.420  0.1721 -1.5363  1.3458
  162SAPE   H2Y18166   4.392   4.955   6.448 -3.0081  1.7348 -0.5709
  162SAPE   C2318167   4.959   4.648   6.697  0.0872 -0.2387 -0.0997
  162SAPE   H3R18168   4.892   4.730   6.730 -0.2001 -0.8421  0.8236
  162SAPE   H3S18169   5.061   4.683   6.669 -0.5655  1.0382 -0.9198
  162SAPE   C2418170   4.969   4.575   6.831  0.3215 -0.1370  0.9176
  162SAPE   H4R18171   5.015   4.474   6.832 -1.5310 -1.0416 -1.0622
  162SAPE   H4S18172   4.864   4.569   6.867  0.2318  0.0756  0.6961
  162SAPE   C2518173   5.047   4.671   6.917 -0.2823 -0.5289 -0.2326
  162SAPE   H5R18174   5.150   4.697   6.890  0.3683 -0.6868  1.9838
  162SAPE   C2618175   5.011   4.734   7.030  0.6162 -0.3190  0.0353
  162SAPE   H6R18176   5.079   4.805   7.081 -1.6916  0.2428  2.4856
  162SAPE   C2718177   4.879   4.716   7.107 -0.1199  0.1335  0.0911
  162SAPE   H7R18178   4.807   4.673   7.033  0.9255 -1.7097  0.1094
  162SAPE   H7S18179   4.836   4.813   7.141  2.6685  0.6669  2.2783
  162SAPE   C2818180   4.915   4.610   7.216 -0.3235  0.1103  0.6190
  162SAPE   H8R18181   4.940   4.509   7.182 -0.1356  0.4966 -0.4158
  162SAPE   C2918182   4.930   4.625   7.349 -0.6534 -0.8234  0.1133
  162SAPE   H9R18183   4.953   4.536   7.409 -2.1825 -0.1793  1.7031
  162SAPE  C21018184   4.903   4.743   7.439  0.0578 -0.5790 -0.3730
  162SAPE  H10R18185   4.817   4.727   7.507  0.0840  0.0141 -0.1995
  162SAPE  H10S18186   4.877   4.832   7.378 -0.1171  0.1653  0.7762
  162SAPE  C21118187   5.026   4.770   7.528  0.6183 -0.4011 -0.2220
  162SAPE  H11R18188   5.122   4.746   7.480  1.2045 -1.2457  1.3350
  162SAPE  C21218189   5.016   4.808   7.654  0.7216  0.3720 -0.0123
  162SAPE  H12R18190   5.107   4.826   7.713 -0.1552  0.0665  1.4638
  162SAPE  C21318191   4.898   4.837   7.744  0.4659 -0.3569 -0.9204
  162SAPE  H13R18192   4.927   4.801   7.845 -0.1287 -0.1391 -0.6717
  162SAPE  H13S18193   4.812   4.772   7.717 -0.7134  0.8775 -0.1872
  162SAPE  C21418194   4.857   4.982   7.740 -0.1150 -0.3190 -0.3347
  162SAPE  H14R18195   4.781   5.007   7.665 -1.0906  0.5286  0.9070
  162SAPE  C21518196   4.885   5.074   7.840  0.1898  0.6000  0.8112
  162SAPE  H15R18197   4.844   5.176   7.829  2.8485  1.5581 -0.6727
  162SAPE  C21618198   4.969   5.056   7.970 -0.7547 -0.2463 -0.0732
  162SAPE  H16R18199   4.953   4.952   8.003 -0.4949 -0.2144  0.1451
  162SAPE  H16S18200   4.929   5.124   8.048  0.9217 -1.1507  1.6017
  162SAPE  C21718201   5.122   5.075   7.948  0.6531  0.3301  0.3332
  162SAPE  H17R18202   5.140   5.016   7.856  1.2611 -0.9590  1.2659
  162SAPE  H17S18203   5.176   5.031   8.034  0.8365 -0.3147 -0.1064
  162SAPE  C21818204   5.174   5.221   7.930 -0.4915 -0.3005  0.0770
  162SAPE  H18R18205   5.117   5.278   7.853  1.6501  0.0089 -1.3319
  162SAPE  H18S18206   5.270   5.225   7.875 -1.2929 -0.3139 -1.3551
  162SAPE  C21918207   5.172   5.290   8.067  0.4137 -0.1014 -0.2774
  162SAPE  H19R18208   5.236   5.239   8.142  1.4774 -0.2957 -1.3106
  162SAPE  H19S18209   5.069   5.275   8.108 -0.7092  1.2068 -2.5349
  162SAPE  C22018210   5.211   5.437   8.072  0.2030  0.4135 -0.4067
  162SAPE  H20R18211   5.135   5.518   8.070  0.9818  1.2273  1.6433
  162SAPE  H20S18212   5.276   5.452   7.984  0.9288 -1.2374 -0.1814
  162SAPE  H20T18213   5.265   5.447   8.168 -1.5866  2.5599  0.4103
  162SAPE   C3318214   4.344   4.777   6.583  0.3038 -0.0492  0.4230
  162SAPE   H3X18215   4.327   4.668   6.575 -1.0968  0.2402 -1.0116
  162SAPE   H3Y18216   4.250   4.813   6.631 -0.4480  0.3432 -1.2777
  162SAPE   C3418217   4.452   4.816   6.681 -0.2642 -0.2376  0.0422
  162SAPE   H4X18218   4.473   4.923   6.702 -0.7479 -0.0983 -0.1906
  162SAPE   H4Y18219   4.547   4.762   6.661 -0.7988 -1.6154  1.1726
  162SAPE   C3518220   4.409   4.757   6.821  0.2127 -0.2642 -0.2365
  162SAPE   H5X18221   4.369   4.654   6.813 -2.4687  0.9180 -3.0542
  162SAPE   H5Y18222   4.329   4.821   6.864 -0.9087 -0.5943 -1.7891
  162SAPE   C3618223   4.514   4.738   6.933 -0.2121  0.6641  0.5649
  162SAPE   H6X18224   4.578   4.828   6.946  1.1656 -0.4168  1.4003
  162SAPE   H6Y18225   4.591   4.662   6.907  0.3459  0.4648  2.7062
  162SAPE   C3718226   4.444   4.723   7.064  0.1278  0.0458 -0.1415
  162SAPE   H7X18227   4.385   4.630   7.053 -2.1541  1.4115  0.1297
  162SAPE   H7Y18228   4.370   4.801   7.093  0.3789 -0.5768  2.2503
  162SAPE   C3818229   4.524   4.732   7.191 -0.2961  0.5754 -0.2415
  162SAPE   H8X18230   4.571   4.832   7.201 -1.3909  1.2952 -1.9946
  162SAPE   H8Y18231   4.604   4.655   7.191  0.6564  1.5447 -1.3991
  162SAPE   C3918232   4.451   4.689   7.313 -0.6123 -0.2862 -0.6411
  162SAPE   H9X18233   4.378   4.606   7.300  1.3095 -2.0903 -0.2044
  162SAPE   H9Y18234   4.393   4.778   7.345 -0.8693 -1.1326  1.3476
  162SAPE  C31018235   4.553   4.648   7.421 -0.5437 -0.5106  0.0686
  162SAPE  H10X18236   4.623   4.735   7.427  0.5248 -1.3287 -0.3229
  162SAPE  H10Y18237   4.608   4.553   7.406 -1.6090 -0.9233 -1.3625
  162SAPE  C31118238   4.477   4.634   7.550 -0.0560 -0.0781  0.5580
  162SAPE  H11X18239   4.399   4.560   7.523 -1.5478  2.0156 -1.0447
  162SAPE  H11Y18240   4.434   4.733   7.579 -0.9812 -0.5134  0.6800
  162SAPE  C31218241   4.558   4.589   7.666  0.1393 -0.9636 -0.3164
  162SAPE  H12X18242   4.634   4.668   7.682 -1.1824  0.1827  0.5033
  162SAPE  H12Y18243   4.620   4.505   7.629 -0.8516 -1.4165 -0.9823
  162SAPE  C31318244   4.469   4.545   7.783  0.3599  0.3699  0.2200
  162SAPE  H13X18245   4.420   4.448   7.758 -1.1022  1.4209 -1.0045
  162SAPE  H13Y18246   4.405   4.626   7.822 -1.1265  0.1307 -1.6701
  162SAPE  C31418247   4.540   4.506   7.915  0.2490  0.0495 -0.0691
  162SAPE  H14X18248   4.590   4.408   7.898 -0.8507 -0.2584 -1.5841
  162SAPE  H14Y18249   4.462   4.478   7.989  0.2383 -0.1429 -0.1527
  162SAPE  C31518250   4.620   4.619   7.979  0.0367 -1.2032 -0.6236
  162SAPE  H15X18251   4.569   4.718   7.983  0.1677 -1.2017  1.5842
  162SAPE  H15Y18252   4.714   4.636   7.922  0.2670  2.8612  0.7534
  162SAPE  C31618253   4.669   4.576   8.130 -0.1784 -0.0482  0.4072
  162SAPE  H16X18254   4.710   4.473   8.124  2.0660  0.7724  1.0399
  162SAPE  H16Y18255   4.579   4.557   8.192 -0.8619 -1.9982 -1.1294
  162SAPE  C31718256   4.770   4.675   8.197  0.1225 -0.7646 -0.1385
  162SAPE  H17X18257   4.859   4.686   8.132  0.0312 -1.8834 -0.4746
  162SAPE  H17Y18258   4.796   4.631   8.296  0.6932 -1.4544 -0.5860
  162SAPE  C31818259   4.730   4.814   8.244  0.3180 -0.8827  0.3230
  162SAPE  H18X18260   4.797   4.855   8.322  0.3380 -1.2886  0.5244
  162SAPE  H18Y18261   4.629   4.816   8.292 -0.6766 -0.7316 -1.7387
  162SAPE  H18Z18262   4.716   4.876   8.154  0.8508 -2.0731 -0.5984
  163SAPE     N18263   3.339   2.621   6.513 -0.3954 -0.1934  0.4514
  163SAPE   HN118264   3.399   2.552   6.563 -0.3553  0.2274  0.9887
  163SAPE   HN218265   3.253   2.646   6.567 -0.1722  2.1282 -0.2326
  163SAPE   HN318266   3.299   2.582   6.426 -0.2918  2.3339 -0.7601
  163SAPE   C1218267   3.422   2.742   6.482 -0.1632  0.0565  0.4253
  163SAPE  H12A18268   3.476   2.722   6.386 -1.2875  1.7086 -0.5754
  163SAPE  H12B18269   3.488   2.749   6.571 -0.4050 -4.9784  1.1151
  163SAPE   C1118270   3.336   2.869   6.469 -0.3079  0.1919 -0.5076
  163SAPE  H11A18271   3.278   2.854   6.375 -1.0557  0.2016 -0.0540
  163SAPE  H11B18272   3.409   2.950   6.450  2.3808 -2.0079  0.1307
  163SAPE     P18273   3.304   2.943   6.722  0.5289  0.1384 -0.2369
  163SAPE   O1318274   3.418   3.035   6.700  0.1568 -0.1926  0.2674
  163SAPE   O1418275   3.190   3.005   6.790  0.1560  0.1185 -0.5231
  163SAPE   O1218276   3.254   2.886   6.587 -0.3579  0.1422  0.4648
  163SAPE   O1118277   3.351   2.817   6.804 -0.2537  0.0998 -1.0375
  163SAPE    C118278   3.250   2.747   6.872 -0.2148  0.0954  0.3086
  163SAPE    HA18279   3.153   2.750   6.820 -0.5271  1.3995  0.9450
  163SAPE    HB18280   3.300   2.648   6.874  0.2472  0.3189  0.1675
  163SAPE    C218281   3.229   2.797   7.015 -0.5684 -0.7901 -0.6504
  163SAPE    HS18282   3.178   2.895   7.002  0.9845  0.5312  2.6511
  163SAPE   O2118283   3.364   2.807   7.074 -0.0394  0.0616  0.1314
  163SAPE   C2118284   3.402   2.929   7.093 -0.2581  0.1189  0.4128
  163SAPE   O2218285   3.344   3.035   7.075  0.1935 -0.7129  0.4795
  163SAPE   C2218286   3.553   2.931   7.147 -0.5420 -0.4714  0.3299
  163SAPE   H2R18287   3.584   2.825   7.163 -1.2350 -0.6286  0.6447
  163SAPE   H2S18288   3.608   2.966   7.057 -0.4922  0.8314  0.8605
  163SAPE    C318289   3.143   2.698   7.101  0.1688  0.1186  0.0043
  163SAPE    HX18290   3.205   2.607   7.092  1.5930  0.9630  0.9863
  163SAPE    HY18291   3.039   2.688   7.062  0.4502 -0.8227 -0.5125
  163SAPE   O3118292   3.127   2.742   7.242  0.4717  0.6585 -0.4790
  163SAPE   C3118293   3.025   2.825   7.261 -0.0594 -0.0215 -0.1477
  163SAPE   O3218294   2.946   2.858   7.178 -0.1611 -0.0619  0.0451
  163SAPE   C3218295   3.020   2.861   7.409  0.3130  0.2161  0.3878
  163SAPE   H2X18296   2.981   2.965   7.421 -2.4232 -0.8607  1.2041
  163SAPE   H2Y18297   3.124   2.867   7.448 -0.3073  0.9650  1.9767
  163SAPE   C2318298   3.575   3.042   7.258 -0.8834  0.2116  0.1482
  163SAPE   H3R18299   3.508   3.129   7.242 -0.0284  0.6697 -0.9741
  163SAPE   H3S18300   3.678   3.082   7.265 -0.9859  0.8306 -1.6161
  163SAPE   C2418301   3.540   2.980   7.394 -0.6621 -0.0601 -0.3347
  163SAPE   H4R18302   3.617   2.905   7.420 -0.9607  0.1779  1.2685
  163SAPE   H4S18303   3.441   2.932   7.376  0.3210 -2.0150 -0.6554
  163SAPE   C2518304   3.522   3.077   7.510 -0.1745  0.5053 -0.5061
  163SAPE   H5R18305   3.556   3.176   7.475 -0.1003  0.3060 -1.0030
  163SAPE   C2618306   3.480   3.058   7.634 -0.7796  0.8976 -0.2005
  163SAPE   H6R18307   3.499   3.133   7.712  1.1793 -1.2667  1.4704
  163SAPE   C2718308   3.443   2.923   7.681  0.1538 -0.6292 -0.1895
  163SAPE   H7R18309   3.532   2.857   7.673 -0.0664 -0.8109 -1.2747
  163SAPE   H7S18310   3.371   2.881   7.607  0.3019 -2.0791  0.4666
  163SAPE   C2818311   3.385   2.914   7.817  1.2043  0.1513 -1.1792
  163SAPE   H8R18312   3.278   2.939   7.812  1.0092 -0.3386  0.2177
  163SAPE   C2918313   3.438   2.883   7.940  0.1511 -0.3079 -0.7553
  163SAPE   H9R18314   3.366   2.898   8.022 -1.2303  0.0985 -2.0215
  163SAPE  C21018315   3.573   2.856   7.991  0.4438  0.7716 -0.3045
  163SAPE  H10R18316   3.581   2.749   8.021 -1.6849  1.3038  2.2817
  163SAPE  H10S18317   3.586   2.916   8.084 -0.9390  3.1277 -1.6050
  163SAPE  C21118318   3.702   2.882   7.908  0.7038 -0.7815  0.2551
  163SAPE  H11R18319   3.678   2.878   7.800 -0.0495  3.2607  0.2010
  163SAPE  C21218320   3.833   2.894   7.954  0.0825 -0.4668 -0.0837
  163SAPE  H12R18321   3.920   2.909   7.889 -0.0960  4.1759  0.5707
  163SAPE  C21318322   3.881   2.874   8.100  0.3699 -0.4173 -0.1802
  163SAPE  H13R18323   3.971   2.813   8.121  1.0738  0.2911 -1.1197
  163SAPE  H13S18324   3.802   2.825   8.161 -1.0245 -0.8078 -2.2536
  163SAPE  C21418325   3.920   3.012   8.163 -0.0662 -0.1087 -0.8099
  163SAPE  H14R18326   3.902   3.099   8.098 -0.1806 -1.1905 -2.2296
  163SAPE  C21518327   3.955   3.033   8.296 -0.0048  0.4911 -0.3625
  163SAPE  H15R18328   3.971   3.138   8.327  0.5285  0.8760 -1.9136
  163SAPE  C21618329   3.969   2.924   8.398 -0.5974 -0.4871 -0.5636
  163SAPE  H16R18330   3.983   2.821   8.358  1.9207 -0.4550  0.1507
  163SAPE  H16S18331   3.879   2.922   8.463 -0.0076  0.1327  0.2788
  163SAPE  C21718332   4.100   2.944   8.486 -0.1213 -0.2831 -0.2674
  163SAPE  H17R18333   4.185   2.965   8.417  0.6334  1.1469  1.0687
  163SAPE  H17S18334   4.126   2.851   8.542 -0.1836  0.7872  1.5658
  163SAPE  C21818335   4.085   3.052   8.592 -0.0778  0.2348 -0.1322
  163SAPE  H18R18336   4.000   3.030   8.660 -0.1969  0.5325 -0.1837
  163SAPE  H18S18337   4.072   3.154   8.550 -0.2044  0.4494  0.4243
  163SAPE  C21918338   4.205   3.060   8.688  0.0081 -0.0583 -0.2364
  163SAPE  H19R18339   4.284   3.119   8.638  0.7733 -0.7387  0.1670
  163SAPE  H19S18340   4.253   2.960   8.698  1.4260  0.5759 -0.6395
  163SAPE  C22018341   4.173   3.127   8.820  0.3830  1.2389  0.0626
  163SAPE  H20R18342   4.108   3.217   8.808 -0.1240  0.5295 -2.9592
  163SAPE  H20S18343   4.264   3.145   8.881  1.1801 -1.3843 -0.3256
  163SAPE  H20T18344   4.117   3.055   8.883  0.0961  1.1591 -0.2796
  163SAPE   C3318345   2.941   2.753   7.483  1.0023  0.2141 -0.9759
  163SAPE   H3X18346   2.967   2.647   7.461  2.1899  0.7414 -2.1597
  163SAPE   H3Y18347   2.834   2.767   7.454  1.1080 -0.7332 -1.8197
  163SAPE   C3418348   2.949   2.765   7.638 -0.1560 -0.1179  0.5045
  163SAPE   H4X18349   2.872   2.704   7.688  1.3943 -0.6712  2.2687
  163SAPE   H4Y18350   2.935   2.869   7.676  2.0912  0.4037  0.0300
  163SAPE   C3518351   3.095   2.711   7.686  0.1411 -0.1761  0.6237
  163SAPE   H5X18352   3.172   2.782   7.648  1.2759 -0.9287  1.4946
  163SAPE   H5Y18353   3.102   2.611   7.638  1.4810 -0.2331  0.9033
  163SAPE   C3618354   3.099   2.702   7.839 -0.3237  0.0755  0.0980
  163SAPE   H6X18355   3.067   2.794   7.892 -1.9724 -0.6549  0.3985
  163SAPE   H6Y18356   3.204   2.683   7.868  0.2584  0.8296 -1.4850
  163SAPE   C3718357   3.019   2.585   7.889  0.2588  0.2087 -0.3199
  163SAPE   H7X18358   3.063   2.488   7.856 -3.8928 -1.8812 -0.0251
  163SAPE   H7Y18359   2.913   2.592   7.856  0.3890 -0.4793 -0.8897
  163SAPE   C3818360   3.023   2.588   8.042  0.8816  0.6363  0.8595
  163SAPE   H8X18361   2.955   2.518   8.095 -0.0038  1.5750  0.9808
  163SAPE   H8Y18362   2.986   2.686   8.079  0.0068  0.6994 -0.1555
  163SAPE   C3918363   3.170   2.555   8.085 -0.0381 -0.1841  0.2018
  163SAPE   H9X18364   3.237   2.641   8.066 -1.2362  1.1132  1.6236
  163SAPE   H9Y18365   3.200   2.484   8.005  0.0342 -1.2081  1.1229
  163SAPE  C31018366   3.187   2.501   8.232 -0.0304  0.1651  0.3422
  163SAPE  H10X18367   3.130   2.572   8.296  0.2671  2.0572 -1.4220
  163SAPE  H10Y18368   3.296   2.507   8.252 -0.2201 -2.6303  2.4314
  163SAPE  C31118369   3.130   2.366   8.264  0.6843 -0.4934  0.4001
  163SAPE  H11X18370   3.167   2.292   8.190 -0.0863 -1.2174  0.7255
  163SAPE  H11Y18371   3.019   2.372   8.264  0.6155 -1.7495 -0.4100
  163SAPE  C31218372   3.173   2.303   8.400  0.1347 -0.1676 -1.1458
  163SAPE  H12X18373   3.140   2.374   8.479  0.8241 -1.3107  0.1810
  163SAPE  H12Y18374   3.282   2.288   8.393  0.0788 -1.3727  0.3001
  163SAPE  C31318375   3.106   2.163   8.419  0.0987  0.0478 -0.9514
  163SAPE  H13X18376   3.124   2.100   8.329  1.4370 -3.0082  1.3718
  163SAPE  H13Y18377   2.995   2.174   8.423 -0.1214 -1.9662 -0.8458
  163SAPE  C31418378   3.148   2.096   8.551  0.0072  0.3432  0.7454
  163SAPE  H14X18379   3.087   2.121   8.641 -1.1018 -1.7528  0.5904
  163SAPE  H14Y18380   3.256   2.115   8.569  0.4772 -1.0812 -0.4573
  163SAPE  C31518381   3.138   1.946   8.540  0.4656 -0.1660  0.4829
  163SAPE  H15X18382   3.201   1.924   8.451  0.1545  0.2202  0.1610
  163SAPE  H15Y18383   3.032   1.924   8.515  0.7542 -1.4342  0.3264
  163SAPE  C31618384   3.182   1.873   8.669 -0.0768 -0.6502 -0.5081
  163SAPE  H16X18385   3.099   1.881   8.742  1.4308  0.5699  1.0963
  163SAPE  H16Y18386   3.267   1.933   8.706 -1.4825  1.0706  0.0414
  163SAPE  C31718387   3.216   1.729   8.645  0.2472  0.9897  1.0269
  163SAPE  H17X18388   3.283   1.691   8.725  1.3196 -0.4189 -0.5059
  163SAPE  H17Y18389   3.283   1.714   8.557 -0.7087 -2.6218  0.8528
  163SAPE  C31818390   3.097   1.637   8.620 -0.7397  0.5599 -0.4548
  163SAPE  H18X18391   3.028   1.608   8.702 -0.3386 -0.4133 -0.4585
  163SAPE  H18Y18392   3.141   1.540   8.591 -2.4654 -0.3423 -0.1508
  163SAPE  H18Z18393   3.030   1.674   8.539 -0.1396  1.4227 -0.5562
  164SAPE     N18394   6.112   6.553   5.917  0.1565  0.2315  0.0479
  164SAPE   HN118395   6.048   6.513   5.989  0.7700 -0.2670  0.3235
  164SAPE   HN218396   6.057   6.617   5.855 -1.3387  0.1309  1.2365
  164SAPE   HN318397   6.154   6.480   5.856  1.5247  0.0486  1.1905
  164SAPE   C1218398   6.221   6.629   5.984  0.0641  0.1725  0.4479
  164SAPE  H12A18399   6.286   6.674   5.907  0.6746 -3.8828 -1.5777
  164SAPE  H12B18400   6.286   6.569   6.051 -0.8908 -2.6593 -1.0824
  164SAPE   C1118401   6.166   6.736   6.077  0.2031  0.1855  0.4931
  164SAPE  H11A18402   6.245   6.797   6.126 -1.7613  3.6609 -0.5434
  164SAPE  H11B18403   6.108   6.684   6.156 -0.2530 -0.6842 -0.4055
  164SAPE     P18404   5.937   6.858   6.018  0.0907 -0.2843 -0.4024
  164SAPE   O1318405   5.900   6.981   5.952  0.5595  0.3529 -0.6500
  164SAPE   O1418406   5.869   6.729   5.971 -0.6333 -1.0041 -0.5913
  164SAPE   O1218407   6.096   6.835   6.009  0.0343  0.2315 -0.3039
  164SAPE   O1118408   5.898   6.880   6.168  0.1822  0.4691 -1.0513
  164SAPE    C118409   5.962   6.977   6.254 -0.1371 -0.1803  0.1879
  164SAPE    HA18410   6.070   6.991   6.230  0.0722  0.3519  1.4256
  164SAPE    HB18411   5.904   7.071   6.266 -0.5981 -0.6603  1.8446
  164SAPE    C218412   5.968   6.938   6.404  0.5710  0.6668  0.1102
  164SAPE    HS18413   6.024   7.020   6.453 -0.0249  1.1740 -0.0553
  164SAPE   O2118414   6.027   6.802   6.425  0.2153 -0.4256 -0.0629
  164SAPE   C2118415   6.161   6.798   6.409 -0.9970  0.1178 -0.3756
  164SAPE   O2218416   6.232   6.895   6.383  0.8426  0.6430  0.3176
  164SAPE   C2218417   6.214   6.671   6.455 -0.1179 -0.2462 -0.1289
  164SAPE   H2R18418   6.204   6.592   6.378 -2.8339  0.4257 -0.5252
  164SAPE   H2S18419   6.321   6.694   6.477 -0.1106 -1.2570  0.9549
  164SAPE    C318420   5.824   6.940   6.464 -0.2142 -0.5794  0.0096
  164SAPE    HX18421   5.751   6.880   6.406  3.7217 -1.9898 -3.7613
  164SAPE    HY18422   5.787   7.045   6.465 -1.2182 -0.8876 -1.7434
  164SAPE   O3118423   5.835   6.901   6.603  0.2190  0.0774 -0.5531
  164SAPE   C3118424   5.805   6.775   6.624  0.2593 -0.1670  0.6586
  164SAPE   O3218425   5.758   6.691   6.547 -0.4593  0.5404  0.2419
  164SAPE   C3218426   5.805   6.746   6.773  0.2305  0.2531  0.0238
  164SAPE   H2X18427   5.742   6.818   6.829 -0.1366 -0.0632  0.0203
  164SAPE   H2Y18428   5.910   6.754   6.808 -0.1425  0.3133  1.1745
  164SAPE   C2318429   6.140   6.615   6.584 -0.5984  0.3532  0.0264
  164SAPE   H3R18430   6.191   6.520   6.609 -0.3842 -0.0214 -1.7357
  164SAPE   H3S18431   6.033   6.586   6.577 -0.3182 -0.2990 -1.8678
  164SAPE   C2418432   6.164   6.700   6.714 -0.4575  0.1248  0.3012
  164SAPE   H4R18433   6.106   6.794   6.713  0.6722  0.8160 -1.1690
  164SAPE   H4S18434   6.273   6.717   6.702  0.3320 -4.9695 -1.1236
  164SAPE   C2518435   6.135   6.619   6.840  0.2229  0.2775 -0.2266
  164SAPE   H5R18436   6.036   6.572   6.840 -0.4660  1.6915  0.8421
  164SAPE   C2618437   6.230   6.596   6.937  0.0734  0.1043  0.2328
  164SAPE   H6R18438   6.213   6.533   7.025  0.8767  1.1823  1.1793
  164SAPE   C2718439   6.373   6.650   6.937  0.3840  0.4208  0.3236
  164SAPE   H7R18440   6.417   6.628   7.037  0.4871 -0.9028 -0.0101
  164SAPE   H7S18441   6.378   6.761   6.933  0.0843  0.3831 -1.2621
  164SAPE   C2818442   6.470   6.584   6.839  0.8288 -0.4329 -0.2327
  164SAPE   H8R18443   6.433   6.499   6.781 -2.9235  1.4700 -0.7600
  164SAPE   C2918444   6.599   6.615   6.826  1.3494  0.2954  0.0707
  164SAPE   H9R18445   6.658   6.563   6.749  1.3306  1.5976 -0.8438
  164SAPE  C21018446   6.672   6.721   6.907  0.5403  0.9115 -0.3045
  164SAPE  H10R18447   6.599   6.797   6.942 -1.0896 -0.1247 -1.3721
  164SAPE  H10S18448   6.737   6.789   6.848 -1.8063  2.8802 -0.7296
  164SAPE  C21118449   6.756   6.638   7.009  0.1267 -0.3114 -1.1437
  164SAPE  H11R18450   6.831   6.576   6.958  1.1663  0.6660 -0.8043
  164SAPE  C21218451   6.748   6.650   7.146 -0.3227  0.2176  0.3251
  164SAPE  H12R18452   6.812   6.581   7.203  2.1096  0.9486 -1.4310
  164SAPE  C21318453   6.661   6.740   7.225 -0.3952  0.1057 -0.3036
  164SAPE  H13R18454   6.599   6.672   7.288 -0.6859  0.5301 -0.1220
  164SAPE  H13S18455   6.587   6.787   7.156 -1.4403 -1.4787 -0.2772
  164SAPE  C21418456   6.744   6.830   7.309 -0.5953 -0.2607 -0.9619
  164SAPE  H14R18457   6.829   6.874   7.254  0.3391  0.4622  1.0152
  164SAPE  C21518458   6.722   6.835   7.440  0.4451 -0.2491 -0.5659
  164SAPE  H15R18459   6.789   6.897   7.502  3.7580 -1.4552 -2.7985
  164SAPE  C21618460   6.612   6.764   7.527  0.0776 -0.4753  0.2927
  164SAPE  H16R18461   6.523   6.730   7.469 -1.1602  2.3020  0.4601
  164SAPE  H16S18462   6.572   6.841   7.596 -0.6530 -1.1482  0.6340
  164SAPE  C21718463   6.677   6.637   7.588  0.0848  0.4499  0.1445
  164SAPE  H17R18464   6.731   6.586   7.506 -1.4818 -0.1460 -0.5387
  164SAPE  H17S18465   6.592   6.566   7.605  1.0620 -0.9835 -0.8324
  164SAPE  C21818466   6.765   6.671   7.712  1.0125 -0.2073 -0.1252
  164SAPE  H18R18467   6.858   6.730   7.694  0.8851 -0.8666 -3.2479
  164SAPE  H18S18468   6.812   6.573   7.736 -3.6789 -2.0968  1.9791
  164SAPE  C21918469   6.683   6.725   7.833 -0.2915  0.0710 -0.1488
  164SAPE  H19R18470   6.604   6.652   7.861 -0.0172 -0.1870 -0.0330
  164SAPE  H19S18471   6.636   6.819   7.799 -0.4220  0.0427 -0.0449
  164SAPE  C22018472   6.773   6.754   7.957 -0.3274 -0.5322  0.1069
  164SAPE  H20R18473   6.716   6.776   8.050  0.0065  3.8474 -0.6276
  164SAPE  H20S18474   6.841   6.834   7.921 -0.8596  0.8010  2.0029
  164SAPE  H20T18475   6.825   6.657   7.969 -2.4014 -1.6806  0.1286
  164SAPE   C3318476   5.750   6.602   6.813 -0.6266  0.1075 -0.2115
  164SAPE   H3X18477   5.784   6.532   6.734  0.1204  1.2152 -0.8802
  164SAPE   H3Y18478   5.641   6.594   6.791 -0.2623  0.5728 -2.1900
  164SAPE   C3418479   5.764   6.561   6.953 -0.2936 -0.1094 -0.9726
  164SAPE   H4X18480   5.871   6.539   6.973 -0.2415  0.0466 -1.0876
  164SAPE   H4Y18481   5.704   6.468   6.965 -0.2489 -0.1940 -1.3740
  164SAPE   C3518482   5.725   6.674   7.058 -0.1514 -0.2272  0.7897
  164SAPE   H5X18483   5.634   6.730   7.026  1.3485 -0.0547 -3.4293
  164SAPE   H5Y18484   5.807   6.748   7.061 -0.4060  0.2678 -2.7078
  164SAPE   C3618485   5.702   6.605   7.196 -0.1083 -0.2669 -0.3265
  164SAPE   H6X18486   5.779   6.527   7.214  1.7388  1.1436 -1.8978
  164SAPE   H6Y18487   5.605   6.553   7.206  0.6456 -1.2936  2.1109
  164SAPE   C3718488   5.725   6.703   7.314  0.2575 -0.5375  0.7524
  164SAPE   H7X18489   5.649   6.785   7.308  0.5299 -0.4411 -1.5802
  164SAPE   H7Y18490   5.819   6.756   7.289 -0.6080  0.5488 -0.2885
  164SAPE   C3818491   5.740   6.631   7.445  0.0879 -0.0431  0.3631
  164SAPE   H8X18492   5.836   6.575   7.448  1.2807  1.8741 -1.0028
  164SAPE   H8Y18493   5.657   6.562   7.473 -0.0743 -0.2359 -0.5859
  164SAPE   C3918494   5.755   6.735   7.552 -0.0585 -0.1773  0.2940
  164SAPE   H9X18495   5.673   6.810   7.558 -0.5651 -0.6839 -0.3447
  164SAPE   H9Y18496   5.849   6.786   7.521  1.2069 -1.9367  1.1870
  164SAPE  C31018497   5.773   6.668   7.686  0.6293 -0.7125  0.0242
  164SAPE  H10X18498   5.833   6.574   7.684 -1.2507 -1.9798  0.9451
  164SAPE  H10Y18499   5.676   6.637   7.730  1.2630 -0.9215  1.3069
  164SAPE  C31118500   5.820   6.772   7.789  0.3184 -0.1255 -0.3937
  164SAPE  H11X18501   5.742   6.851   7.799 -1.9899 -1.8621 -3.8337
  164SAPE  H11Y18502   5.914   6.817   7.751  0.1768 -0.0558 -0.6679
  164SAPE  C31218503   5.834   6.738   7.940 -0.5872  0.7368 -0.8079
  164SAPE  H12X18504   5.874   6.827   7.993 -0.3210 -0.7185  1.5452
  164SAPE  H12Y18505   5.909   6.657   7.951  0.4100  1.8143  0.6453
  164SAPE  C31318506   5.705   6.697   8.023 -0.3079 -0.4507 -0.2336
  164SAPE  H13X18507   5.692   6.588   8.004  0.5445 -1.3304  3.8243
  164SAPE  H13Y18508   5.619   6.756   7.985  0.2334  1.1785  1.0167
  164SAPE  C31418509   5.729   6.717   8.173 -0.1144 -0.1791  0.2492
  164SAPE  H14X18510   5.743   6.826   8.182 -1.9943 -0.1350  3.6554
  164SAPE  H14Y18511   5.825   6.673   8.205 -0.0413  0.5658  1.0806
  164SAPE  C31518512   5.609   6.679   8.253 -0.4384  0.0297  0.5774
  164SAPE  H15X18513   5.594   6.573   8.225  1.0232 -0.0656  0.0987
  164SAPE  H15Y18514   5.527   6.746   8.220 -0.0835 -0.3228 -1.0879
  164SAPE  C31618515   5.622   6.691   8.405 -0.0331 -0.1578  0.5986
  164SAPE  H16X18516   5.627   6.800   8.428  2.0591  0.0748 -0.7643
  164SAPE  H16Y18517   5.716   6.635   8.426 -0.2290 -0.3336  1.0011
  164SAPE  C31718518   5.502   6.632   8.464 -0.5308  1.1787  0.1789
  164SAPE  H17X18519   5.480   6.529   8.428 -1.5080  1.7307 -0.8274
  164SAPE  H17Y18520   5.413   6.687   8.427 -1.6929 -2.4495 -2.6512
  164SAPE  C31818521   5.506   6.620   8.618 -0.6532 -0.3953  0.0940
  164SAPE  H18X18522   5.435   6.540   8.646  1.3738 -1.6965  1.7594
  164SAPE  H18Y18523   5.478   6.717   8.664  3.1937  0.7507  0.2140
  164SAPE  H18Z18524   5.606   6.578   8.645  0.2945  1.4709 -0.4420
  165SAPE     N18525   5.631   2.816   6.375  0.2120 -0.2234  0.6303
  165SAPE   HN118526   5.588   2.722   6.372  1.4925 -0.7754 -1.0719
  165SAPE   HN218527   5.682   2.823   6.465  1.9242 -2.2450 -0.1430
  165SAPE   HN318528   5.559   2.888   6.355 -0.4286 -0.8429  0.6943
  165SAPE   C1218529   5.742   2.822   6.269  0.5450 -0.1406  0.2154
  165SAPE  H12A18530   5.745   2.925   6.226 -0.6138 -1.2199 -2.6198
  165SAPE  H12B18531   5.713   2.759   6.182 -0.1415 -0.7553  0.8821
  165SAPE   C1118532   5.878   2.778   6.323  0.8353  0.2564  0.1457
  165SAPE  H11A18533   5.900   2.832   6.417 -1.1616 -1.4902  1.6637
  165SAPE  H11B18534   5.956   2.811   6.250  1.4975  0.3042  0.8754
  165SAPE     P18535   6.004   2.553   6.309  0.1751  0.0603 -0.0556
  165SAPE   O1318536   5.972   2.461   6.196 -0.2677 -0.8511 -0.1934
  165SAPE   O1418537   6.111   2.644   6.288 -0.5806  0.0004 -0.2086
  165SAPE   O1218538   5.876   2.635   6.345 -0.0091 -0.6520 -0.2039
  165SAPE   O1118539   6.020   2.458   6.430 -0.3783  0.1886 -0.0191
  165SAPE    C118540   5.927   2.462   6.540  0.1718 -0.1697  0.2776
  165SAPE    HA18541   5.825   2.443   6.500  0.6252  0.4460 -1.1961
  165SAPE    HB18542   5.942   2.372   6.604  1.3764 -0.0892  0.1128
  165SAPE    C218543   5.950   2.579   6.631  0.4150 -0.5937  0.1947
  165SAPE    HS18544   5.950   2.669   6.566  5.1294 -0.7656 -0.2325
  165SAPE   O2118545   6.093   2.564   6.678  0.0494 -0.0057 -0.3824
  165SAPE   C2118546   6.154   2.678   6.697 -0.3991 -0.1480  0.6970
  165SAPE   O2218547   6.116   2.791   6.669 -0.3528 -1.0483 -0.1768
  165SAPE   C2218548   6.299   2.643   6.739 -0.3225 -0.1686 -0.0704
  165SAPE   H2R18549   6.288   2.550   6.800 -2.6267 -1.7382 -2.7319
  165SAPE   H2S18550   6.363   2.610   6.655 -0.9995  1.3530 -1.1835
  165SAPE    C318551   5.856   2.576   6.755  0.2953 -0.1699 -0.0923
  165SAPE    HX18552   5.753   2.557   6.717 -0.8332  2.0477  1.8044
  165SAPE    HY18553   5.855   2.675   6.805  0.3438 -0.2295  0.0274
  165SAPE   O3118554   5.889   2.460   6.845  0.6710  0.0558  0.2938
  165SAPE   C3118555   5.936   2.491   6.967  1.0367 -0.4392 -0.4351
  165SAPE   O3218556   5.956   2.602   7.009  0.2978  0.7156  0.3376
  165SAPE   C3218557   5.996   2.358   7.035 -0.6107  0.0293  0.2618
  165SAPE   H2X18558   6.089   2.331   6.981 -1.0515  0.5918 -0.7867
  165SAPE   H2Y18559   5.926   2.273   7.028 -0.9316  0.3599 -0.6544
  165SAPE   C2318560   6.373   2.753   6.833 -0.1567 -0.6633 -0.0694
  165SAPE   H3R18561   6.303   2.806   6.901  0.2439 -1.3153  0.8557
  165SAPE   H3S18562   6.405   2.826   6.755 -2.2628 -2.0408 -2.2910
  165SAPE   C2418563   6.498   2.696   6.906  0.2272 -0.0894  0.1992
  165SAPE   H4R18564   6.568   2.644   6.836 -0.3270 -0.0900 -0.3581
  165SAPE   H4S18565   6.474   2.604   6.962  1.4867 -1.6217 -1.7017
  165SAPE   C2518566   6.583   2.789   6.992  0.5258  0.3958  0.1079
  165SAPE   H5R18567   6.652   2.860   6.942  1.5402 -0.4635  0.2698
  165SAPE   C2618568   6.573   2.800   7.132 -0.2124  0.5242  0.4229
  165SAPE   H6R18569   6.645   2.865   7.185 -0.5632  1.8587 -0.7085
  165SAPE   C2718570   6.483   2.724   7.218 -0.5946 -0.0275 -0.9584
  165SAPE   H7R18571   6.547   2.673   7.292 -0.0418  0.8917 -0.7984
  165SAPE   H7S18572   6.428   2.646   7.161  1.8676 -1.3918 -1.5284
  165SAPE   C2818573   6.396   2.825   7.288 -0.3110  0.1734  0.8974
  165SAPE   H8R18574   6.338   2.891   7.222  1.5130  1.1608  0.2157
  165SAPE   C2918575   6.380   2.859   7.415 -0.5972  0.0584 -0.2751
  165SAPE   H9R18576   6.324   2.946   7.451  0.5270 -0.9179  4.1506
  165SAPE  C21018577   6.457   2.791   7.527  0.0286 -0.7198  0.1537
  165SAPE  H10R18578   6.475   2.684   7.503  0.1945 -0.2511 -1.9048
  165SAPE  H10S18579   6.386   2.792   7.612 -0.1928  0.9818 -0.0418
  165SAPE  C21118580   6.593   2.861   7.549 -0.5126  0.4758  0.4393
  165SAPE  H11R18581   6.644   2.898   7.458 -1.1295 -0.1492 -0.1663
  165SAPE  C21218582   6.645   2.893   7.671  0.1749 -0.2848 -0.3742
  165SAPE  H12R18583   6.738   2.952   7.680  0.2234 -0.3978 -0.1358
  165SAPE  C21318584   6.578   2.869   7.807 -0.3936  0.2436 -0.1844
  165SAPE  H13R18585   6.579   2.759   7.823  0.5815  0.1828 -0.6663
  165SAPE  H13S18586   6.475   2.908   7.792 -0.4176  0.0723 -0.4779
  165SAPE  C21418587   6.650   2.937   7.923  0.6801 -0.0380 -0.0990
  165SAPE  H14R18588   6.759   2.926   7.930  0.5879 -0.1797  1.3220
  165SAPE  C21518589   6.581   2.997   8.021  0.1259  0.7880  0.0281
  165SAPE  H15R18590   6.638   3.045   8.102 -0.6028 -1.0770  1.6574
  165SAPE  C21618591   6.429   3.012   8.038  0.3526 -0.2878 -0.5582
  165SAPE  H16R18592   6.373   2.952   7.964 -0.1837 -1.6108  0.8991
  165SAPE  H16S18593   6.400   3.118   8.023 -2.5043 -0.9829 -0.1179
  165SAPE  C21718594   6.369   2.956   8.169  0.0893 -0.0450 -0.6682
  165SAPE  H17R18595   6.264   2.990   8.186  0.5152  0.0466  1.9485
  165SAPE  H17S18596   6.432   2.994   8.253 -1.0062 -0.6803  0.4569
  165SAPE  C21818597   6.373   2.805   8.156 -0.4656  0.0873 -0.1823
  165SAPE  H18R18598   6.471   2.764   8.125 -1.0825 -2.4292  0.9943
  165SAPE  H18S18599   6.313   2.773   8.069 -1.1618  0.6969  0.0736
  165SAPE  C21918600   6.337   2.745   8.293 -0.4996  0.4602  0.2494
  165SAPE  H19R18601   6.240   2.787   8.327 -1.1144 -0.1007 -0.7542
  165SAPE  H19S18602   6.418   2.776   8.362 -0.2649 -0.5085  0.4272
  165SAPE  C22018603   6.330   2.595   8.306  0.0161 -0.1990  0.2474
  165SAPE  H20R18604   6.238   2.570   8.364 -0.4574  0.4054 -0.2380
  165SAPE  H20S18605   6.415   2.547   8.358 -1.5455 -1.2875  1.8689
  165SAPE  H20T18606   6.302   2.551   8.208  1.0489 -0.7479  0.1916
  165SAPE   C3318607   6.020   2.377   7.186 -0.6263 -0.0620  0.0752
  165SAPE   H3X18608   6.046   2.277   7.226  2.3175  0.0227 -1.4595
  165SAPE   H3Y18609   5.927   2.424   7.225 -1.0313 -0.6934 -0.1133
  165SAPE   C3418610   6.149   2.465   7.233 -0.6739  0.3819 -0.2513
  165SAPE   H4X18611   6.124   2.570   7.206  0.6960  1.0494  0.9469
  165SAPE   H4Y18612   6.237   2.435   7.172 -1.1169  0.5351 -0.9640
  165SAPE   C3518613   6.188   2.454   7.384  0.5210  0.8869 -0.3574
  165SAPE   H5X18614   6.291   2.495   7.392  1.0113 -0.3798 -0.0527
  165SAPE   H5Y18615   6.192   2.347   7.416 -0.2033  1.4744  1.7228
  165SAPE   C3618616   6.085   2.528   7.468  0.1096  0.0058 -0.7371
  165SAPE   H6X18617   5.990   2.476   7.444 -0.1543 -0.3313  0.9917
  165SAPE   H6Y18618   6.078   2.638   7.457  1.0160  0.1425  0.0186
  165SAPE   C3718619   6.125   2.505   7.617 -0.3283  0.2913  0.3351
  165SAPE   H7X18620   6.235   2.513   7.628  0.1403 -2.3398 -1.7411
  165SAPE   H7Y18621   6.117   2.397   7.644  1.3472  0.4418  1.5354
  165SAPE   C3818622   6.044   2.582   7.724 -0.1160 -0.3461 -0.3752
  165SAPE   H8X18623   5.942   2.540   7.721 -0.7424  0.9006  2.2476
  165SAPE   H8Y18624   6.038   2.691   7.701 -0.7431  0.0988  1.7787
  165SAPE   C3918625   6.095   2.568   7.868 -0.0100 -0.4352 -0.7317
  165SAPE   H9X18626   6.197   2.608   7.882  0.5779 -2.0124 -0.4208
  165SAPE   H9Y18627   6.097   2.464   7.906  4.7862  0.1216  0.8057
  165SAPE  C31018628   6.012   2.650   7.963 -0.2295  0.1108  0.4096
  165SAPE  H10X18629   6.035   2.628   8.070  1.2447  0.8760  0.2676
  165SAPE  H10Y18630   5.907   2.616   7.950 -0.2904 -0.4013  2.1537
  165SAPE  C31118631   6.023   2.801   7.937  0.2394 -0.0810 -0.5461
  165SAPE  H11X18632   5.952   2.843   7.862  0.5865  1.9279  0.2260
  165SAPE  H11Y18633   6.121   2.830   7.894  0.2777  0.7750  0.1173
  165SAPE  C31218634   5.998   2.873   8.071 -0.9829 -0.6557  0.0542
  165SAPE  H12X18635   6.036   2.977   8.069  1.1229 -1.4126  0.0367
  165SAPE  H12Y18636   6.065   2.834   8.150  1.2657  4.2034  0.6678
  165SAPE  C31318637   5.858   2.877   8.116  0.0551  0.3074 -0.0570
  165SAPE  H13X18638   5.816   2.776   8.133 -1.2135  0.8834  0.2983
  165SAPE  H13Y18639   5.798   2.933   8.042  0.4072 -2.0455 -2.1707
  165SAPE  C31418640   5.839   2.931   8.259 -0.3902 -0.0941  0.0481
  165SAPE  H14X18641   5.912   3.014   8.272 -1.3586  1.0147 -1.4283
  165SAPE  H14Y18642   5.860   2.867   8.348  0.1332 -1.0657 -0.7662
  165SAPE  C31518643   5.701   3.001   8.277 -0.3824  0.6047 -0.6208
  165SAPE  H15X18644   5.621   2.924   8.280 -0.0956  0.3652  2.7820
  165SAPE  H15Y18645   5.682   3.067   8.190 -1.5879 -0.8675 -1.4956
  165SAPE  C31618646   5.703   3.100   8.395 -0.6746 -0.1908  0.4768
  165SAPE  H16X18647   5.769   3.188   8.378  0.6155 -1.3399 -0.6121
  165SAPE  H16Y18648   5.751   3.052   8.483 -0.1709 -1.2852 -0.3746
  165SAPE  C31718649   5.565   3.150   8.435 -0.6613 -0.3423  0.1643
  165SAPE  H17X18650   5.521   3.065   8.490 -2.1713  0.0407 -0.4352
  165SAPE  H17Y18651   5.513   3.165   8.338  1.5026  0.2101 -0.9604
  165SAPE  C31818652   5.555   3.277   8.521  0.7928 -0.7745 -0.0090
  165SAPE  H18X18653   5.453   3.282   8.564  1.5318  0.9748  1.5841
  165SAPE  H18Y18654   5.568   3.365   8.454  0.2116 -2.2074 -2.0718
  165SAPE  H18Z18655   5.632   3.280   8.601 -0.8363  2.7139  1.5088
  166SAPE     N18656   5.667   6.653   6.116  0.2106 -0.1918  0.0394
  166SAPE   HN118657   5.640   6.753   6.108  0.3225 -0.1297  0.4259
  166SAPE   HN218658   5.757   6.659   6.065  1.0556 -3.5106  0.9815
  166SAPE   HN318659   5.604   6.596   6.057  1.3369 -0.6762 -0.7077
  166SAPE   C1218660   5.680   6.614   6.261  1.2707  0.0765 -0.2421
  166SAPE  H12A18661   5.579   6.620   6.307  0.3791 -0.0664 -2.1711
  166SAPE  H12B18662   5.759   6.679   6.304 -0.4495  1.2204  1.3036
  166SAPE   C1118663   5.739   6.474   6.291  0.4396  0.4744  0.4107
  166SAPE  H11A18664   5.691   6.434   6.383 -0.5741  0.0469 -0.2895
  166SAPE  H11B18665   5.846   6.493   6.313  0.8727 -1.0034 -0.3551
  166SAPE     P18666   5.845   6.342   6.096  0.0862 -0.0194  0.0307
  166SAPE   O1318667   5.805   6.298   5.964  0.4677 -0.2273 -0.5853
  166SAPE   O1418668   5.942   6.453   6.108 -0.6088  0.2761 -0.1713
  166SAPE   O1218669   5.726   6.381   6.188 -0.6719  0.1965 -0.4300
  166SAPE   O1118670   5.902   6.218   6.175  0.1736  0.0190 -0.0994
  166SAPE    C118671   5.812   6.127   6.235 -0.1203 -0.8021 -0.0451
  166SAPE    HA18672   5.714   6.117   6.182 -0.4906  1.0075  0.2527
  166SAPE    HB18673   5.863   6.029   6.224 -1.2623 -1.6508  2.0308
  166SAPE    C218674   5.778   6.143   6.392  0.1509  0.4376 -0.8797
  166SAPE    HS18675   5.698   6.220   6.393 -3.0263 -2.7085 -0.7730
  166SAPE   O2118676   5.900   6.187   6.451  0.3007  1.1400 -0.1194
  166SAPE   C2118677   5.889   6.237   6.574  0.2537  0.2352  0.9952
  166SAPE   O2218678   5.790   6.255   6.640  0.0584 -0.0957  0.1303
  166SAPE   C2218679   6.025   6.276   6.623  0.0606  0.1176 -0.4075
  166SAPE   H2R18680   6.099   6.310   6.548  0.2015 -0.6916 -0.6402
  166SAPE   H2S18681   6.008   6.365   6.687  0.0839  0.0365 -0.2877
  166SAPE    C318682   5.728   6.004   6.450  0.3516 -0.5323  0.3486
  166SAPE    HX18683   5.811   5.933   6.425  1.5434  1.1128 -0.4710
  166SAPE    HY18684   5.641   5.960   6.398 -0.3364  0.7294  0.4246
  166SAPE   O3118685   5.715   5.997   6.597 -0.6516  0.0370 -0.1760
  166SAPE   C3118686   5.601   6.056   6.632 -0.2786  0.4876 -0.2338
  166SAPE   O3218687   5.523   6.105   6.557 -0.0725 -0.0425 -0.0254
  166SAPE   C3218688   5.572   6.030   6.781  0.3136 -0.5300  0.9424
  166SAPE   H2X18689   5.639   5.950   6.819  1.1051 -0.1437  0.3765
  166SAPE   H2Y18690   5.467   5.993   6.775  0.3107 -0.4368  0.3820
  166SAPE   C2318691   6.086   6.169   6.715  0.3186  0.8817 -0.2919
  166SAPE   H3R18692   6.109   6.073   6.664  0.0487  0.4510  0.3956
  166SAPE   H3S18693   6.010   6.132   6.787 -0.9196  1.1929 -1.4221
  166SAPE   C2418694   6.207   6.219   6.800 -0.4840 -0.7772  0.6881
  166SAPE   H4R18695   6.211   6.159   6.893 -0.5141 -0.7212  0.7260
  166SAPE   H4S18696   6.183   6.322   6.834 -1.3611 -0.3078 -1.2344
  166SAPE   C2518697   6.332   6.197   6.730  0.7867 -0.2462 -0.4274
  166SAPE   H5R18698   6.324   6.199   6.620  0.1375 -1.7483 -0.4249
  166SAPE   C2618699   6.452   6.211   6.787 -0.0703 -0.1812  0.0272
  166SAPE   H6R18700   6.543   6.202   6.727  0.0296  0.4309  0.0818
  166SAPE   C2718701   6.472   6.242   6.931  0.0786 -0.4957  0.3087
  166SAPE   H7R18702   6.389   6.295   6.983 -0.4306  0.9141 -1.8807
  166SAPE   H7S18703   6.556   6.315   6.939  0.4158 -0.7876 -0.5080
  166SAPE   C2818704   6.480   6.109   7.002 -0.3595 -0.7518 -0.3266
  166SAPE   H8R18705   6.392   6.042   7.006 -1.8416  1.2542  1.7924
  166SAPE   C2918706   6.592   6.059   7.059 -0.6912 -0.2248 -0.2538
  166SAPE   H9R18707   6.601   5.959   7.105 -0.6574 -0.3226 -0.4707
  166SAPE  C21018708   6.726   6.133   7.045  0.1141  0.3442 -0.4026
  166SAPE  H10R18709   6.719   6.233   7.092  0.5689 -0.1147  0.6524
  166SAPE  H10S18710   6.747   6.158   6.938 -0.1966 -0.8794 -0.7482
  166SAPE  C21118711   6.832   6.037   7.096 -1.1145  0.1375 -0.0730
  166SAPE  H11R18712   6.835   5.930   7.073  0.1736  0.2430 -0.4445
  166SAPE  C21218713   6.937   6.078   7.172 -0.4702  0.4425  0.0788
  166SAPE  H12R18714   7.011   6.003   7.203  0.5235  0.8413 -1.2857
  166SAPE  C21318715   6.949   6.216   7.225 -0.0151  0.1489 -0.4447
  166SAPE  H13R18716   6.992   6.209   7.328 -1.9192  1.7816  0.4999
  166SAPE  H13S18717   6.849   6.263   7.235 -0.4309 -1.1029  1.6855
  166SAPE  C21418718   7.044   6.299   7.143  0.3044 -0.0232  0.4530
  166SAPE  H14R18719   7.050   6.277   7.035  0.4441  0.8645  0.2773
  166SAPE  C21518720   7.139   6.388   7.194  0.5338  0.6080  0.0787
  166SAPE  H15R18721   7.196   6.451   7.124 -0.4580  0.3895 -0.9337
  166SAPE  C21618722   7.164   6.414   7.340 -0.3132 -0.0349 -0.5324
  166SAPE  H16R18723   7.262   6.465   7.354 -1.1546  1.2507  0.8659
  166SAPE  H16S18724   7.182   6.313   7.384 -1.5687  0.1428  0.4323
  166SAPE  C21718725   7.047   6.485   7.417 -0.0442  0.2940  0.7198
  166SAPE  H17R18726   7.073   6.491   7.524  0.4097  3.5055  0.4640
  166SAPE  H17S18727   6.956   6.422   7.412  1.5965 -2.3120  2.4014
  166SAPE  C21818728   7.023   6.630   7.372  0.0529  0.2060  0.5431
  166SAPE  H18R18729   6.931   6.664   7.424 -0.4308  1.5953 -1.1748
  166SAPE  H18S18730   6.998   6.623   7.264 -4.0049 -0.5118  1.4248
  166SAPE  C21918731   7.132   6.726   7.390  0.4966 -0.4502  0.2860
  166SAPE  H19R18732   7.103   6.823   7.344 -4.6510 -1.9683  0.0136
  166SAPE  H19S18733   7.214   6.680   7.331 -1.0878 -0.6289 -1.8775
  166SAPE  C22018734   7.174   6.754   7.534  0.3717 -0.0428 -0.2203
  166SAPE  H20R18735   7.215   6.657   7.569 -0.5408  0.4103  2.1686
  166SAPE  H20S18736   7.085   6.792   7.589 -0.0895 -0.5794 -0.5843
  166SAPE  H20T18737   7.264   6.817   7.548 -0.0083  0.2839  0.7832
  166SAPE   C3318738   5.607   6.154   6.869  0.4890 -0.6842  0.1586
  166SAPE   H3X18739   5.570   6.257   6.847 -0.0661 -0.2996  2.7009
  166SAPE   H3Y18740   5.717   6.168   6.881  0.3250  0.5828  0.3177
  166SAPE   C3418741   5.559   6.123   7.007 -0.1480 -0.2264 -0.4501
  166SAPE   H4X18742   5.622   6.036   7.035 -0.1781  0.0141  0.3606
  166SAPE   H4Y18743   5.452   6.095   7.008 -0.0625 -0.5475  0.3834
  166SAPE   C3518744   5.579   6.242   7.114  0.1930  0.6170 -0.9324
  166SAPE   H5X18745   5.488   6.305   7.109  0.4806  1.0829 -0.2851
  166SAPE   H5Y18746   5.667   6.306   7.094  1.3592  0.2659  2.7586
  166SAPE   C3618747   5.587   6.184   7.260  0.1738 -0.1050 -0.1709
  166SAPE   H6X18748   5.675   6.116   7.264 -0.2274 -0.5111  2.6387
  166SAPE   H6Y18749   5.492   6.131   7.283 -0.9250  2.3297  1.0462
  166SAPE   C3718750   5.569   6.298   7.369  0.0253  0.7340 -0.5280
  166SAPE   H7X18751   5.478   6.358   7.347  0.1085  0.7670 -0.7886
  166SAPE   H7Y18752   5.660   6.360   7.352 -0.0478  1.2794  0.9604
  166SAPE   C3818753   5.582   6.247   7.511  0.5990  0.3058 -0.2909
  166SAPE   H8X18754   5.686   6.219   7.537  0.1578  0.5109  1.7172
  166SAPE   H8Y18755   5.515   6.159   7.521 -1.3966  1.9156  0.6798
  166SAPE   C3918756   5.551   6.356   7.617 -0.3890  0.4160 -0.2633
  166SAPE   H9X18757   5.453   6.407   7.601 -1.5629 -1.7083 -0.0712
  166SAPE   H9Y18758   5.630   6.433   7.615 -0.8241  0.9517  2.0159
  166SAPE  C31018759   5.558   6.297   7.761  0.0840  0.5391  0.8108
  166SAPE  H10X18760   5.542   6.381   7.830  1.0692 -0.5237  2.3542
  166SAPE  H10Y18761   5.661   6.262   7.782 -0.5538 -1.6882  0.4126
  166SAPE  C31118762   5.459   6.179   7.785  0.6484 -0.3039  0.2222
  166SAPE  H11X18763   5.486   6.094   7.719 -1.1732  0.6133 -1.7746
  166SAPE  H11Y18764   5.355   6.210   7.762  0.4196  0.1978  1.9141
  166SAPE  C31218765   5.448   6.119   7.925  0.2112 -0.7456 -0.5060
  166SAPE  H12X18766   5.545   6.088   7.970  0.0695  0.5481  0.7177
  166SAPE  H12Y18767   5.396   6.024   7.898  0.5606 -0.3771 -2.5439
  166SAPE  C31318768   5.361   6.210   8.024 -0.2899  0.1186  0.0913
  166SAPE  H13X18769   5.270   6.227   7.963  0.3636 -0.5075 -1.0819
  166SAPE  H13Y18770   5.391   6.316   8.042 -1.8597  0.9063 -1.7447
  166SAPE  C31418771   5.321   6.137   8.147  0.7527 -0.4553 -0.6291
  166SAPE  H14X18772   5.369   6.180   8.237 -0.0031 -1.9968  0.5214
  166SAPE  H14Y18773   5.341   6.028   8.145  1.1827 -0.3882  0.2688
  166SAPE  C31518774   5.171   6.140   8.177 -0.3773  0.3350 -0.2129
  166SAPE  H15X18775   5.137   6.246   8.180  0.8705  0.7338  0.0956
  166SAPE  H15Y18776   5.163   6.090   8.276 -0.3167  1.3256  0.3078
  166SAPE  C31618777   5.081   6.054   8.070 -0.4968  0.2634 -0.2652
  166SAPE  H16X18778   5.091   6.110   7.974  0.4339 -0.1605 -0.4194
  166SAPE  H16Y18779   4.977   6.055   8.109  0.7714  0.5949  3.3210
  166SAPE  C31718780   5.132   5.904   8.058  0.5443  0.3558 -0.7730
  166SAPE  H17X18781   5.156   5.862   8.158  0.2651  1.2729 -0.3188
  166SAPE  H17Y18782   5.226   5.899   7.999  2.4702 -0.0605  2.2179
  166SAPE  C31818783   5.036   5.814   7.975  0.1799  0.0818  0.7867
  166SAPE  H18X18784   5.054   5.705   7.970  1.9539  0.3878  0.1966
  166SAPE  H18Y18785   5.044   5.854   7.872  0.0937  1.0805  1.1553
  166SAPE  H18Z18786   4.931   5.844   7.995 -0.0504  1.9255 -2.9146
  167SAPE     N18787   6.632   5.374   5.672  0.1264  0.1182 -0.1928
  167SAPE   HN118788   6.611   5.277   5.703  0.4724  0.1813  0.2500
  167SAPE   HN218789   6.551   5.437   5.684 -2.7494 -3.6536  1.0095
  167SAPE   HN318790   6.661   5.369   5.572 -2.2784 -3.3872 -0.8050
  167SAPE   C1218791   6.740   5.422   5.768  0.7467 -0.5100 -0.7181
  167SAPE  H12A18792   6.687   5.470   5.853  0.7725 -3.0829  0.8131
  167SAPE  H12B18793   6.808   5.497   5.722 -1.1376  1.1435 -0.8460
  167SAPE   C1118794   6.821   5.306   5.825 -0.3274 -0.0638 -0.3094
  167SAPE  H11A18795   6.917   5.332   5.874  0.4387  0.6702 -2.1155
  167SAPE  H11B18796   6.859   5.255   5.733  0.7825 -0.9411  0.6251
  167SAPE     P18797   6.712   5.228   6.057 -0.4131  0.2845  0.1565
  167SAPE   O1318798   6.597   5.316   6.079 -0.1109  0.1068 -0.2473
  167SAPE   O1418799   6.698   5.087   6.105  0.3722 -0.0846  0.0495
  167SAPE   O1218800   6.741   5.214   5.901 -0.1471 -0.0145 -0.4190
  167SAPE   O1118801   6.842   5.292   6.115  0.1118  0.7296  0.2898
  167SAPE    C118802   6.840   5.393   6.217 -0.1537  0.0100  1.3406
  167SAPE    HA18803   6.924   5.463   6.200 -0.2691  0.0162  0.8050
  167SAPE    HB18804   6.751   5.459   6.209 -0.9517 -0.6885  3.7478
  167SAPE    C218805   6.843   5.332   6.355 -0.4616 -0.0729 -0.1812
  167SAPE    HS18806   6.915   5.247   6.353 -0.7004 -0.4345  3.1270
  167SAPE   O2118807   6.713   5.295   6.390  0.3615 -0.1556  0.0367
  167SAPE   C2118808   6.705   5.211   6.492 -0.0373 -0.2156  0.0706
  167SAPE   O2218809   6.801   5.136   6.519 -0.0047  0.5338  0.5339
  167SAPE   C2218810   6.571   5.212   6.562 -0.2660  0.3217 -0.6788
  167SAPE   H2R18811   6.532   5.312   6.594  0.6088  0.3935  0.1814
  167SAPE   H2S18812   6.502   5.177   6.483  0.1893  0.1594 -0.9996
  167SAPE    C318813   6.902   5.433   6.459  0.3913 -0.4641 -0.6011
  167SAPE    HX18814   6.833   5.518   6.473  1.6833  0.1802  2.2971
  167SAPE    HY18815   7.001   5.460   6.417  0.4716 -0.6556 -0.5375
  167SAPE   O3118816   6.915   5.374   6.586 -0.6062  0.3343  0.0922
  167SAPE   C3118817   7.036   5.320   6.614 -0.0337 -0.1861 -0.3311
  167SAPE   O3218818   7.126   5.300   6.536  0.3000 -0.2449 -0.3615
  167SAPE   C3218819   7.021   5.259   6.756 -0.0150 -0.0324  0.2689
  167SAPE   H2X18820   7.112   5.201   6.782  1.0905  1.4116 -0.4005
  167SAPE   H2Y18821   6.948   5.175   6.745  0.4962 -0.5016  0.4699
  167SAPE   C2318822   6.568   5.132   6.700 -0.2967 -0.1009 -0.3907
  167SAPE   H3R18823   6.609   5.191   6.785 -2.8036 -0.4612  1.1084
  167SAPE   H3S18824   6.626   5.038   6.688 -1.1711 -0.7866  0.6379
  167SAPE   C2418825   6.433   5.083   6.749 -0.3496 -0.2984 -0.4246
  167SAPE   H4R18826   6.438   4.989   6.809  1.0915 -1.4129 -2.2473
  167SAPE   H4S18827   6.376   5.042   6.663  0.2325 -0.7022 -0.6256
  167SAPE   C2518828   6.356   5.197   6.809  0.5857 -0.2573  0.0588
  167SAPE   H5R18829   6.342   5.281   6.739  0.3627  0.0468  0.4688
  167SAPE   C2618830   6.314   5.211   6.940  0.4467 -0.4460  0.5556
  167SAPE   H6R18831   6.265   5.305   6.968  0.1815 -0.7705  1.1662
  167SAPE   C2718832   6.317   5.103   7.048  0.2153 -0.9783 -0.1701
  167SAPE   H7R18833   6.293   4.998   7.019 -0.8832 -1.1703  1.3644
  167SAPE   H7S18834   6.234   5.117   7.120  0.9278  1.0081  0.2958
  167SAPE   C2818835   6.450   5.103   7.127  0.2850  0.6948 -0.0616
  167SAPE   H8R18836   6.535   5.052   7.079  1.2203  0.4224  1.8352
  167SAPE   C2918837   6.470   5.167   7.243 -0.2518 -0.9084  0.4654
  167SAPE   H9R18838   6.560   5.130   7.294 -0.2125 -1.5305 -0.0537
  167SAPE  C21018839   6.381   5.265   7.314  0.1932  0.2355 -0.3807
  167SAPE  H10R18840   6.282   5.271   7.264 -0.2024 -0.1583  0.3401
  167SAPE  H10S18841   6.427   5.366   7.310 -1.3655  0.9630 -0.2456
  167SAPE  C21118842   6.369   5.218   7.456 -0.5656  0.2080 -1.0741
  167SAPE  H11R18843   6.319   5.122   7.476 -2.1089  1.3535  0.7323
  167SAPE  C21218844   6.419   5.293   7.560 -0.1707  0.4625 -0.2869
  167SAPE  H12R18845   6.421   5.250   7.661  3.4256 -1.0638 -0.9174
  167SAPE  C21318846   6.489   5.429   7.560  0.5737 -0.9280 -0.7881
  167SAPE  H13R18847   6.412   5.507   7.545 -0.7336 -1.4092  2.9421
  167SAPE  H13S18848   6.544   5.445   7.465  0.8914  0.4067 -0.4043
  167SAPE  C21418849   6.565   5.482   7.679  0.4048 -0.1926  0.1082
  167SAPE  H14R18850   6.671   5.500   7.654  0.4173 -0.0496  0.2610
  167SAPE  C21518851   6.531   5.485   7.807 -0.0141  0.3957  0.3797
  167SAPE  H15R18852   6.604   5.529   7.877  2.2586  0.7402 -2.1242
  167SAPE  C21618853   6.399   5.450   7.875 -0.1501 -0.5458  0.2576
  167SAPE  H16R18854   6.397   5.350   7.924  1.4025  0.8284  3.2529
  167SAPE  H16S18855   6.332   5.440   7.787  4.0670 -2.9524 -2.8662
  167SAPE  C21718856   6.348   5.556   7.974 -0.0249 -0.5303  0.7009
  167SAPE  H17R18857   6.308   5.628   7.901 -1.0779 -1.0943  0.7163
  167SAPE  H17S18858   6.427   5.604   8.036  1.3952 -2.2302  0.2567
  167SAPE  C21818859   6.229   5.517   8.062  0.1958 -0.3152 -0.6630
  167SAPE  H18R18860   6.262   5.435   8.129 -1.9455 -0.9934 -0.4069
  167SAPE  H18S18861   6.144   5.479   8.001  0.5846  1.2114 -2.2120
  167SAPE  C21918862   6.169   5.633   8.139 -0.7260  0.3811 -0.5934
  167SAPE  H19R18863   6.248   5.681   8.201  0.3359 -0.2459 -1.4374
  167SAPE  H19S18864   6.093   5.584   8.203 -0.9916  0.7575 -0.6147
  167SAPE  C22018865   6.079   5.730   8.057 -0.2305  0.6458 -0.3327
  167SAPE  H20R18866   6.138   5.790   7.985  0.2258 -0.3376 -0.7874
  167SAPE  H20S18867   6.029   5.798   8.129 -1.2139 -1.4084  0.9649
  167SAPE  H20T18868   6.000   5.681   7.997 -1.1230  1.4346  0.1740
  167SAPE   C3318869   6.995   5.364   6.869 -0.9360  0.2884  0.3318
  167SAPE   H3X18870   6.947   5.451   6.820  0.9772  2.1148  1.6456
  167SAPE   H3Y18871   7.092   5.407   6.904 -0.0306 -0.8186 -0.7725
  167SAPE   C3418872   6.921   5.311   6.989  0.0329 -0.1852  0.4146
  167SAPE   H4X18873   6.994   5.242   7.039  2.2989  0.6293 -1.6705
  167SAPE   H4Y18874   6.829   5.254   6.965 -0.3616  0.7060 -0.1998
  167SAPE   C3518875   6.870   5.427   7.078 -0.5385 -0.0524  0.3161
  167SAPE   H5X18876   6.806   5.492   7.013 -0.9780 -0.9311 -0.1450
  167SAPE   H5Y18877   6.950   5.500   7.103  1.0271 -2.0281  1.2080
  167SAPE   C3618878   6.795   5.385   7.201  0.4645  1.0408 -0.6054
  167SAPE   H6X18879   6.706   5.324   7.173  0.9371  1.0092 -2.0788
  167SAPE   H6Y18880   6.751   5.467   7.263 -0.9351 -0.5678  0.5706
  167SAPE   C3718881   6.877   5.292   7.299  0.4536 -0.5602  0.6697
  167SAPE   H7X18882   6.983   5.318   7.317 -0.2912  3.2567 -0.1768
  167SAPE   H7Y18883   6.878   5.190   7.255  0.4500 -0.7986  1.2131
  167SAPE   C3818884   6.813   5.306   7.441  0.7347 -0.2038  0.5925
  167SAPE   H8X18885   6.708   5.270   7.440  0.3960  0.7420 -1.2168
  167SAPE   H8Y18886   6.823   5.412   7.472  0.3418 -0.5215  1.7972
  167SAPE   C3918887   6.887   5.226   7.538  0.2781 -0.3863  1.0934
  167SAPE   H9X18888   6.990   5.265   7.549 -0.6994  3.1265 -1.2752
  167SAPE   H9Y18889   6.911   5.130   7.488  1.7915  0.6081 -0.1312
  167SAPE  C31018890   6.822   5.209   7.678  0.0921 -0.0764  0.4278
  167SAPE  H10X18891   6.722   5.164   7.671  0.9997 -2.2295  0.9621
  167SAPE  H10Y18892   6.805   5.308   7.726  0.8950 -0.4274  1.4758
  167SAPE  C31118893   6.901   5.123   7.773 -0.3171  0.5421 -0.8054
  167SAPE  H11X18894   7.005   5.162   7.781  1.2326 -3.0858 -2.3786
  167SAPE  H11Y18895   6.900   5.018   7.738  1.0052 -0.0386  0.8164
  167SAPE  C31218896   6.825   5.129   7.913 -0.1330  0.2664 -0.4217
  167SAPE  H12X18897   6.859   5.048   7.981  0.7825 -1.5866 -2.9851
  167SAPE  H12Y18898   6.716   5.105   7.903  0.0021 -0.3222 -0.5316
  167SAPE  C31318899   6.847   5.264   7.986  0.0338  0.2119 -0.2954
  167SAPE  H13X18900   6.821   5.355   7.928 -1.1139  0.8045  1.1127
  167SAPE  H13Y18901   6.957   5.264   7.999  0.1966  0.6434 -1.5692
  167SAPE  C31418902   6.779   5.264   8.131 -0.2173  0.2609  0.1771
  167SAPE  H14X18903   6.787   5.164   8.177 -2.6567 -1.2707 -2.5158
  167SAPE  H14Y18904   6.668   5.264   8.121 -0.2011 -0.6632  0.0072
  167SAPE  C31518905   6.841   5.363   8.230 -0.3079  0.6233  0.4352
  167SAPE  H15X18906   6.887   5.448   8.177 -1.0569 -1.0274 -2.9911
  167SAPE  H15Y18907   6.934   5.312   8.263  0.4054  0.5559 -1.6203
  167SAPE  C31618908   6.748   5.402   8.343 -0.3905 -0.1640 -0.5812
  167SAPE  H16X18909   6.818   5.441   8.420 -1.7175 -0.4583  0.8020
  167SAPE  H16Y18910   6.692   5.316   8.386  1.8566 -0.6629  1.4506
  167SAPE  C31718911   6.635   5.504   8.317  0.3973 -0.0211 -0.2205
  167SAPE  H17X18912   6.583   5.463   8.228 -1.0490 -0.3702  0.7636
  167SAPE  H17Y18913   6.682   5.602   8.294  0.7634 -0.8328 -3.2211
  167SAPE  C31818914   6.532   5.502   8.430  0.3777 -0.6773 -0.2259
  167SAPE  H18X18915   6.590   5.535   8.519 -1.2782 -0.0096  0.6399
  167SAPE  H18Y18916   6.499   5.396   8.441  0.0582 -0.6008 -0.4715
  167SAPE  H18Z18917   6.451   5.573   8.404  0.8938  0.2722  0.7332
  168SAPE     N18918   1.491   0.327   6.095 -0.0880  0.2126 -0.4689
  168SAPE   HN118919   1.414   0.259   6.082 -0.2101  0.2317  0.1410
  168SAPE   HN218920   1.534   0.337   6.001 -1.0821  0.2924 -0.9154
  168SAPE   HN318921   1.568   0.291   6.155 -0.0685  4.1639  2.1074
  168SAPE   C1218922   1.435   0.461   6.147  0.2050 -0.0093  0.0543
  168SAPE  H12A18923   1.345   0.441   6.210  0.9543  4.3443  2.7120
  168SAPE  H12B18924   1.409   0.517   6.055  1.8075  1.4438  0.4664
  168SAPE   C1118925   1.550   0.522   6.220 -0.6964 -0.7723 -0.1839
  168SAPE  H11A18926   1.535   0.631   6.235 -0.0234 -0.4964 -1.4760
  168SAPE  H11B18927   1.640   0.532   6.156 -0.0837  0.2372  0.8067
  168SAPE     P18928   1.522   0.513   6.474 -0.0959  0.3830  0.2777
  168SAPE   O1318929   1.600   0.638   6.498 -0.1337 -0.2816 -0.0216
  168SAPE   O1418930   1.375   0.514   6.457  0.1134  0.4280  0.4434
  168SAPE   O1218931   1.576   0.447   6.342  0.0312  0.1174  0.2925
  168SAPE   O1118932   1.560   0.402   6.586 -0.0267  0.0331 -0.0698
  168SAPE    C118933   1.551   0.266   6.562  0.1390 -0.3581 -0.0177
  168SAPE    HA18934   1.471   0.237   6.490 -0.4188 -0.1084  0.5120
  168SAPE    HB18935   1.644   0.223   6.517  1.4501  1.7867  0.5949
  168SAPE    C218936   1.532   0.173   6.695  0.1180 -0.5771  0.5061
  168SAPE    HS18937   1.514   0.069   6.657  0.1391 -0.9701  1.5719
  168SAPE   O2118938   1.420   0.221   6.782 -0.3322 -0.3611  0.1296
  168SAPE   C2118939   1.309   0.240   6.710 -0.2696  0.0506  0.3456
  168SAPE   O2218940   1.271   0.169   6.618 -0.3302 -0.0498 -0.1038
  168SAPE   C2218941   1.266   0.382   6.748 -0.4534  0.4545 -0.7642
  168SAPE   H2R18942   1.279   0.403   6.856 -0.3047 -2.9428 -0.0635
  168SAPE   H2S18943   1.342   0.440   6.693 -1.6736  1.3262 -1.5596
  168SAPE    C318944   1.656   0.191   6.777  0.0374  0.5160 -0.3494
  168SAPE    HX18945   1.653   0.295   6.817  1.5202  1.2248 -1.9904
  168SAPE    HY18946   1.745   0.185   6.711  0.6732 -0.3112  0.5692
  168SAPE   O3118947   1.654   0.095   6.876 -0.5387 -0.2473 -0.1970
  168SAPE   C3118948   1.743   0.097   6.975  0.0752 -0.3206 -0.1871
  168SAPE   O3218949   1.837   0.170   6.984 -0.1992 -1.0182 -0.0038
  168SAPE   C3218950   1.712  -0.011   7.076  0.3623 -0.0703  0.2358
  168SAPE   H2X18951   1.731  -0.108   7.025 -1.6820 -0.8795  0.9783
  168SAPE   H2Y18952   1.604  -0.012   7.100  0.4055  1.8695  0.5944
  168SAPE   C2318953   1.118   0.414   6.720 -0.0054  0.8673 -0.0898
  168SAPE   H3R18954   1.089   0.328   6.654  1.5456 -0.2880  0.6877
  168SAPE   H3S18955   1.122   0.502   6.653  2.7922 -0.0780 -1.2319
  168SAPE   C2418956   1.028   0.436   6.844 -0.4165  0.5745 -0.9722
  168SAPE   H4R18957   0.934   0.483   6.808 -1.3327 -0.6160 -0.1946
  168SAPE   H4S18958   1.091   0.504   6.904 -0.0281  2.7401 -3.7183
  168SAPE   C2518959   0.986   0.310   6.921 -0.8472  0.6751 -0.2321
  168SAPE   H5R18960   0.899   0.260   6.875 -0.3654  0.4746 -0.9323
  168SAPE   C2618961   1.042   0.265   7.032  0.0490  0.3844 -0.0757
  168SAPE   H6R18962   0.998   0.174   7.075 -0.3566  1.2526  1.3930
  168SAPE   C2718963   1.152   0.325   7.114 -0.0557 -0.1373  0.7933
  168SAPE   H7R18964   1.109   0.359   7.211 -0.5638  2.1552 -0.1931
  168SAPE   H7S18965   1.198   0.414   7.066  1.2315 -1.5520 -0.6037
  168SAPE   C2818966   1.261   0.216   7.134  0.5611  0.6961  0.1406
  168SAPE   H8R18967   1.285   0.164   7.040  1.3134  1.2821  0.0077
  168SAPE   C2918968   1.305   0.151   7.244  0.9325  0.0279  0.9199
  168SAPE   H9R18969   1.383   0.074   7.235  0.6402 -0.0394 -1.1666
  168SAPE  C21018970   1.261   0.179   7.386 -0.3405  0.5146  0.0417
  168SAPE  H10R18971   1.211   0.277   7.402  0.0802  0.7528 -0.1005
  168SAPE  H10S18972   1.347   0.167   7.454 -0.8658  1.7538  0.9276
  168SAPE  C21118973   1.156   0.079   7.427 -0.6874  0.0675  0.5777
  168SAPE  H11R18974   1.109   0.036   7.337 -0.8696  1.7183 -0.1272
  168SAPE  C21218975   1.105   0.066   7.555  0.2157  0.0125  0.3539
  168SAPE  H12R18976   1.016   0.003   7.568 -0.7107  0.8122 -1.8659
  168SAPE  C21318977   1.146   0.153   7.664 -0.4153 -0.2166  0.3378
  168SAPE  H13R18978   1.147   0.256   7.622 -0.0939 -1.4527 -2.8747
  168SAPE  H13S18979   1.248   0.135   7.704 -1.8856  0.9513  4.8925
  168SAPE  C21418980   1.047   0.135   7.773  0.0684  1.0294 -0.4394
  168SAPE  H14R18981   0.950   0.187   7.768  0.5460  2.0573  0.7202
  168SAPE  C21518982   1.062   0.054   7.879  0.3855 -0.0759  0.0662
  168SAPE  H15R18983   0.983   0.044   7.955 -0.2575 -0.8887 -0.6942
  168SAPE  C21618984   1.182  -0.033   7.906 -0.6397  0.0244 -0.2521
  168SAPE  H16R18985   1.227  -0.082   7.817 -0.9644  1.8034 -1.4150
  168SAPE  H16S18986   1.158  -0.117   7.975  2.1196  0.5134  1.3963
  168SAPE  C21718987   1.276   0.064   7.978  0.3252 -0.2829 -0.1666
  168SAPE  H17R18988   1.239   0.094   8.078  3.2250  1.0654  0.5554
  168SAPE  H17S18989   1.310   0.157   7.927 -0.2757  0.5726  0.9813
  168SAPE  C21818990   1.404  -0.011   8.019  0.3378  1.0720 -0.2373
  168SAPE  H18R18991   1.385  -0.095   8.088 -0.6899  2.4464  1.1847
  168SAPE  H18S18992   1.463   0.059   8.082 -1.9346  1.7344  1.1880
  168SAPE  C21918993   1.489  -0.053   7.902  0.3355 -1.0052  0.2794
  168SAPE  H19R18994   1.487   0.026   7.825 -1.6490 -0.9422  0.3516
  168SAPE  H19S18995   1.442  -0.140   7.851  1.1578 -1.4019  0.1937
  168SAPE  C22018996   1.629  -0.089   7.933  0.4410 -0.9044 -0.0556
  168SAPE  H20R18997   1.672  -0.011   7.998  0.2595 -0.4960 -0.4259
  168SAPE  H20S18998   1.686  -0.085   7.838  1.3019 -0.7344  0.4589
  168SAPE  H20T18999   1.649  -0.189   7.979  2.0631 -0.9964 -0.9501
  168SAPE   C3319000   1.786   0.004   7.214  0.0185  0.1020  0.5703
  168SAPE   H3X19001   1.892  -0.011   7.183 -0.4974 -1.9763 -0.2455
  168SAPE   H3Y19002   1.760  -0.080   7.281  3.8344 -2.9444 -1.5467
  168SAPE   C3419003   1.764   0.150   7.274 -0.1367  0.0074  0.4056
  168SAPE   H4X19004   1.656   0.172   7.264  0.5862  4.1055  0.8945
  168SAPE   H4Y19005   1.800   0.230   7.206 -1.6152  0.1259 -0.2462
  168SAPE   C3519006   1.810   0.152   7.416  0.2795 -0.0262 -0.1185
  168SAPE   H5X19007   1.909   0.203   7.416 -0.8220  2.2461 -2.7489
  168SAPE   H5Y19008   1.822   0.051   7.460  1.8030 -0.5347 -1.6129
  168SAPE   C3619009   1.705   0.221   7.512 -0.5337  0.7031 -0.1342
  168SAPE   H6X19010   1.603   0.178   7.509  0.0950 -0.9112  1.1861
  168SAPE   H6Y19011   1.687   0.321   7.467 -2.3882  0.4979  0.1445
  168SAPE   C3719012   1.752   0.237   7.655 -0.3905  0.2933 -0.3088
  168SAPE   H7X19013   1.850   0.287   7.667  0.5829 -1.7617  0.5308
  168SAPE   H7Y19014   1.762   0.140   7.708  0.3633  0.8572  0.5870
  168SAPE   C3819015   1.648   0.301   7.747 -0.0735 -0.1945  0.8617
  168SAPE   H8X19016   1.553   0.249   7.722 -0.8696  0.9933  1.3751
  168SAPE   H8Y19017   1.638   0.403   7.703 -0.8949  0.6479  2.9227
  168SAPE   C3919018   1.668   0.303   7.900  0.7127 -0.9515  0.7491
  168SAPE   H9X19019   1.758   0.365   7.925  1.3307 -0.5589 -2.3165
  168SAPE   H9Y19020   1.714   0.208   7.936  1.6484 -2.3463 -3.7983
  168SAPE  C31019021   1.552   0.357   7.993 -0.2357  0.2564 -0.3893
  168SAPE  H10X19022   1.477   0.274   7.990 -1.7491  1.5730  0.2413
  168SAPE  H10Y19023   1.491   0.441   7.955 -0.6243  0.2756  0.2678
  168SAPE  C31119024   1.566   0.367   8.146  0.0195 -0.1787 -0.1804
  168SAPE  H11X19025   1.621   0.458   8.180  0.3898 -0.3321 -0.3790
  168SAPE  H11Y19026   1.615   0.282   8.197 -0.9990 -1.9609 -2.0964
  168SAPE  C31219027   1.425   0.377   8.206 -0.3453  0.0079 -0.1062
  168SAPE  H12X19028   1.368   0.293   8.161  0.8106 -1.1308  0.5159
  168SAPE  H12Y19029   1.382   0.476   8.179  0.8582  1.2381  2.3602
  168SAPE  C31319030   1.423   0.363   8.354  0.3682  0.4711  0.1136
  168SAPE  H13X19031   1.486   0.445   8.394  0.6036 -0.0439  0.7932
  168SAPE  H13Y19032   1.463   0.262   8.377 -0.6389  0.2850  1.1076
  168SAPE  C31419033   1.277   0.387   8.415  1.3346  0.1418 -0.5074
  168SAPE  H14X19034   1.203   0.311   8.382  1.0602  0.4703 -0.6560
  168SAPE  H14Y19035   1.241   0.482   8.371 -2.1443 -1.1477 -0.6454
  168SAPE  C31519036   1.295   0.388   8.567  0.3514 -0.1096  0.0803
  168SAPE  H15X19037   1.329   0.487   8.605  3.4493 -0.9150 -0.4710
  168SAPE  H15Y19038   1.351   0.303   8.610 -0.4284 -0.6746 -0.0073
  168SAPE  C31619039   1.154   0.357   8.624 -0.1371  0.0580 -0.6439
  168SAPE  H16X19040   1.122   0.253   8.599  0.3350 -0.1190 -0.5245
  168SAPE  H16Y19041   1.084   0.433   8.583  0.2356 -1.0225 -3.3540
  168SAPE  C31719042   1.159   0.355   8.779  0.2460  0.0067  0.6971
  168SAPE  H17X19043   1.052   0.344   8.808  0.1911  1.0508  0.9028
  168SAPE  H17Y19044   1.193   0.454   8.814 -1.1886  1.2762 -1.3870
  168SAPE  C31819045   1.239   0.242   8.850 -0.0041  0.1380  0.2863
  168SAPE  H18X19046   1.346   0.239   8.817 -0.2292  2.9039 -0.7980
  168SAPE  H18Y19047   1.197   0.141   8.831  0.0530  0.4020 -1.3173
  168SAPE  H18Z19048   1.230   0.269   8.957 -0.8104 -1.1703  0.5625
  169SAPE     N19049   1.003   2.546   6.052  0.1935  0.5493  0.3308
  169SAPE   HN119050   1.023   2.552   5.951  0.9393 -1.7446  0.3112
  169SAPE   HN219051   0.920   2.604   6.075 -1.2037 -1.6685  1.0294
  169SAPE   HN319052   1.094   2.581   6.089 -0.1451  2.5735 -0.7020
  169SAPE   C1219053   0.989   2.409   6.115 -0.2321  0.5253  0.1486
  169SAPE  H12A19054   0.885   2.377   6.091 -0.5666  1.2094  0.6602
  169SAPE  H12B19055   0.998   2.426   6.224  1.4803  3.0662 -0.3445
  169SAPE   C1119056   1.095   2.308   6.062 -0.5253 -0.3468 -0.1102
  169SAPE  H11A19057   1.197   2.347   6.082 -0.9351  1.1434 -0.8419
  169SAPE  H11B19058   1.097   2.309   5.951 -0.2137  0.3676 -0.1006
  169SAPE     P19059   1.161   2.127   6.240  0.2936  0.1059 -0.4192
  169SAPE   O1319060   1.125   1.982   6.249 -0.3476 -0.2786 -0.2785
  169SAPE   O1419061   1.307   2.153   6.234  0.1752  0.0941 -0.5851
  169SAPE   O1219062   1.089   2.177   6.105  0.0708 -0.0700  0.0331
  169SAPE   O1119063   1.092   2.210   6.351 -0.7772 -0.4793  0.2283
  169SAPE    C119064   0.956   2.196   6.393 -0.3266  0.3430 -0.4682
  169SAPE    HA19065   0.906   2.295   6.386 -0.3715  0.2429 -1.7835
  169SAPE    HB19066   0.892   2.131   6.329  1.0035 -1.9108  0.4193
  169SAPE    C219067   0.942   2.143   6.531 -0.3651 -0.1220 -0.4888
  169SAPE    HS19068   0.840   2.101   6.540 -1.2438  2.0964  0.2724
  169SAPE   O2119069   0.962   2.253   6.621  0.6155 -0.2755  0.1997
  169SAPE   C2119070   0.897   2.262   6.741  0.6915 -0.0615  0.0115
  169SAPE   O2219071   0.806   2.188   6.775 -0.3586 -0.4268  0.0240
  169SAPE   C2219072   0.937   2.398   6.802  1.3430  0.1835  0.0042
  169SAPE   H2R19073   1.018   2.453   6.750 -1.4215  3.0712 -1.4195
  169SAPE   H2S19074   0.854   2.466   6.772  0.8700 -0.3640  0.0677
  169SAPE    C319075   1.055   2.044   6.562  0.1250  0.2745 -0.4860
  169SAPE    HX19076   1.157   2.089   6.557 -0.0554  0.6871 -0.5186
  169SAPE    HY19077   1.059   1.954   6.498  2.3277  0.4908 -0.7007
  169SAPE   O3119078   1.038   1.999   6.699 -0.9704  0.2617  0.1198
  169SAPE   C3119079   0.944   1.902   6.711 -1.2864 -0.2871 -0.3325
  169SAPE   O3219080   0.874   1.856   6.623 -0.0656  0.3162  0.5750
  169SAPE   C3219081   0.951   1.846   6.852  0.7031 -0.4887 -0.9530
  169SAPE   H2X19082   1.058   1.816   6.856  1.2888  1.5558 -0.6577
  169SAPE   H2Y19083   0.882   1.759   6.851 -0.3847  0.2955  1.3954
  169SAPE   C2319084   0.950   2.380   6.959  0.3592  0.0286 -0.4709
  169SAPE   H3R19085   0.987   2.480   6.989  1.0730 -1.0220  2.3271
  169SAPE   H3S19086   1.041   2.317   6.974  0.9098  0.5107 -1.7243
  169SAPE   C2419087   0.823   2.337   7.030  0.2588  0.2138  0.1769
  169SAPE   H4R19088   0.850   2.322   7.137  1.6753  2.0610  0.0847
  169SAPE   H4S19089   0.797   2.234   6.995  2.2339 -0.1048 -0.3796
  169SAPE   C2519090   0.699   2.422   7.002  0.0160  0.0261  0.0632
  169SAPE   H5R19091   0.718   2.518   6.952  2.0180  0.4792  1.6000
  169SAPE   C2619092   0.572   2.383   7.033  0.7232  0.4627 -0.4738
  169SAPE   H6R19093   0.490   2.457   7.023  0.3863 -0.0017 -1.2416
  169SAPE   C2719094   0.535   2.251   7.096 -0.2568  1.2199  0.2322
  169SAPE   H7R19095   0.617   2.194   7.144 -2.4469 -0.0447  2.5801
  169SAPE   H7S19096   0.493   2.184   7.017  0.5030 -0.5813  1.3330
  169SAPE   C2819097   0.431   2.270   7.204  0.0471  0.1862 -0.2899
  169SAPE   H8R19098   0.330   2.279   7.162 -0.4089 -0.8577  0.5702
  169SAPE   C2919099   0.457   2.265   7.343 -0.2647 -0.3463  0.1496
  169SAPE   H9R19100   0.379   2.282   7.419  0.2039  4.1043 -0.2080
  169SAPE  C21019101   0.591   2.246   7.404  0.2793 -0.7523  0.3422
  169SAPE  H10R19102   0.642   2.191   7.323 -1.4833 -1.6266 -0.1968
  169SAPE  H10S19103   0.588   2.176   7.490  1.5782 -1.0189  0.1760
  169SAPE  C21119104   0.656   2.374   7.444  0.2229 -0.2029 -0.5980
  169SAPE  H11R19105   0.652   2.454   7.369 -0.2461 -0.4976 -0.8917
  169SAPE  C21219106   0.707   2.420   7.558  0.6927 -0.2041 -0.0414
  169SAPE  H12R19107   0.737   2.526   7.561 -0.6328  0.1538  1.5238
  169SAPE  C21319108   0.717   2.348   7.685  0.0801  0.0613 -1.1217
  169SAPE  H13R19109   0.798   2.378   7.756 -1.4301 -1.4725  1.3156
  169SAPE  H13S19110   0.744   2.242   7.668  0.5124  0.2038 -1.3381
  169SAPE  C21419111   0.583   2.354   7.761 -0.2140 -0.1072 -0.4520
  169SAPE  H14R19112   0.543   2.456   7.771 -0.2435 -0.0152 -1.4984
  169SAPE  C21519113   0.522   2.248   7.819 -0.6448 -0.5114 -0.2514
  169SAPE  H15R19114   0.418   2.257   7.853 -1.1935 -2.6534 -1.2948
  169SAPE  C21619115   0.568   2.106   7.827  0.0406  0.2472  0.2712
  169SAPE  H16R19116   0.646   2.097   7.907 -1.3308  0.3099  1.6336
  169SAPE  H16S19117   0.614   2.067   7.734  2.6311  3.2930  0.1841
  169SAPE  C21719118   0.446   2.007   7.877 -0.2045  0.4250  0.0735
  169SAPE  H17R19119   0.488   1.904   7.879 -2.0950 -0.3893 -1.1106
  169SAPE  H17S19120   0.374   2.012   7.793 -1.4060  3.0781  1.2120
  169SAPE  C21819121   0.386   2.033   8.013 -0.4355 -0.3145 -0.4867
  169SAPE  H18R19122   0.299   1.967   8.034 -1.6392  1.5203  0.3777
  169SAPE  H18S19123   0.343   2.135   8.009  0.7680  0.2504  0.7267
  169SAPE  C21919124   0.492   2.040   8.124 -0.0493 -0.2886  0.9832
  169SAPE  H19R19125   0.550   2.134   8.118 -0.9345  0.1641 -0.8380
  169SAPE  H19S19126   0.565   1.956   8.113 -0.6388 -0.7014  0.1565
  169SAPE  C22019127   0.446   2.035   8.271  0.7630 -0.6374  0.1146
  169SAPE  H20R19128   0.365   2.111   8.284 -0.4972 -1.9341 -0.0944
  169SAPE  H20S19129   0.529   2.042   8.344  0.1162 -1.4547  0.9252
  169SAPE  H20T19130   0.409   1.932   8.287 -0.5864 -0.1698  0.0400
  169SAPE   C3319131   0.911   1.943   6.966  0.0085 -0.6385 -0.3383
  169SAPE   H3X19132   0.804   1.968   6.951 -0.1948 -1.5538 -0.4623
  169SAPE   H3Y19133   0.960   2.042   6.958  0.1796 -0.6161  0.8120
  169SAPE   C3419134   0.947   1.885   7.108  0.1319  0.2461 -0.1981
  169SAPE   H4X19135   1.053   1.854   7.103  0.3502  1.0063 -0.2848
  169SAPE   H4Y19136   0.884   1.797   7.133  0.9893  0.2244  1.9941
  169SAPE   C3519137   0.920   1.994   7.220 -0.0748 -0.3693 -0.0467
  169SAPE   H5X19138   0.825   2.042   7.192 -0.2265 -1.3153 -1.2003
  169SAPE   H5Y19139   1.006   2.063   7.211  0.9216 -1.5983 -0.1924
  169SAPE   C3619140   0.893   1.928   7.362 -0.8585  0.8776 -0.4686
  169SAPE   H6X19141   0.964   1.844   7.378 -2.9098 -0.5656  1.4257
  169SAPE   H6Y19142   0.790   1.888   7.377 -0.9628  0.8942 -1.1378
  169SAPE   C3719143   0.929   2.035   7.469  0.2173  0.1680  0.4655
  169SAPE   H7X19144   0.870   2.128   7.459  0.7003  0.6121  1.6326
  169SAPE   H7Y19145   1.038   2.056   7.468 -0.1296  2.0072 -1.1233
  169SAPE   C3819146   0.909   1.990   7.622 -0.5565  0.1656 -0.0685
  169SAPE   H8X19147   0.800   2.003   7.640 -0.9521 -1.2305 -1.2994
  169SAPE   H8Y19148   0.965   2.058   7.689 -2.4087  0.2146  1.4744
  169SAPE   C3919149   0.942   1.843   7.655 -0.0760  0.0310 -0.7442
  169SAPE   H9X19150   1.053   1.843   7.644 -0.1854  2.2312 -2.4073
  169SAPE   H9Y19151   0.899   1.778   7.576 -1.5457  0.5518 -0.3688
  169SAPE  C31019152   0.899   1.787   7.795 -0.5439  0.1867  0.0658
  169SAPE  H10X19153   0.976   1.709   7.815  0.3133  1.6934  3.0150
  169SAPE  H10Y19154   0.794   1.752   7.792 -0.0517 -1.5335  1.5879
  169SAPE  C31119155   0.920   1.888   7.910  0.0271 -0.4564 -0.8974
  169SAPE  H11X19156   0.838   1.961   7.892 -0.7688 -0.3274  2.8910
  169SAPE  H11Y19157   1.025   1.922   7.903 -0.1717  0.2136 -0.6118
  169SAPE  C31219158   0.884   1.808   8.040 -0.5041  0.4406 -0.2564
  169SAPE  H12X19159   0.948   1.718   8.047  1.3011  1.7039 -0.0866
  169SAPE  H12Y19160   0.775   1.788   8.037 -0.0830 -1.8048 -1.2520
  169SAPE  C31319161   0.901   1.888   8.168  0.7492  0.3161 -0.6186
  169SAPE  H13X19162   0.883   1.995   8.143 -0.0477  0.1005 -0.9889
  169SAPE  H13Y19163   1.007   1.873   8.196  0.4534  0.0356  0.3981
  169SAPE  C31419164   0.814   1.832   8.282 -0.3280 -0.5175 -0.4259
  169SAPE  H14X19165   0.707   1.846   8.253 -0.5718  0.2279  0.8084
  169SAPE  H14Y19166   0.832   1.891   8.374  0.9228 -0.0017 -0.9896
  169SAPE  C31519167   0.839   1.678   8.305 -0.4174  0.8052 -0.0310
  169SAPE  H15X19168   0.826   1.612   8.217  4.0253  0.1963 -0.3465
  169SAPE  H15Y19169   0.763   1.640   8.376  0.1308 -1.9677 -0.8713
  169SAPE  C31619170   0.973   1.637   8.360  0.7939 -0.6013 -0.3976
  169SAPE  H16X19171   0.990   1.678   8.462  0.2179 -2.4407  0.4618
  169SAPE  H16Y19172   1.055   1.682   8.300  1.5810  0.7545  1.6209
  169SAPE  C31719173   1.001   1.488   8.381  0.5083 -0.1912  1.3064
  169SAPE  H17X19174   0.983   1.435   8.285 -2.5266  1.2686  0.9918
  169SAPE  H17Y19175   0.938   1.439   8.459  1.8395 -0.5495  2.1580
  169SAPE  C31819176   1.142   1.449   8.425  0.1489 -0.6406 -0.9138
  169SAPE  H18X19177   1.171   1.482   8.527  0.9983 -2.2311 -0.6181
  169SAPE  H18Y19178   1.214   1.477   8.346  0.7529 -1.9886 -0.8552
  169SAPE  H18Z19179   1.162   1.340   8.430 -0.6409 -0.7952 -1.1043
  170SAPE     N19180   2.016   0.322   6.505 -0.3536 -0.1635  0.3943
  170SAPE   HN119181   2.055   0.393   6.571 -1.1626 -1.9042  2.7986
  170SAPE   HN219182   1.984   0.240   6.560 -1.3635 -0.0418 -0.0176
  170SAPE   HN319183   2.091   0.291   6.439 -2.4355 -3.0758 -0.7002
  170SAPE   C1219184   1.905   0.376   6.420 -0.2437  0.4758  0.5981
  170SAPE  H12A19185   1.923   0.485   6.413 -1.0160  0.8191  3.3493
  170SAPE  H12B19186   1.809   0.352   6.472 -0.1097  0.6397  0.9235
  170SAPE   C1119187   1.904   0.301   6.290 -0.4996 -0.4360 -0.6096
  170SAPE  H11A19188   2.002   0.306   6.237  0.2708  1.3721  0.9240
  170SAPE  H11B19189   1.840   0.369   6.228  2.4940  1.8383 -1.3621
  170SAPE     P19190   1.828   0.088   6.172  0.1063 -0.1373 -0.3628
  170SAPE   O1319191   1.689   0.124   6.132  0.0531  0.0617  0.0166
  170SAPE   O1419192   1.941   0.096   6.069  0.5706  0.2044 -0.2611
  170SAPE   O1219193   1.859   0.171   6.300 -0.0461 -0.0481 -0.3598
  170SAPE   O1119194   1.825  -0.059   6.223  0.5596  0.0872 -0.2350
  170SAPE    C119195   1.903  -0.095   6.342  0.3400  0.1797  0.5638
  170SAPE    HA19196   1.948  -0.196   6.335  1.8639  0.6233  3.3298
  170SAPE    HB19197   1.991  -0.028   6.352  0.4907  0.4214 -2.1201
  170SAPE    C219198   1.818  -0.109   6.467 -0.1175  0.7073 -0.4374
  170SAPE    HS19199   1.755  -0.018   6.484 -0.9282 -0.0718  0.7722
  170SAPE   O2119200   1.904  -0.149   6.580 -0.4722  0.1540 -0.1778
  170SAPE   C2119201   1.980  -0.046   6.624  1.1684  0.6287 -0.7077
  170SAPE   O2219202   1.956   0.070   6.593 -0.7428  0.0712 -0.0514
  170SAPE   C2219203   2.076  -0.099   6.729  0.3646 -0.1471  0.1677
  170SAPE   H2R19204   2.096  -0.207   6.714  1.1189  0.2578 -1.8693
  170SAPE   H2S19205   2.169  -0.043   6.704 -0.0716  0.4529 -0.1281
  170SAPE    C319206   1.711  -0.226   6.433 -0.8553 -0.9575  0.1610
  170SAPE    HX19207   1.770  -0.310   6.390 -0.2359 -0.3042 -0.2805
  170SAPE    HY19208   1.645  -0.180   6.356  0.3181 -0.8920 -0.8275
  170SAPE   O3119209   1.628  -0.273   6.544 -0.0098 -0.4240 -0.1301
  170SAPE   C3119210   1.548  -0.370   6.520  0.3301 -0.3707 -0.4961
  170SAPE   O3219211   1.530  -0.422   6.411  0.3342 -0.4448 -0.3576
  170SAPE   C3219212   1.468  -0.402   6.649  0.9568  0.2485  0.0818
  170SAPE   H2X19213   1.430  -0.308   6.693  1.1409  0.7399 -0.8010
  170SAPE   H2Y19214   1.544  -0.453   6.713  0.4298 -0.9891 -0.2592
  170SAPE   C2319215   2.026  -0.081   6.873 -0.4089  0.7253 -0.3829
  170SAPE   H3R19216   1.919  -0.107   6.888  0.7651 -2.9984  2.3943
  170SAPE   H3S19217   2.038   0.027   6.895  2.2592  0.9775 -2.7269
  170SAPE   C2419218   2.103  -0.161   6.976 -0.3551  0.5563 -0.2875
  170SAPE   H4R19219   2.120  -0.259   6.927 -4.3243  0.9458 -2.6710
  170SAPE   H4S19220   2.048  -0.169   7.072  1.3553 -0.5007  0.6339
  170SAPE   C2519221   2.240  -0.106   6.988  0.1190 -1.0106 -0.6802
  170SAPE   H5R19222   2.292  -0.073   6.896 -2.3689 -1.6214 -2.3522
  170SAPE   C2619223   2.298  -0.083   7.113 -0.2183 -0.7626  0.4875
  170SAPE   H6R19224   2.403  -0.052   7.121 -1.0917  1.9779  2.2723
  170SAPE   C2719225   2.233  -0.114   7.248 -0.3517 -0.3355  0.0584
  170SAPE   H7R19226   2.209  -0.222   7.251 -0.9317 -0.1809  1.6091
  170SAPE   H7S19227   2.130  -0.072   7.246 -1.1961 -2.4301 -2.0885
  170SAPE   C2819228   2.309  -0.078   7.368  0.0917  0.6527 -0.8297
  170SAPE   H8R19229   2.418  -0.066   7.355  0.3077  0.2638  0.5422
  170SAPE   C2919230   2.263  -0.066   7.495 -1.1232 -0.3961  1.0892
  170SAPE   H9R19231   2.333  -0.028   7.571  1.0589  1.0093 -1.5515
  170SAPE  C21019232   2.115  -0.069   7.539  0.3430 -0.0836 -0.0111
  170SAPE  H10R19233   2.081  -0.170   7.573 -0.6406  0.1588 -0.2437
  170SAPE  H10S19234   2.059  -0.042   7.447  0.2105  0.3662  0.1987
  170SAPE  C21119235   2.065   0.031   7.646  0.0514  0.5743  0.1312
  170SAPE  H11R19236   2.020   0.124   7.607  0.6119  0.7956  0.0003
  170SAPE  C21219237   2.084   0.025   7.776  0.0140 -0.0346 -0.0126
  170SAPE  H12R19238   2.044   0.112   7.831 -2.6941 -0.4036 -1.3292
  170SAPE  C21319239   2.163  -0.087   7.848  0.4005  0.2623  0.0496
  170SAPE  H13R19240   2.179  -0.175   7.781  2.5705  0.3309  0.4504
  170SAPE  H13S19241   2.103  -0.128   7.932 -0.2512 -1.5452 -1.2509
  170SAPE  C21419242   2.299  -0.025   7.887 -0.3285  0.3262  0.2227
  170SAPE  H14R19243   2.369  -0.026   7.802  3.0351  1.4328  2.8773
  170SAPE  C21519244   2.341   0.029   8.003  0.1269 -0.0048  0.1599
  170SAPE  H15R19245   2.447   0.058   8.012  0.2782  0.0696 -1.8134
  170SAPE  C21619246   2.255   0.029   8.130 -0.0722  0.0049 -0.9141
  170SAPE  H16R19247   2.153  -0.008   8.108  0.7797 -3.9225  1.1466
  170SAPE  H16S19248   2.251   0.136   8.159  3.0619  0.4967 -2.0282
  170SAPE  C21719249   2.318  -0.041   8.248  0.3951 -0.4553  0.2259
  170SAPE  H17R19250   2.423  -0.007   8.256  0.1838  0.5989 -1.1996
  170SAPE  H17S19251   2.323  -0.151   8.234 -2.0181 -0.6339  0.4454
  170SAPE  C21819252   2.237   0.004   8.375 -0.5636  0.0283 -0.3405
  170SAPE  H18R19253   2.241   0.115   8.385 -0.4879 -0.0085  0.0699
  170SAPE  H18S19254   2.303  -0.026   8.460 -1.2836  3.4432  1.5280
  170SAPE  C21919255   2.101  -0.061   8.403  0.5067  0.5039 -0.0348
  170SAPE  H19R19256   2.094  -0.158   8.350  0.8859 -0.0722  0.9629
  170SAPE  H19S19257   2.024  -0.012   8.339 -1.9969 -1.8296  1.1125
  170SAPE  C22019258   2.065  -0.080   8.553 -0.2947  0.1958 -0.2339
  170SAPE  H20R19259   1.963  -0.124   8.561  0.2737 -0.9449  0.7883
  170SAPE  H20S19260   2.083   0.011   8.614 -0.8486  1.4744 -1.9159
  170SAPE  H20T19261   2.139  -0.151   8.595  0.7063  1.0814 -0.4696
  170SAPE   C3319262   1.356  -0.507   6.630  1.1389  0.1035  0.1660
  170SAPE   H3X19263   1.402  -0.604   6.601  0.0412  0.2692 -2.2903
  170SAPE   H3Y19264   1.288  -0.476   6.547 -1.1691  0.7468  2.2520
  170SAPE   C3419265   1.279  -0.534   6.760  0.3637  0.3224  0.5964
  170SAPE   H4X19266   1.209  -0.619   6.745  0.3622  0.8331 -2.5579
  170SAPE   H4Y19267   1.218  -0.447   6.792  1.9314  2.3669 -1.7859
  170SAPE   C3519268   1.381  -0.589   6.865 -0.3816 -0.3864  0.7182
  170SAPE   H5X19269   1.445  -0.512   6.912 -3.3964  2.3115  0.6067
  170SAPE   H5Y19270   1.445  -0.673   6.831 -1.1089 -0.9571  0.7390
  170SAPE   C3619271   1.309  -0.647   6.986 -0.4793  0.1351  0.1525
  170SAPE   H6X19272   1.240  -0.731   6.963 -1.1616  0.8328 -0.3738
  170SAPE   H6Y19273   1.239  -0.571   7.027  0.3145  1.0588 -0.1578
  170SAPE   C3719274   1.399  -0.700   7.098  0.1621 -0.3799  0.3580
  170SAPE   H7X19275   1.439  -0.618   7.160  0.4413  0.2969 -0.7007
  170SAPE   H7Y19276   1.488  -0.745   7.049  2.3862  1.8592  2.2475
  170SAPE   C3819277   1.339  -0.807   7.185  0.4124 -0.1592  0.0432
  170SAPE   H8X19278   1.402  -0.819   7.276 -0.6749 -2.1900  0.5628
  170SAPE   H8Y19279   1.342  -0.899   7.123 -0.0576 -1.4302  1.8601
  170SAPE   C3919280   1.198  -0.785   7.233  0.0359  0.4724 -0.1552
  170SAPE   H9X19281   1.135  -0.804   7.143 -0.2028  1.4098 -0.1929
  170SAPE   H9Y19282   1.175  -0.680   7.261 -1.3719  0.2459 -0.4262
  170SAPE  C31019283   1.155  -0.863   7.363  0.1964  0.3565 -0.6632
  170SAPE  H10X19284   1.204  -0.962   7.356 -0.4510 -0.1466  1.5142
  170SAPE  H10Y19285   1.045  -0.881   7.364  0.4235 -1.2012 -1.6451
  170SAPE  C31119286   1.201  -0.790   7.493  0.4100 -0.2249  0.2428
  170SAPE  H11X19287   1.171  -0.684   7.488  1.7140  0.1069 -1.4668
  170SAPE  H11Y19288   1.312  -0.803   7.501  0.4822  0.9748  1.2947
  170SAPE  C31219289   1.135  -0.854   7.608 -0.5246 -0.2914 -0.1764
  170SAPE  H12X19290   1.174  -0.958   7.604  3.6564  1.1673 -0.0012
  170SAPE  H12Y19291   1.024  -0.855   7.603 -0.5804 -0.4785  0.8955
  170SAPE  C31319292   1.171  -0.797   7.743 -0.7683  0.0373 -0.3414
  170SAPE  H13X19293   1.159  -0.686   7.742 -2.8534 -0.1570 -2.9063
  170SAPE  H13Y19294   1.274  -0.818   7.778 -1.0214  1.7857  1.5470
  170SAPE  C31419295   1.086  -0.846   7.861 -0.4023 -0.1304 -0.8997
  170SAPE  H14X19296   1.101  -0.953   7.885  2.1362  0.3638 -0.1297
  170SAPE  H14Y19297   0.976  -0.833   7.863 -0.3553  0.1913  0.0291
  170SAPE  C31519298   1.130  -0.786   7.994 -0.1990 -0.6341 -0.7809
  170SAPE  H15X19299   1.108  -0.677   7.991  0.3940 -0.5047 -0.4631
  170SAPE  H15Y19300   1.240  -0.795   7.992 -0.1337 -0.2890  0.6600
  170SAPE  C31619301   1.059  -0.856   8.109 -0.2464  0.2928  0.9179
  170SAPE  H16X19302   1.088  -0.963   8.110 -0.4171  0.2502  1.3240
  170SAPE  H16Y19303   0.948  -0.851   8.102 -0.6603 -2.8910  3.9187
  170SAPE  C31719304   1.101  -0.784   8.240  0.5256  0.0748 -0.5341
  170SAPE  H17X19305   1.095  -0.674   8.222 -1.3435  0.5202  2.4998
  170SAPE  H17Y19306   1.203  -0.808   8.277  0.4099  0.1830 -0.1500
  170SAPE  C31819307   1.015  -0.818   8.363 -0.0777  0.2130  0.0431
  170SAPE  H18X19308   1.005  -0.926   8.387 -2.2494  0.1222 -1.1472
  170SAPE  H18Y19309   0.912  -0.781   8.344 -0.0128  0.2580 -0.2251
  170SAPE  H18Z19310   1.055  -0.767   8.453 -0.4514 -0.1556  0.4279
  171SAPE     N19311   3.443   6.743   6.174  0.0351 -0.1650 -0.5151
  171SAPE   HN119312   3.547   6.740   6.174  0.0836 -0.3543  2.6033
  171SAPE   HN219313   3.396   6.757   6.266  1.2977 -0.0042  0.1051
  171SAPE   HN319314   3.415   6.648   6.144 -0.0199 -0.2289 -0.2643
  171SAPE   C1219315   3.379   6.836   6.079  0.1095 -0.3728  0.4183
  171SAPE  H12A19316   3.282   6.791   6.048 -0.9548 -0.3916  3.5841
  171SAPE  H12B19317   3.442   6.842   5.988  0.4923 -1.7363  0.5799
  171SAPE   C1119318   3.364   6.976   6.141  0.6173  0.4653  0.3391
  171SAPE  H11A19319   3.319   7.026   6.052 -1.6962  0.8096  1.6536
  171SAPE  H11B19320   3.461   7.026   6.158  0.3727  1.0584  0.0341
  171SAPE     P19321   3.270   7.089   6.357  0.1101 -0.0578 -0.5622
  171SAPE   O1319322   3.224   7.214   6.299 -0.4966 -0.3464  0.1006
  171SAPE   O1419323   3.187   7.034   6.470  0.2502 -0.4406  0.4648
  171SAPE   O1219324   3.276   6.975   6.248  0.3887 -0.5610 -0.0646
  171SAPE   O1119325   3.422   7.108   6.402 -0.0876  0.2240 -0.1631
  171SAPE    C119326   3.472   7.011   6.490  0.1245  0.0272  0.4823
  171SAPE    HA19327   3.435   6.910   6.463  0.8133 -0.1862  0.3299
  171SAPE    HB19328   3.580   6.995   6.470  0.1734 -0.1335  0.8764
  171SAPE    C219329   3.453   7.043   6.640 -0.1564  0.8425 -0.4826
  171SAPE    HS19330   3.345   7.048   6.664 -0.1913  0.7246 -0.6196
  171SAPE   O2119331   3.529   7.165   6.673 -0.0881 -0.1034  0.2869
  171SAPE   C2119332   3.452   7.275   6.679  0.4907  0.8873  0.1892
  171SAPE   O2219333   3.335   7.268   6.703 -0.0495  0.0503 -0.1441
  171SAPE   C2219334   3.543   7.399   6.680 -0.4239  0.0217  0.0775
  171SAPE   H2R19335   3.641   7.351   6.660 -0.3080  0.0945  0.4594
  171SAPE   H2S19336   3.517   7.460   6.591  0.7998 -0.3540 -0.5474
  171SAPE    C319337   3.505   6.930   6.736 -0.0533 -0.0871  0.2625
  171SAPE    HX19338   3.612   6.933   6.705 -0.3675  0.6335 -0.7576
  171SAPE    HY19339   3.467   6.826   6.731  2.8358 -1.0989 -1.3638
  171SAPE   O3119340   3.511   6.975   6.871 -0.2897  0.4877 -0.5393
  171SAPE   C3119341   3.391   6.967   6.935  0.0375 -0.2777 -0.1484
  171SAPE   O3219342   3.285   6.932   6.885  0.6491  0.2460 -0.2510
  171SAPE   C3219343   3.406   7.011   7.081  0.4449  0.1203 -0.3965
  171SAPE   H2X19344   3.450   7.111   7.061 -0.4324  0.6150  0.1279
  171SAPE   H2Y19345   3.486   6.946   7.123 -0.8471 -0.7960  0.6923
  171SAPE   C2319346   3.524   7.486   6.807  0.0112 -0.0251 -0.0367
  171SAPE   H3R19347   3.427   7.539   6.801  0.4644  0.8716  0.4144
  171SAPE   H3S19348   3.600   7.567   6.806  0.4530 -0.3572  2.1937
  171SAPE   C2419349   3.546   7.427   6.950  0.8655 -0.3015  0.5506
  171SAPE   H4R19350   3.635   7.361   6.953  0.9867 -0.1235  0.8525
  171SAPE   H4S19351   3.460   7.356   6.947  3.0736 -2.9991 -2.0184
  171SAPE   C2519352   3.543   7.530   7.060 -0.0197  0.6099  0.6286
  171SAPE   H5R19353   3.633   7.594   7.063  2.3995 -2.4828 -2.0070
  171SAPE   C2619354   3.450   7.532   7.162 -0.3818  0.3332  0.0160
  171SAPE   H6R19355   3.467   7.600   7.247  0.2033  0.2456 -0.0275
  171SAPE   C2719356   3.338   7.436   7.187 -0.0727 -0.0298  0.7610
  171SAPE   H7R19357   3.381   7.356   7.252  0.9552 -0.2799 -0.2174
  171SAPE   H7S19358   3.316   7.376   7.096  2.7313 -1.0199  0.6800
  171SAPE   C2819359   3.211   7.500   7.223 -0.3352 -0.7730 -0.2264
  171SAPE   H8R19360   3.170   7.556   7.138 -0.2817  0.2488  0.4163
  171SAPE   C2919361   3.148   7.485   7.341 -0.2614  0.2435 -0.2979
  171SAPE   H9R19362   3.045   7.523   7.345  0.7618  3.0024  2.5884
  171SAPE  C21019363   3.180   7.413   7.468 -0.1596  0.0436  0.5753
  171SAPE  H10R19364   3.284   7.376   7.465 -0.3254 -0.3267 -1.0013
  171SAPE  H10S19365   3.113   7.325   7.472 -0.4513  0.2432  0.1951
  171SAPE  C21119366   3.149   7.511   7.585 -0.1591  1.3799  0.0418
  171SAPE  H11R19367   3.057   7.571   7.582 -0.3167  1.0912 -1.5041
  171SAPE  C21219368   3.235   7.551   7.677  0.6686  0.0160 -0.2917
  171SAPE  H12R19369   3.197   7.628   7.746 -0.6676 -0.3690 -0.5745
  171SAPE  C21319370   3.375   7.503   7.706  0.4415  0.1066 -0.4178
  171SAPE  H13R19371   3.411   7.574   7.783  1.5090 -0.5938 -0.2536
  171SAPE  H13S19372   3.437   7.520   7.615  1.1538 -0.9725 -0.1368
  171SAPE  C21419373   3.389   7.360   7.755 -0.4666  0.1087 -0.0301
  171SAPE  H14R19374   3.387   7.283   7.676  1.4071  0.3486 -0.3480
  171SAPE  C21519375   3.393   7.313   7.880 -0.5147 -0.3579  0.4384
  171SAPE  H15R19376   3.384   7.203   7.884  1.3785 -0.9366 -5.9243
  171SAPE  C21619377   3.386   7.389   8.008  0.1440 -1.1060  0.2314
  171SAPE  H16R19378   3.402   7.494   7.976  1.2548 -0.3054  3.2096
  171SAPE  H16S19379   3.472   7.356   8.070  1.1272 -3.7863 -2.4304
  171SAPE  C21719380   3.259   7.364   8.085 -0.3496  0.0164 -0.5169
  171SAPE  H17R19381   3.254   7.260   8.122 -1.5361  0.5371  0.8524
  171SAPE  H17S19382   3.166   7.379   8.026  0.5683  1.1471 -1.6975
  171SAPE  C21819383   3.253   7.459   8.199 -0.5749  0.3728 -0.7366
  171SAPE  H18R19384   3.230   7.561   8.164 -1.6062  0.5858  0.5221
  171SAPE  H18S19385   3.353   7.462   8.249 -1.7684 -0.5708  1.8065
  171SAPE  C21919386   3.151   7.423   8.308  0.7122  0.0108  0.5300
  171SAPE  H19R19387   3.166   7.313   8.313  0.5091  0.0099  1.1843
  171SAPE  H19S19388   3.051   7.449   8.269  0.7041  0.6116  0.9496
  171SAPE  C22019389   3.172   7.501   8.439  0.5102 -0.0664  0.4613
  171SAPE  H20R19390   3.103   7.471   8.521  0.3059 -0.7084  0.0609
  171SAPE  H20S19391   3.149   7.607   8.418  0.9025 -0.0368  0.1756
  171SAPE  H20T19392   3.277   7.491   8.472 -0.2244 -0.6488  2.7206
  171SAPE   C3319393   3.286   7.019   7.172  0.3317 -1.0071 -0.2287
  171SAPE   H3X19394   3.212   6.939   7.152 -0.4433 -0.1742 -0.7024
  171SAPE   H3Y19395   3.221   7.107   7.158 -0.9969 -1.7572  1.1762
  171SAPE   C3419396   3.324   7.017   7.319  0.4663 -0.0879 -0.5804
  171SAPE   H4X19397   3.396   7.092   7.360 -0.2931 -0.6712  1.9394
  171SAPE   H4Y19398   3.396   6.934   7.335  1.2519  0.3273 -1.9152
  171SAPE   C3519399   3.203   7.024   7.419  0.4365  0.0240  0.0097
  171SAPE   H5X19400   3.121   6.959   7.381 -0.0425 -0.1976  1.4055
  171SAPE   H5Y19401   3.153   7.122   7.431  0.5351  0.2037 -0.9891
  171SAPE   C3619402   3.242   6.972   7.557 -0.1386 -0.2587  0.6731
  171SAPE   H6X19403   3.311   7.053   7.589 -1.0514  0.6143  0.4524
  171SAPE   H6Y19404   3.289   6.871   7.548 -1.6466 -1.1848  2.6940
  171SAPE   C3719405   3.131   6.948   7.667 -0.0376  0.6452  0.0832
  171SAPE   H7X19406   3.065   6.861   7.644 -0.4322  0.3654  2.1428
  171SAPE   H7Y19407   3.068   7.039   7.673  1.1043  1.5742 -1.7891
  171SAPE   C3819408   3.202   6.924   7.804  0.4736 -0.6994 -0.7965
  171SAPE   H8X19409   3.296   6.983   7.806  1.1805 -1.8199 -0.5053
  171SAPE   H8Y19410   3.222   6.816   7.822 -2.6144 -1.3634 -1.1420
  171SAPE   C3919411   3.117   6.959   7.921 -0.7477  0.1164 -0.2204
  171SAPE   H9X19412   3.034   6.886   7.933 -0.6474 -0.1611 -1.1331
  171SAPE   H9Y19413   3.082   7.062   7.896  1.8983  1.2803  0.7747
  171SAPE  C31019414   3.188   6.953   8.063  0.2466  0.0023 -0.0707
  171SAPE  H10X19415   3.266   7.032   8.067  1.9182 -1.4833 -2.1183
  171SAPE  H10Y19416   3.234   6.853   8.077  1.3066  0.5762  0.5540
  171SAPE  C31119417   3.090   6.976   8.180 -0.7800  0.9986 -0.1032
  171SAPE  H11X19418   3.009   6.901   8.190  0.8198 -0.8190 -0.4131
  171SAPE  H11Y19419   3.038   7.074   8.169 -0.6781  1.1771  0.9944
  171SAPE  C31219420   3.160   6.980   8.319  0.0140 -0.5935  0.6815
  171SAPE  H12X19421   3.241   7.053   8.295 -0.1874 -0.5438  0.1506
  171SAPE  H12Y19422   3.204   6.883   8.350 -1.5383 -0.8800  2.0176
  171SAPE  C31319423   3.074   7.036   8.432  0.9393  0.1710  0.5316
  171SAPE  H13X19424   2.996   6.961   8.457 -1.6466  1.6285 -2.7185
  171SAPE  H13Y19425   3.013   7.127   8.409 -0.6270 -0.6679  1.3018
  171SAPE  C31419426   3.147   7.068   8.558 -0.5754  0.4340  0.7145
  171SAPE  H14X19427   3.213   7.155   8.539  1.9027 -2.1048 -2.8745
  171SAPE  H14Y19428   3.207   6.978   8.581  1.2444  1.4675  0.0884
  171SAPE  C31519429   3.052   7.095   8.674  0.6439 -0.1085 -0.0772
  171SAPE  H15X19430   3.113   7.107   8.766 -0.8021  1.4494  0.7155
  171SAPE  H15Y19431   2.971   7.019   8.678 -1.8872  2.4886  0.7498
  171SAPE  C31619432   2.977   7.229   8.660 -0.0745 -0.2342  0.8390
  171SAPE  H16X19433   2.908   7.224   8.573  0.3847  1.1205  0.3812
  171SAPE  H16Y19434   3.058   7.303   8.640 -0.6824  0.1649 -0.1802
  171SAPE  C31719435   2.908   7.273   8.785 -0.4489 -0.8840 -0.0970
  171SAPE  H17X19436   2.985   7.298   8.861 -2.3779 -0.3026  1.7132
  171SAPE  H17Y19437   2.845   7.193   8.831 -2.8352  0.4015 -1.0192
  171SAPE  C31819438   2.818   7.398   8.770  0.4063  1.0251  1.1147
  171SAPE  H18X19439   2.732   7.369   8.707 -0.3124  2.0505  1.6165
  171SAPE  H18Y19440   2.888   7.469   8.720  1.7458 -1.3529 -0.5110
  171SAPE  H18Z19441   2.779   7.440   8.865 -0.6939  2.9734 -0.1657
  172SAPE     N19442   2.574   5.687   5.870 -0.4777  0.5583  0.3437
  172SAPE   HN119443   2.602   5.683   5.770 -0.4412  0.7411  0.3476
  172SAPE   HN219444   2.653   5.732   5.921  1.0866 -0.0092 -1.5349
  172SAPE   HN319445   2.558   5.589   5.903  0.9832 -0.7359 -2.5453
  172SAPE   C1219446   2.454   5.774   5.867  0.5491  0.5342 -0.3932
  172SAPE  H12A19447   2.375   5.708   5.824  1.1462 -0.9530  0.7236
  172SAPE  H12B19448   2.464   5.858   5.796  4.4922  0.2651 -0.2238
  172SAPE   C1119449   2.400   5.802   6.013 -0.4254  0.3834  0.4174
  172SAPE  H11A19450   2.302   5.854   6.000  0.2782  1.2877 -1.4338
  172SAPE  H11B19451   2.480   5.871   6.047 -1.9153  1.9992  0.7932
  172SAPE     P19452   2.400   5.672   6.238  0.2152  0.6961 -0.4145
  172SAPE   O1319453   2.343   5.543   6.286  0.3197  0.2061 -0.4606
  172SAPE   O1419454   2.538   5.692   6.278  0.0837  0.2664  0.3183
  172SAPE   O1219455   2.386   5.680   6.082  0.3013 -0.1394  0.2870
  172SAPE   O1119456   2.323   5.802   6.285 -0.1417  0.1663  0.1521
  172SAPE    C119457   2.216   5.798   6.378  0.0036  0.7508  0.0630
  172SAPE    HA19458   2.141   5.878   6.355 -0.7188  0.1185  0.2048
  172SAPE    HB19459   2.151   5.709   6.387 -0.0819  0.6251 -1.6173
  172SAPE    C219460   2.266   5.815   6.522  0.4351  0.0654 -0.3126
  172SAPE    HS19461   2.297   5.922   6.526  0.3429  0.0780  0.0596
  172SAPE   O2119462   2.371   5.728   6.549 -0.4909 -0.7200 -0.0711
  172SAPE   C2119463   2.473   5.775   6.624  0.3002  0.1186 -0.3863
  172SAPE   O2219464   2.490   5.891   6.662 -0.0646  0.8155  0.4341
  172SAPE   C2219465   2.568   5.660   6.645 -0.1090 -0.5119  0.2044
  172SAPE   H2R19466   2.545   5.575   6.578 -0.7075  1.1745 -1.7673
  172SAPE   H2S19467   2.664   5.702   6.608  0.8819 -3.3194 -0.5345
  172SAPE    C319468   2.143   5.800   6.622  0.9278 -0.0018  0.0891
  172SAPE    HX19469   2.111   5.695   6.606  4.5963 -0.9925 -1.2995
  172SAPE    HY19470   2.063   5.872   6.594 -0.7654 -1.2677  1.5530
  172SAPE   O3119471   2.184   5.824   6.759  0.3520 -0.2341 -0.0097
  172SAPE   C3119472   2.186   5.955   6.789 -0.4277  0.6243 -0.4023
  172SAPE   O3219473   2.175   6.048   6.712 -0.5845 -0.1538  0.0168
  172SAPE   C3219474   2.221   5.982   6.935 -0.5923  0.3357 -0.0939
  172SAPE   H2X19475   2.331   5.996   6.931 -0.7203  1.3028 -0.2723
  172SAPE   H2Y19476   2.205   5.899   7.007  0.5668  0.4797  0.3402
  172SAPE   C2319477   2.590   5.613   6.793 -0.2595  0.4395 -0.4766
  172SAPE   H3R19478   2.595   5.707   6.851  0.2519  2.1562 -3.1878
  172SAPE   H3S19479   2.690   5.565   6.796 -0.9797 -1.0722 -0.3981
  172SAPE   C2419480   2.495   5.503   6.838 -0.3043  0.3359 -0.3638
  172SAPE   H4R19481   2.544   5.442   6.917 -0.1665  1.0586  0.1120
  172SAPE   H4S19482   2.484   5.433   6.753 -1.1936 -0.8695  0.7221
  172SAPE   C2519483   2.353   5.559   6.870 -0.9863 -0.0885 -0.4552
  172SAPE   H5R19484   2.275   5.548   6.793  0.0969  1.3133 -1.7630
  172SAPE   C2619485   2.314   5.606   6.987  0.1819 -0.1322  0.2319
  172SAPE   H6R19486   2.205   5.621   6.988 -0.4218 -3.6789 -1.7563
  172SAPE   C2719487   2.387   5.628   7.118 -0.1188  0.1509  0.3188
  172SAPE   H7R19488   2.453   5.718   7.120  2.7362 -1.8511  0.0322
  172SAPE   H7S19489   2.461   5.546   7.123 -0.0679  0.1360 -0.5274
  172SAPE   C2819490   2.291   5.620   7.234 -0.1644  0.0155 -0.4839
  172SAPE   H8R19491   2.200   5.562   7.214 -1.1709  1.8797 -1.5177
  172SAPE   C2919492   2.306   5.684   7.350  0.2419 -0.3142  0.4077
  172SAPE   H9R19493   2.227   5.671   7.426  0.2357 -0.7952  0.3180
  172SAPE  C21019494   2.421   5.766   7.399  0.1644  0.0321  0.1906
  172SAPE  H10R19495   2.380   5.838   7.474 -1.9172  0.7688 -1.5909
  172SAPE  H10S19496   2.465   5.836   7.325  0.8933 -2.6802 -2.0354
  172SAPE  C21119497   2.529   5.686   7.470  0.7404 -0.0109  0.2867
  172SAPE  H11R19498   2.595   5.617   7.416  2.4888  1.2170  0.7879
  172SAPE  C21219499   2.567   5.685   7.601  0.6095  0.2463  0.2051
  172SAPE  H12R19500   2.670   5.655   7.625  1.4629  0.1664 -3.2348
  172SAPE  C21319501   2.484   5.755   7.712 -0.4601 -0.3165 -0.2511
  172SAPE  H13R19502   2.507   5.863   7.725  1.4254 -0.8426  1.0086
  172SAPE  H13S19503   2.527   5.710   7.804 -0.0171 -1.0047 -0.7864
  172SAPE  C21419504   2.336   5.711   7.721 -0.0457  0.2430  0.5852
  172SAPE  H14R19505   2.314   5.621   7.662 -0.4718  1.5974 -1.3711
  172SAPE  C21519506   2.237   5.756   7.795 -0.2789  0.5793 -0.2038
  172SAPE  H15R19507   2.141   5.705   7.782 -0.5663  1.0116  0.1904
  172SAPE  C21619508   2.248   5.874   7.896  0.2442 -0.1721 -0.0098
  172SAPE  H16R19509   2.202   5.967   7.856  1.8904  0.0850 -1.4171
  172SAPE  H16S19510   2.351   5.916   7.897 -0.2509  1.0839 -0.6302
  172SAPE  C21719511   2.199   5.834   8.035 -0.3406  1.5281  0.0830
  172SAPE  H17R19512   2.213   5.924   8.097 -1.7925  2.1734 -0.4980
  172SAPE  H17S19513   2.266   5.750   8.063  0.2397  0.9971 -2.7391
  172SAPE  C21819514   2.049   5.793   8.048  0.5299  0.8686  0.2847
  172SAPE  H18R19515   2.039   5.724   8.134 -2.1510 -0.3836 -0.9569
  172SAPE  H18S19516   2.014   5.741   7.956 -1.1861  2.4420  0.0179
  172SAPE  C21919517   1.969   5.908   8.080 -0.6230 -0.0717 -0.0110
  172SAPE  H19R19518   1.867   5.884   8.044 -1.1014 -2.1390  2.5289
  172SAPE  H19S19519   2.000   5.992   8.015  1.7868 -1.2320 -0.4190
  172SAPE  C22019520   1.960   5.942   8.231 -0.1339 -0.2328 -0.1120
  172SAPE  H20R19521   1.950   5.844   8.282 -0.2473 -0.6703 -0.9666
  172SAPE  H20S19522   1.888   6.023   8.255 -1.2219 -0.7616 -1.4937
  172SAPE  H20T19523   2.064   5.976   8.252 -0.8102  2.2736 -0.6069
  172SAPE   C3319524   2.145   6.110   6.983 -0.3124 -0.2849 -0.2139
  172SAPE   H3X19525   2.046   6.080   7.022  0.1336 -0.1014  1.0940
  172SAPE   H3Y19526   2.125   6.169   6.891 -1.0879 -0.9305 -0.4620
  172SAPE   C3419527   2.217   6.174   7.103  0.0558 -0.9161 -0.1503
  172SAPE   H4X19528   2.172   6.275   7.110  0.9195 -0.5134 -0.2969
  172SAPE   H4Y19529   2.318   6.197   7.063 -0.7282 -0.5872 -1.9660
  172SAPE   C3519530   2.202   6.094   7.232 -0.7003  0.5732  0.1701
  172SAPE   H5X19531   2.256   5.997   7.228  1.0292  1.3883  2.4822
  172SAPE   H5Y19532   2.095   6.065   7.242 -0.9175  1.0925 -0.5840
  172SAPE   C3619533   2.263   6.170   7.349 -0.8843  0.3309  0.6731
  172SAPE   H6X19534   2.236   6.277   7.330  0.0875  0.4142 -0.3286
  172SAPE   H6Y19535   2.374   6.175   7.343 -0.9312 -0.4297 -1.4812
  172SAPE   C3719536   2.213   6.119   7.487  0.2446  0.4828  0.2637
  172SAPE   H7X19537   2.253   6.016   7.502  1.6014  0.8900 -0.4474
  172SAPE   H7Y19538   2.104   6.102   7.492  0.0779  1.4804 -0.0186
  172SAPE   C3819539   2.234   6.220   7.603 -0.9117 -0.2879  0.9706
  172SAPE   H8X19540   2.195   6.175   7.697  1.1888 -1.6821  1.2088
  172SAPE   H8Y19541   2.171   6.308   7.577 -1.0789 -0.6331  0.1905
  172SAPE   C3919542   2.380   6.261   7.615  0.0853 -0.1310  0.0974
  172SAPE   H9X19543   2.425   6.308   7.525  1.2801 -3.3619 -1.0747
  172SAPE   H9Y19544   2.442   6.171   7.633 -0.3312 -0.4293  0.0333
  172SAPE  C31019545   2.407   6.351   7.732  0.1610  0.7105  0.3795
  172SAPE  H10X19546   2.357   6.449   7.718  1.2196  1.2561  0.3837
  172SAPE  H10Y19547   2.513   6.381   7.720 -0.1958  0.7325 -3.4162
  172SAPE  C31119548   2.379   6.286   7.873  0.1304  0.1082 -0.3916
  172SAPE  H11X19549   2.423   6.183   7.873 -1.2911 -0.5058 -1.1363
  172SAPE  H11Y19550   2.269   6.280   7.885 -0.1665  1.8549 -1.9807
  172SAPE  C31219551   2.445   6.369   7.982  0.4565 -0.1903 -0.2652
  172SAPE  H12X19552   2.407   6.472   7.972 -1.6260 -0.8744  0.4377
  172SAPE  H12Y19553   2.554   6.386   7.968  0.4844  0.5677  0.8441
  172SAPE  C31319554   2.413   6.328   8.124 -0.2620  0.5312  0.0204
  172SAPE  H13X19555   2.306   6.312   8.149  0.4102 -0.4671  2.4180
  172SAPE  H13Y19556   2.437   6.420   8.181 -0.3755  0.7072 -0.2120
  172SAPE  C31419557   2.494   6.213   8.174  0.3803  0.6026 -0.5375
  172SAPE  H14X19558   2.583   6.252   8.228  2.3192 -0.5400 -2.7616
  172SAPE  H14Y19559   2.538   6.164   8.084  2.4290  0.2912  0.6054
  172SAPE  C31519560   2.416   6.127   8.262 -0.1730 -0.3393 -0.0181
  172SAPE  H15X19561   2.325   6.085   8.215 -1.1535  1.0579  0.5874
  172SAPE  H15Y19562   2.397   6.185   8.355  3.8418  1.1049  0.0047
  172SAPE  C31619563   2.497   6.005   8.321  0.1737  0.0509  0.5310
  172SAPE  H16X19564   2.434   5.960   8.400 -0.0175  2.5558  1.8619
  172SAPE  H16Y19565   2.591   6.042   8.367  0.3347  0.5467 -0.1896
  172SAPE  C31719566   2.533   5.903   8.215 -0.0634  0.1212  0.6237
  172SAPE  H17X19567   2.570   5.971   8.136  0.9274  0.0470  1.0178
  172SAPE  H17Y19568   2.449   5.844   8.173  0.4382  0.9503 -1.6013
  172SAPE  C31819569   2.649   5.816   8.266 -0.8726 -0.0591 -0.2694
  172SAPE  H18X19570   2.728   5.883   8.306 -1.7015  0.0126  1.2903
  172SAPE  H18Y19571   2.701   5.758   8.186 -1.0207 -1.1472  0.4068
  172SAPE  H18Z19572   2.621   5.746   8.348  1.4478 -1.1972 -0.4225
  173SOPE     N19573   2.320   3.083  11.001  0.4171 -0.2894  0.2016
  173SOPE   HN119574   2.352   3.161  11.062 -1.9945  2.0142 -1.3326
  173SOPE   HN219575   2.223   3.057  11.028 -0.3237  2.2267  0.1645
  173SOPE   HN319576   2.379   3.001  11.025 -1.4439 -2.2944 -1.8343
  173SOPE   C1219577   2.344   3.094  10.858 -0.2581  0.3476  0.6088
  173SOPE  H12A19578   2.291   3.184  10.821 -1.8666 -0.6719  0.3682
  173SOPE  H12B19579   2.319   2.999  10.807 -1.1716  0.4142  0.9053
  173SOPE   C1119580   2.502   3.116  10.830 -0.2309  0.2177  0.0486
  173SOPE  H11A19581   2.511   3.093  10.722 -1.1620  1.5445 -0.3185
  173SOPE  H11B19582   2.562   3.042  10.888  0.7773  1.6014  0.8025
  173SOPE     P19583   2.679   3.307  10.882 -0.2712  0.7622  0.1561
  173SOPE   O1319584   2.737   3.243  11.005  0.2253 -0.2766  0.9045
  173SOPE   O1419585   2.644   3.450  10.883  0.5251 -0.7782 -0.1152
  173SOPE   O1219586   2.533   3.252  10.861 -0.3748  0.0487 -0.3210
  173SOPE   O1119587   2.757   3.265  10.754 -0.0982  0.3135  0.5142
  173SOPE    C119588   2.698   3.252  10.624  0.5552 -0.6141 -0.0785
  173SOPE    HA19589   2.588   3.237  10.633  0.6270 -0.6184  0.8334
  173SOPE    HB19590   2.744   3.163  10.576  0.9173 -0.8886  0.7761
  173SOPE    C219591   2.727   3.378  10.540  0.1507  0.1111 -0.7494
  173SOPE    HS19592   2.686   3.465  10.595 -0.4871  0.1930 -1.3443
  173SOPE   O2119593   2.663   3.358  10.418 -0.3514  0.3481 -0.0781
  173SOPE   C2119594   2.680   3.462  10.334 -0.7056  0.0014 -0.8286
  173SOPE   O2219595   2.723   3.570  10.358  0.3243 -0.0373  0.2976
  173SOPE   C2219596   2.629   3.413  10.192  0.1492 -0.2591 -0.5106
  173SOPE   H2R19597   2.543   3.479  10.166  0.6986  0.0386 -1.6120
  173SOPE   H2S19598   2.611   3.303  10.199 -1.4901  0.0656  0.6887
  173SOPE    C319599   2.885   3.398  10.532 -0.1022  0.2726 -0.0477
  173SOPE    HX19600   2.915   3.426  10.635  0.7670  3.6235 -1.1417
  173SOPE    HY19601   2.909   3.480  10.460 -2.2480  1.2814  0.3494
  173SOPE   O3119602   2.938   3.270  10.497  0.4822 -0.0302  0.9142
  173SOPE   C3119603   3.006   3.258  10.382 -0.0141  0.4308 -0.4485
  173SOPE   O3219604   3.027   3.348  10.302  0.6433  0.3570 -0.2064
  173SOPE   C3219605   3.058   3.116  10.357  0.4305  0.4654 -0.5118
  173SOPE   H2X19606   3.090   3.074  10.454  0.4929 -1.9617 -1.5400
  173SOPE   H2Y19607   3.158   3.134  10.313  0.9269 -0.7044  0.1245
  173SOPE   C2319608   2.730   3.434  10.078  0.2766 -0.7479 -0.2501
  173SOPE   H3R19609   2.831   3.395  10.104 -0.3869  0.1306  3.8777
  173SOPE   H3S19610   2.747   3.543  10.066  0.2397 -0.7133  0.0177
  173SOPE   C2419611   2.684   3.378   9.949 -0.8761  0.6792  0.1016
  173SOPE   H4R19612   2.730   3.278   9.935  0.9945  1.3684  1.1118
  173SOPE   H4S19613   2.575   3.365   9.929 -0.5416 -0.1426 -1.2622
  173SOPE   C2519614   2.748   3.457   9.832  0.1268  0.3104 -0.5596
  173SOPE   H5R19615   2.710   3.560   9.814 -0.2790  0.1220 -0.7970
  173SOPE   H5S19616   2.854   3.467   9.864 -0.2823  2.6024  0.1530
  173SOPE   C2619617   2.761   3.383   9.699 -0.5387 -0.2329 -0.0427
  173SOPE   H6R19618   2.658   3.361   9.664 -0.7869  0.2702  0.3719
  173SOPE   H6S19619   2.805   3.450   9.621 -2.4269  1.5114  0.3598
  173SOPE   C2719620   2.837   3.247   9.696 -0.6797  0.4466 -0.3831
  173SOPE   H7R19621   2.944   3.268   9.715 -1.3276  2.0149  1.6672
  173SOPE   H7S19622   2.788   3.187   9.776  0.1696 -0.3836 -0.4720
  173SOPE   C2819623   2.834   3.153   9.574  0.4429 -0.4448 -0.0103
  173SOPE   H8R19624   2.729   3.117   9.563 -0.7327  3.0832 -0.9897
  173SOPE   H8S19625   2.856   3.213   9.483  0.2982  0.7783  0.7559
  173SOPE   C2919626   2.943   3.048   9.588  0.0175 -0.2039  0.4358
  173SOPE   H9119627   2.928   2.981   9.675  0.3945 -1.2045 -0.2586
  173SOPE  C21019628   3.046   3.023   9.503  0.2470  0.1961  0.6604
  173SOPE  H10119629   3.115   2.939   9.522  0.9763  0.4410 -0.8430
  173SOPE  C21119630   3.074   3.096   9.376  0.3660 -0.2312 -0.4757
  173SOPE  H11R19631   3.183   3.111   9.362  0.1073  1.5473 -0.6478
  173SOPE  H11S19632   3.029   3.197   9.365 -1.2486 -0.7657  0.9170
  173SOPE  C21219633   3.034   3.009   9.252 -0.6484 -0.2041 -0.4460
  173SOPE  H12R19634   2.927   2.978   9.248 -1.2235  1.6581 -0.0302
  173SOPE  H12S19635   3.095   2.919   9.270 -0.6140  0.1833  1.4180
  173SOPE  C21319636   3.083   3.075   9.127 -0.1765  0.3221  0.7888
  173SOPE  H13R19637   3.106   2.991   9.057 -1.2666  0.6856 -0.0223
  173SOPE  H13S19638   3.174   3.136   9.143  1.9413 -1.7062 -2.8033
  173SOPE  C21419639   2.993   3.181   9.062 -0.4578 -0.5355  0.2052
  173SOPE  H14R19640   3.041   3.225   8.972  0.4763 -0.8139  0.5550
  173SOPE  H14S19641   2.991   3.269   9.130 -0.8975  0.1885 -0.7452
  173SOPE  C21519642   2.857   3.132   9.014  0.0466 -0.2387  0.6001
  173SOPE  H15R19643   2.783   3.212   8.992  1.0000  0.2280 -0.9257
  173SOPE  H15S19644   2.815   3.068   9.095  1.9541 -1.4235  0.6809
  173SOPE  C21619645   2.867   3.038   8.896  1.1335 -0.2776  0.6515
  173SOPE  H16R19646   2.955   2.973   8.910 -0.3756 -2.5800 -0.2382
  173SOPE  H16S19647   2.886   3.090   8.800  1.1851  1.6975  1.7107
  173SOPE  C21719648   2.739   2.942   8.891 -0.4197  0.0558  0.1916
  173SOPE  H17R19649   2.644   2.999   8.887 -0.3061  0.2735  0.6503
  173SOPE  H17S19650   2.736   2.872   8.976 -1.2548 -0.7486 -0.4956
  173SOPE  C21819651   2.759   2.850   8.771  1.6219 -0.1110 -0.3127
  173SOPE  H18R19652   2.665   2.795   8.748  0.6653  1.1686  0.4760
  173SOPE  H18S19653   2.845   2.781   8.782  1.0499 -1.2312 -2.4535
  173SOPE  H18T19654   2.784   2.910   8.681 -0.0055 -0.9118 -1.3278
  173SOPE   C3319655   2.967   3.024  10.277 -0.5295  0.1598 -0.2721
  173SOPE   H3X19656   2.861   3.027  10.313 -1.0055  1.2618 -1.7032
  173SOPE   H3Y19657   2.990   2.917  10.295 -1.4236 -0.1082 -0.6752
  173SOPE   C3419658   2.947   3.053  10.128 -0.3765  0.6767  0.4808
  173SOPE   H4X19659   3.048   3.051  10.082  0.5571  0.1965  2.4697
  173SOPE   H4Y19660   2.898   3.151  10.113 -2.2066 -0.0975  1.1321
  173SOPE   C3519661   2.862   2.936  10.060 -0.1021 -0.4209  0.5517
  173SOPE   H5X19662   2.858   2.962   9.952 -2.2633 -0.5895  0.5696
  173SOPE   H5Y19663   2.763   2.938  10.110 -1.6050  0.4664 -2.3119
  173SOPE   C3619664   2.912   2.794  10.069 -0.2246 -0.2606  0.1739
  173SOPE   H6X19665   2.884   2.747  10.166 -1.2875 -2.3950 -1.1242
  173SOPE   H6Y19666   3.023   2.798  10.066 -0.2474 -0.2064 -1.0100
  173SOPE   C3719667   2.856   2.706   9.954  0.6438 -0.0993 -0.1135
  173SOPE   H7X19668   2.903   2.606   9.966 -0.9788 -0.8219  0.3625
  173SOPE   H7Y19669   2.895   2.747   9.859  0.8243  1.1152  0.4797
  173SOPE   C3819670   2.706   2.685   9.945 -0.2797 -0.9409 -0.8381
  173SOPE   H8X19671   2.650   2.780   9.925  1.6993  0.0981 -1.5665
  173SOPE   H8Y19672   2.663   2.631  10.032 -0.6506 -0.0932 -0.4841
  173SOPE   C3919673   2.676   2.601   9.821 -0.0335  0.1150  0.1482
  173SOPE   H9X19674   2.575   2.560   9.843  0.5975 -0.8890  1.1744
  173SOPE   H9Y19675   2.735   2.508   9.807  0.0484  0.0906  0.6553
  173SOPE  C31019676   2.660   2.687   9.697  0.0081  0.7130 -0.6868
  173SOPE  H10X19677   2.745   2.757   9.688 -0.9608  2.3528  2.3252
  173SOPE  H10Y19678   2.565   2.745   9.706 -0.3142  0.2239 -0.8701
  173SOPE  C31119679   2.649   2.599   9.568 -0.2147  0.7199  0.1983
  173SOPE  H11X19680   2.742   2.538   9.561 -0.0784  0.6623  2.0479
  173SOPE  H11Y19681   2.636   2.663   9.479  1.7973  1.4213  0.3765
  173SOPE  C31219682   2.535   2.492   9.562 -0.7228 -0.4663  0.3685
  173SOPE  H12X19683   2.532   2.448   9.664  0.5150  0.6443  0.8976
  173SOPE  H12Y19684   2.557   2.413   9.487 -1.4951 -1.0274  0.7245
  173SOPE  C31319685   2.401   2.555   9.541  0.1700 -0.1140 -1.0513
  173SOPE  H13X19686   2.413   2.629   9.459 -1.4768  0.5039 -0.7440
  173SOPE  H13Y19687   2.369   2.611   9.632 -0.5517 -0.4441 -1.0973
  173SOPE  C31419688   2.287   2.461   9.486 -1.1258  0.9249  0.2944
  173SOPE  H14X19689   2.189   2.509   9.506 -2.0570 -1.8021  2.5711
  173SOPE  H14Y19690   2.283   2.366   9.544 -1.9706  0.9413  0.2751
  173SOPE  C31519691   2.307   2.411   9.338  0.1077  0.6355 -0.3551
  173SOPE  H15X19692   2.218   2.347   9.319  1.8648 -2.0044  0.0445
  173SOPE  H15Y19693   2.397   2.347   9.329 -0.7105 -0.6276  0.2750
  173SOPE  C31619694   2.306   2.526   9.229 -0.2562 -0.0390  0.7563
  173SOPE  H16X19695   2.395   2.592   9.236  1.7214 -2.4354 -1.0982
  173SOPE  H16Y19696   2.211   2.578   9.256 -1.3577 -1.7464  0.2243
  173SOPE  C31719697   2.316   2.478   9.086 -0.4687  0.8679  0.4049
  173SOPE  H17X19698   2.222   2.423   9.064 -2.1233  2.6297  2.6975
  173SOPE  H17Y19699   2.400   2.406   9.086 -1.9735 -0.9225  0.7754
  173SOPE  C31819700   2.329   2.591   8.987 -0.4511  0.3173  0.1862
  173SOPE  H18X19701   2.325   2.549   8.884  0.4911  0.7804 -0.0477
  173SOPE  H18Y19702   2.423   2.650   9.001 -0.4661  0.4581 -0.2880
  173SOPE  H18Z19703   2.247   2.664   8.997  1.7441  2.9278 -0.2408
  174SOPE     N19704   2.908   3.154  11.194 -0.3605 -0.7180 -0.6152
  174SOPE   HN119705   2.879   3.075  11.255  2.2649  0.4596  2.3454
  174SOPE   HN219706   2.899   3.240  11.253  1.3672  0.5511 -2.1652
  174SOPE   HN319707   2.842   3.173  11.116 -1.6542 -0.6528  0.4776
  174SOPE   C1219708   3.049   3.143  11.132 -0.5022 -0.1291  0.2016
  174SOPE  H12A19709   3.121   3.152  11.217  0.2873  1.8537 -0.6392
  174SOPE  H12B19710   3.056   3.240  11.078  0.6946  0.4105  1.3032
  174SOPE   C1119711   3.080   3.008  11.064 -0.1352 -0.2958  0.7115
  174SOPE  H11A19712   3.068   2.931  11.144  2.7487 -3.0050 -1.3268
  174SOPE  H11B19713   3.183   2.993  11.026 -0.9232 -2.8658 -0.5134
  174SOPE     P19714   2.986   2.839  10.908  0.0476  0.1092  0.4092
  174SOPE   O1319715   2.948   2.741  11.013  0.5130  0.1146  0.0120
  174SOPE   O1419716   3.105   2.809  10.832  0.4017  0.5731 -0.6356
  174SOPE   O1219717   2.985   2.984  10.963  0.7517 -0.3868 -0.7041
  174SOPE   O1119718   2.868   2.839  10.811 -0.7300 -0.0929  0.1646
  174SOPE    C119719   2.874   2.902  10.679  0.0078 -0.4740 -0.8475
  174SOPE    HA19720   2.970   2.958  10.669 -0.0029 -0.5347 -1.3105
  174SOPE    HB19721   2.792   2.977  10.675  0.3798  0.0470  1.1248
  174SOPE    C219722   2.869   2.808  10.561 -0.3587  0.1556 -0.3295
  174SOPE    HS19723   2.883   2.870  10.470  0.8162  1.3831  0.6638
  174SOPE   O2119724   2.747   2.727  10.567 -0.1010 -0.7558 -0.0590
  174SOPE   C2119725   2.632   2.785  10.536 -0.9520  0.2889 -0.1222
  174SOPE   O2219726   2.630   2.902  10.499 -0.3857 -0.6890 -0.0625
  174SOPE   C2219727   2.510   2.701  10.553 -0.2965 -0.3126  0.5367
  174SOPE   H2R19728   2.428   2.755  10.604 -0.1430 -0.7672  1.2810
  174SOPE   H2S19729   2.544   2.608  10.604 -1.4511 -0.6012  0.7814
  174SOPE    C319730   2.995   2.712  10.570  0.3505 -0.5262 -0.0663
  174SOPE    HX19731   2.976   2.640  10.653 -1.2164  1.6114  1.5021
  174SOPE    HY19732   3.083   2.778  10.586 -1.1616  1.6901 -0.5820
  174SOPE   O3119733   3.005   2.640  10.446  0.3747 -0.2086  0.0650
  174SOPE   C3119734   2.966   2.520  10.428 -0.0681 -0.3467 -0.1375
  174SOPE   O3219735   2.892   2.461  10.512 -0.1275 -0.0080  0.2201
  174SOPE   C3219736   3.002   2.471  10.283  0.2332  0.4608 -0.3704
  174SOPE   H2X19737   3.112   2.458  10.286 -0.0383 -2.4350 -0.9853
  174SOPE   H2Y19738   2.974   2.559  10.221  0.5674 -0.3359 -1.6845
  174SOPE   C2319739   2.443   2.655  10.413  0.1180  0.4650 -0.7553
  174SOPE   H3R19740   2.398   2.741  10.358 -1.8101  0.7958  1.2642
  174SOPE   H3S19741   2.363   2.588  10.450  1.0617  0.7417  1.8696
  174SOPE   C2419742   2.543   2.570  10.334 -0.1272  0.2184  0.0637
  174SOPE   H4R19743   2.599   2.645  10.275  0.0148 -0.4325 -0.6248
  174SOPE   H4S19744   2.624   2.519  10.390 -1.1629 -0.2576  1.1535
  174SOPE   C2519745   2.482   2.466  10.238  0.2877  0.0080 -0.1507
  174SOPE   H5R19746   2.562   2.413  10.181  0.9185  0.9889 -0.1934
  174SOPE   H5S19747   2.417   2.390  10.287  2.0482 -1.6963 -0.3958
  174SOPE   C2619748   2.387   2.533  10.129  0.1561 -1.6518  0.5157
  174SOPE   H6R19749   2.308   2.592  10.181 -0.0589 -0.0156 -1.6152
  174SOPE   H6S19750   2.434   2.610  10.064 -0.9080 -0.1657  1.4695
  174SOPE   C2719751   2.319   2.435  10.034  0.1054  0.1885 -0.1260
  174SOPE   H7R19752   2.394   2.380   9.975  0.1072  0.1306 -0.0707
  174SOPE   H7S19753   2.259   2.362  10.092  1.1347  0.7135  1.6375
  174SOPE   C2819754   2.233   2.501   9.929  0.7577 -0.5329  0.4084
  174SOPE   H8R19755   2.144   2.540   9.982 -0.2043  1.0920 -2.2833
  174SOPE   H8S19756   2.274   2.600   9.898 -1.0811  0.1545  0.0813
  174SOPE   C2919757   2.214   2.407   9.814 -0.1069  1.0561 -0.1617
  174SOPE   H9119758   2.310   2.377   9.769  0.0940  1.6649 -0.1393
  174SOPE  C21019759   2.103   2.358   9.762 -0.0660 -0.5164 -0.0027
  174SOPE  H10119760   2.120   2.294   9.674  0.4136  0.5140 -0.6655
  174SOPE  C21119761   1.964   2.400   9.801  0.4234  0.3025  0.2965
  174SOPE  H11R19762   1.943   2.438   9.904  0.9846  2.4948 -0.3596
  174SOPE  H11S19763   1.901   2.309   9.804  1.3458 -0.3250  4.9362
  174SOPE  C21219764   1.905   2.491   9.697 -0.1497  0.0253 -0.3962
  174SOPE  H12R19765   1.960   2.587   9.684  0.4888 -0.3274 -0.3500
  174SOPE  H12S19766   1.806   2.532   9.727  0.8828  1.0482  1.7668
  174SOPE  C21319767   1.887   2.408   9.571  0.3388  0.5935  0.5532
  174SOPE  H13R19768   1.828   2.317   9.596  0.2543  0.1737 -1.0850
  174SOPE  H13S19769   1.988   2.373   9.541 -1.7315 -1.8561 -4.0652
  174SOPE  C21419770   1.816   2.480   9.448  0.0989  0.2452 -0.0981
  174SOPE  H14R19771   1.874   2.570   9.419  0.7459 -0.4222 -0.9169
  174SOPE  H14S19772   1.711   2.509   9.471  0.2399 -0.1837  1.1279
  174SOPE  C21519773   1.820   2.405   9.321  0.1257  0.6506 -0.3024
  174SOPE  H15R19774   1.920   2.369   9.289 -1.1234  1.4872 -5.4753
  174SOPE  H15S19775   1.791   2.468   9.234 -0.8344 -0.2181 -0.6150
  174SOPE  C21619776   1.713   2.286   9.316 -0.6101  0.4316 -0.5006
  174SOPE  H16R19777   1.608   2.296   9.352 -0.5948 -1.6136  0.1607
  174SOPE  H16S19778   1.769   2.206   9.370 -2.6364 -0.7751 -0.1398
  174SOPE  C21719779   1.697   2.235   9.175  0.0970 -0.0567  0.1020
  174SOPE  H17R19780   1.797   2.214   9.130 -0.2424 -0.6742 -0.3788
  174SOPE  H17S19781   1.642   2.314   9.120  1.0469  0.5472 -0.0004
  174SOPE  C21819782   1.608   2.113   9.169  0.0368  0.0561  0.0604
  174SOPE  H18R19783   1.502   2.140   9.188  0.5726 -0.7468  4.6321
  174SOPE  H18S19784   1.647   2.033   9.235 -1.1700 -0.3648  0.2733
  174SOPE  H18T19785   1.612   2.089   9.060  1.0921 -0.9621  0.3143
  174SOPE   C3319786   2.919   2.344  10.248  0.3137 -0.2599 -0.5930
  174SOPE   H3X19787   2.815   2.354  10.286  1.3698  0.6484  2.1587
  174SOPE   H3Y19788   2.966   2.255  10.293  2.1682 -0.3480 -2.5924
  174SOPE   C3419789   2.908   2.331  10.095  0.2938  0.1449 -0.7909
  174SOPE   H4X19790   3.008   2.316  10.048  0.5704 -0.8298  0.0914
  174SOPE   H4Y19791   2.868   2.417  10.037  1.7699  1.8896  0.7187
  174SOPE   C3519792   2.827   2.208  10.056 -0.0278  0.4661  1.0262
  174SOPE   H5X19793   2.726   2.224  10.099  0.3280  4.2035  0.5966
  174SOPE   H5Y19794   2.869   2.110  10.088 -0.9253  0.3686  1.9084
  174SOPE   C3619795   2.800   2.187   9.902  0.1767 -0.1186  0.6486
  174SOPE   H6X19796   2.893   2.156   9.849 -0.0415 -1.6972  1.1642
  174SOPE   H6Y19797   2.793   2.291   9.863  0.4056 -0.8035 -1.2881
  174SOPE   C3719798   2.676   2.103   9.871 -0.1833  0.3379 -0.1450
  174SOPE   H7X19799   2.591   2.164   9.911  0.0176 -0.0679  0.9272
  174SOPE   H7Y19800   2.675   2.003   9.919 -0.4322  0.0516 -0.7516
  174SOPE   C3819801   2.664   2.086   9.717  0.3717 -0.4928 -0.2600
  174SOPE   H8X19802   2.753   2.030   9.682 -0.8082 -3.5991  1.5798
  174SOPE   H8Y19803   2.664   2.186   9.668  0.5529 -1.0900 -1.4770
  174SOPE   C3919804   2.538   2.019   9.669  0.1580 -0.5031  0.4762
  174SOPE   H9X19805   2.463   1.996   9.748 -0.5621  3.0897  0.9464
  174SOPE   H9Y19806   2.574   1.921   9.633 -0.6641 -0.6143 -0.0413
  174SOPE  C31019807   2.470   2.094   9.543 -0.5765  0.7358 -0.8390
  174SOPE  H10X19808   2.418   2.181   9.589 -1.5260  0.0155 -0.5025
  174SOPE  H10Y19809   2.385   2.035   9.503 -0.9262  1.6890 -1.5193
  174SOPE  C31119810   2.561   2.131   9.432  0.0977 -0.9725 -0.0684
  174SOPE  H11X19811   2.629   2.217   9.448  0.6282 -1.6336  1.2451
  174SOPE  H11Y19812   2.495   2.169   9.350  0.9271  0.6334 -0.0113
  174SOPE  C31219813   2.648   2.013   9.376  0.5175  0.8545  0.1478
  174SOPE  H12X19814   2.598   1.913   9.384 -1.0985  1.5482 -1.0622
  174SOPE  H12Y19815   2.736   1.981   9.435 -0.5601 -2.2329  0.1814
  174SOPE  C31319816   2.703   2.026   9.226  0.3999  0.2008 -0.3937
  174SOPE  H13X19817   2.760   1.931   9.216  1.2413  0.8584 -2.0176
  174SOPE  H13Y19818   2.773   2.112   9.229  0.7348 -0.1005  0.6986
  174SOPE  C31419819   2.594   2.041   9.114 -0.4912 -0.4290  0.4522
  174SOPE  H14X19820   2.555   2.144   9.108 -0.8727 -0.5676  0.5660
  174SOPE  H14Y19821   2.509   1.970   9.121 -1.8245  1.1711  0.6660
  174SOPE  C31519822   2.673   2.012   8.987  1.1497 -0.8181 -0.4124
  174SOPE  H15X19823   2.729   1.917   8.999  1.0288 -0.7631  0.6101
  174SOPE  H15Y19824   2.741   2.096   8.964  0.7900 -0.5385 -0.4569
  174SOPE  C31619825   2.578   1.996   8.871 -0.2560  0.5403  0.1896
  174SOPE  H16X19826   2.501   2.075   8.874 -1.4881 -0.6376 -0.1278
  174SOPE  H16Y19827   2.523   1.901   8.891  1.1114 -0.2980  0.0698
  174SOPE  C31719828   2.645   1.998   8.735  1.3540  0.4613  0.5848
  174SOPE  H17X19829   2.728   1.927   8.719  0.5929 -0.2467 -0.2503
  174SOPE  H17Y19830   2.696   2.096   8.724  2.0718  0.0845  0.5162
  174SOPE  C31819831   2.543   1.994   8.621 -0.1854  0.6229 -1.1093
  174SOPE  H18X19832   2.480   2.084   8.638 -0.5031  0.3490 -0.8432
  174SOPE  H18Y19833   2.478   1.904   8.619 -1.9782  1.9008 -1.4394
  174SOPE  H18Z19834   2.593   1.993   8.521 -0.9060  0.0780 -1.4649
  175SOPE     N19835   3.909   4.367  10.484  0.1073 -0.0941  0.0545
  175SOPE   HN119836   3.985   4.410  10.540 -0.1771 -0.1331  0.4724
  175SOPE   HN219837   3.970   4.328  10.409  2.3387 -0.2298  1.8934
  175SOPE   HN319838   3.846   4.444  10.456  0.7239  0.8066  1.1244
  175SOPE   C1219839   3.852   4.261  10.575  0.2971  0.8805 -0.5596
  175SOPE  H12A19840   3.817   4.186  10.500  2.8054 -1.0511  0.1602
  175SOPE  H12B19841   3.774   4.299  10.644 -0.9088 -0.9416 -0.8515
  175SOPE   C1119842   3.957   4.191  10.659  0.5175 -0.7499  0.2062
  175SOPE  H11A19843   3.903   4.102  10.696  3.3006 -3.3575 -1.7932
  175SOPE  H11B19844   4.003   4.253  10.739 -0.5676  0.2764  0.0500
  175SOPE     P19845   4.200   4.091  10.643  0.1839 -0.3610  0.0639
  175SOPE   O1319846   4.174   3.971  10.728  0.5457 -0.2802  0.3633
  175SOPE   O1419847   4.263   4.212  10.694  0.4131 -0.3084 -0.4136
  175SOPE   O1219848   4.059   4.134  10.576  0.2564 -0.3743  0.3790
  175SOPE   O1119849   4.280   4.034  10.520  0.7388  0.1839  0.4327
  175SOPE    C119850   4.369   4.126  10.458 -0.7152 -0.6615 -0.0899
  175SOPE    HA19851   4.438   4.181  10.526 -1.0590  0.3512 -0.5487
  175SOPE    HB19852   4.313   4.200  10.397 -0.7241  0.9132  1.7678
  175SOPE    C219853   4.478   4.059  10.368  0.2689  0.0207  1.1993
  175SOPE    HS19854   4.522   4.139  10.306  1.7592 -1.0715  0.8209
  175SOPE   O2119855   4.430   3.947  10.284 -0.0214 -0.1252  0.1605
  175SOPE   C2119856   4.323   3.951  10.216 -0.0100  0.1179 -0.1513
  175SOPE   O2219857   4.244   4.042  10.207  0.4190 -0.1970  0.0485
  175SOPE   C2219858   4.296   3.817  10.151 -0.2008  0.2127 -0.4269
  175SOPE   H2R19859   4.208   3.830  10.086  0.0638 -1.9974 -1.2855
  175SOPE   H2S19860   4.250   3.747  10.224  0.0136  1.1043  0.5705
  175SOPE    C319861   4.602   4.009  10.454 -0.1128 -0.6427  0.1333
  175SOPE    HX19862   4.555   3.956  10.540 -2.7164  3.3868  1.3549
  175SOPE    HY19863   4.650   4.104  10.488 -0.4535 -0.3483 -0.2025
  175SOPE   O3119864   4.691   3.932  10.376  0.4661  0.8556  0.0912
  175SOPE   C3119865   4.673   3.804  10.369 -1.1954 -0.5330 -0.1388
  175SOPE   O3219866   4.574   3.744  10.401  0.1653  0.4750  0.1084
  175SOPE   C3219867   4.794   3.727  10.308  0.0093 -0.4695 -0.1684
  175SOPE   H2X19868   4.763   3.653  10.232  1.0196 -0.3125 -0.7453
  175SOPE   H2Y19869   4.831   3.668  10.395  1.3219 -0.3282 -0.6208
  175SOPE   C2319870   4.412   3.745  10.077  0.6263 -0.2964 -0.2913
  175SOPE   H3R19871   4.374   3.650  10.035 -0.3413  0.0085 -0.1314
  175SOPE   H3S19872   4.485   3.727  10.158 -0.8532 -0.2624  1.0886
  175SOPE   C2419873   4.466   3.827   9.966  0.0060 -0.5322 -0.0282
  175SOPE   H4R19874   4.488   3.931  10.000 -1.4345 -1.0909  2.7949
  175SOPE   H4S19875   4.559   3.777   9.933  0.2477  1.0698 -1.8664
  175SOPE   C2519876   4.369   3.847   9.851  1.0676 -0.2642  0.7793
  175SOPE   H5R19877   4.339   3.744   9.821  0.2167 -0.2271  1.4897
  175SOPE   H5S19878   4.272   3.885   9.892  0.6159 -0.1774 -0.3531
  175SOPE   C2619879   4.437   3.924   9.742  0.2875  0.2164 -0.8077
  175SOPE   H6R19880   4.483   4.020   9.773 -0.1074  0.0367  0.3802
  175SOPE   H6S19881   4.524   3.868   9.702  0.8982  1.0462 -0.6391
  175SOPE   C2719882   4.331   3.960   9.626  0.1114 -0.5249 -0.2667
  175SOPE   H7R19883   4.290   3.865   9.586 -2.1964  1.0708 -1.8413
  175SOPE   H7S19884   4.253   4.023   9.675  1.8519 -0.1169  2.0770
  175SOPE   C2819885   4.401   4.049   9.522  0.1753  0.1022  0.9325
  175SOPE   H8R19886   4.469   4.127   9.563 -0.9225 -0.1972  3.4287
  175SOPE   H8S19887   4.479   3.989   9.471 -1.3471 -0.9421 -0.2192
  175SOPE   C2919888   4.321   4.120   9.417 -0.1220  0.7947  0.4325
  175SOPE   H9119889   4.273   4.208   9.462 -0.2487  0.9948 -0.0963
  175SOPE  C21019890   4.313   4.094   9.285 -0.0568 -0.1561  0.6032
  175SOPE  H10119891   4.258   4.167   9.223  1.7212  1.0555  0.4133
  175SOPE  C21119892   4.371   3.979   9.208 -0.8969  0.3958  0.1777
  175SOPE  H11R19893   4.449   3.929   9.269 -1.6794 -1.1494 -0.0784
  175SOPE  H11S19894   4.428   4.028   9.127  0.2656 -0.5133  0.4363
  175SOPE  C21219895   4.280   3.869   9.157 -0.4996 -0.2090 -0.3351
  175SOPE  H12R19896   4.243   3.805   9.239 -0.2703  0.4979  0.3281
  175SOPE  H12S19897   4.346   3.805   9.094 -3.5280 -1.7249 -2.0419
  175SOPE  C21319898   4.157   3.921   9.072 -0.3179 -0.1594 -0.3165
  175SOPE  H13R19899   4.110   4.005   9.128 -0.5423 -0.1270 -0.5527
  175SOPE  H13S19900   4.085   3.836   9.072 -1.4497  0.7993 -0.4504
  175SOPE  C21419901   4.203   3.965   8.928 -0.5138  0.0683  0.0278
  175SOPE  H14R19902   4.264   3.886   8.881 -1.1219 -0.0340 -0.5836
  175SOPE  H14S19903   4.263   4.059   8.936  0.1905 -0.3306 -0.5087
  175SOPE  C21519904   4.075   3.996   8.846 -0.1384  0.5906  0.2523
  175SOPE  H15R19905   4.023   4.073   8.906 -1.1046  0.1057  0.0550
  175SOPE  H15S19906   4.007   3.908   8.844 -0.2379  0.6957 -1.1627
  175SOPE  C21619907   4.112   4.044   8.701  0.4036  0.0294  0.2102
  175SOPE  H16R19908   4.151   3.959   8.641  0.4177  1.8120 -2.3824
  175SOPE  H16S19909   4.191   4.123   8.707  2.5220 -1.9383 -0.7889
  175SOPE  C21719910   3.998   4.085   8.613  0.3481 -0.0063 -0.4082
  175SOPE  H17R19911   3.928   4.144   8.676  1.7955  0.6353  0.6176
  175SOPE  H17S19912   3.954   3.990   8.576  0.8587 -1.4755  2.6124
  175SOPE  C21819913   4.040   4.176   8.497  0.1775  0.2692  0.2564
  175SOPE  H18R19914   4.113   4.255   8.524  0.7294 -1.0287  2.7561
  175SOPE  H18S19915   3.951   4.216   8.443 -0.7035 -0.0258  1.4832
  175SOPE  H18T19916   4.103   4.113   8.431  1.4395  0.7334  1.0038
  175SOPE   C3319917   4.912   3.803  10.243 -0.2988  0.0451  0.4082
  175SOPE   H3X19918   4.998   3.734  10.230 -0.5825 -0.2069 -0.1575
  175SOPE   H3Y19919   4.945   3.886  10.309 -1.5058  0.3352  0.6504
  175SOPE   C3419920   4.878   3.874  10.111 -0.3022  0.1523  0.6672
  175SOPE   H4X19921   4.948   3.958  10.091 -1.5482  1.4223  1.5346
  175SOPE   H4Y19922   4.776   3.917  10.120  0.1047  1.3406 -0.2756
  175SOPE   C3519923   4.876   3.783   9.988  0.3687 -0.1003 -0.2603
  175SOPE   H5X19924   4.816   3.691   9.998 -1.8105  1.0782 -2.2198
  175SOPE   H5Y19925   4.975   3.732   9.988  0.3281 -0.2505  2.0834
  175SOPE   C3619926   4.847   3.861   9.858  0.8231 -0.1990  0.2192
  175SOPE   H6X19927   4.921   3.943   9.855 -0.1416  0.6122 -2.4843
  175SOPE   H6Y19928   4.746   3.906   9.869  0.0755 -2.2833  2.5103
  175SOPE   C3719929   4.859   3.766   9.734  0.3223  0.7197  0.5305
  175SOPE   H7X19930   4.795   3.676   9.744  1.3704 -0.0140  0.6569
  175SOPE   H7Y19931   4.963   3.726   9.733 -0.6565 -1.9298 -1.8436
  175SOPE   C3819932   4.815   3.850   9.616 -0.4257 -0.3206  0.0299
  175SOPE   H8X19933   4.877   3.939   9.593  1.6359 -1.2445  1.7784
  175SOPE   H8Y19934   4.716   3.895   9.639 -0.0788  1.3199 -1.5873
  175SOPE   C3919935   4.798   3.768   9.489  0.2206  0.3373 -0.7753
  175SOPE   H9X19936   4.723   3.688   9.508 -0.0116  1.4733  3.6129
  175SOPE   H9Y19937   4.894   3.723   9.453  1.0396  0.3323  1.3734
  175SOPE  C31019938   4.745   3.867   9.386 -0.1165  0.1565 -0.5746
  175SOPE  H10X19939   4.827   3.935   9.354  0.9311 -0.9791 -0.3442
  175SOPE  H10Y19940   4.660   3.923   9.432 -1.0146 -1.1689 -0.5915
  175SOPE  C31119941   4.702   3.802   9.247 -0.2006  0.3605 -0.1851
  175SOPE  H11X19942   4.608   3.743   9.256 -0.3475  0.5648 -0.3752
  175SOPE  H11Y19943   4.777   3.723   9.227  0.7304  1.5514 -1.4572
  175SOPE  C31219944   4.694   3.902   9.128  0.0246 -0.3794 -0.0644
  175SOPE  H12X19945   4.798   3.938   9.121 -0.1748 -0.2171 -2.7386
  175SOPE  H12Y19946   4.624   3.980   9.165  1.9299  1.1580  0.3149
  175SOPE  C31319947   4.653   3.838   8.995 -1.8332 -0.5048 -0.1404
  175SOPE  H13X19948   4.573   3.763   9.011 -0.6521 -1.7268  0.1675
  175SOPE  H13Y19949   4.746   3.797   8.949 -1.7529  1.9639 -2.2941
  175SOPE  C31419950   4.608   3.946   8.891  0.1205 -0.2831  0.2800
  175SOPE  H14X19951   4.688   4.022   8.879 -1.3533  1.1746 -0.6343
  175SOPE  H14Y19952   4.515   4.001   8.919  0.4477  0.2463  0.3387
  175SOPE  C31519953   4.578   3.900   8.745  0.1421 -0.0857 -0.1464
  175SOPE  H15X19954   4.524   3.980   8.690  0.0825 -1.4515 -2.0988
  175SOPE  H15Y19955   4.501   3.822   8.763  0.4702  0.0051  1.7822
  175SOPE  C31619956   4.693   3.830   8.668  0.6940 -0.7451 -0.1887
  175SOPE  H16X19957   4.654   3.775   8.580 -0.1676 -0.5730  0.0806
  175SOPE  H16Y19958   4.725   3.755   8.744  1.3124  0.7253  1.0302
  175SOPE  C31719959   4.799   3.923   8.617  0.3950 -0.1677 -0.0727
  175SOPE  H17X19960   4.823   3.994   8.699  3.0336 -0.9101 -0.1625
  175SOPE  H17Y19961   4.753   3.985   8.537  0.5814  2.5111  1.8448
  175SOPE  C31819962   4.932   3.862   8.566  0.2350 -0.1849 -0.1857
  175SOPE  H18X19963   4.960   3.765   8.612 -2.9652 -2.0011 -1.8529
  175SOPE  H18Y19964   5.016   3.934   8.565  1.2040 -1.2872 -1.6341
  175SOPE  H18Z19965   4.911   3.834   8.460 -1.5070 -0.1178  0.1223
  176SOPE     N19966   3.840   3.461  10.639  0.2178 -0.4295 -0.1380
  176SOPE   HN119967   3.815   3.453  10.740  2.1016  0.3857  0.4189
  176SOPE   HN219968   3.755   3.472  10.580  1.7148 -0.0971 -2.2823
  176SOPE   HN319969   3.894   3.374  10.620  0.5294 -0.3134  0.1986
  176SOPE   C1219970   3.922   3.579  10.606  0.3207  0.6887  0.1928
  176SOPE  H12A19971   3.924   3.594  10.496 -1.4985  0.1010  0.0569
  176SOPE  H12B19972   4.024   3.555  10.641 -0.2144 -0.6254  0.8692
  176SOPE   C1119973   3.872   3.710  10.672  0.0978 -0.5353 -0.3168
  176SOPE  H11A19974   3.945   3.785  10.633  0.8611 -0.4001  1.3175
  176SOPE  H11B19975   3.886   3.717  10.782  2.0976  1.8445 -0.6543
  176SOPE     P19976   3.662   3.867  10.676  0.5142 -0.0496 -0.1652
  176SOPE   O1319977   3.734   3.947  10.776  0.8286  0.1588  0.1743
  176SOPE   O1419978   3.516   3.837  10.705  0.0030 -0.0016 -0.5345
  176SOPE   O1219979   3.736   3.731  10.639 -0.0652 -0.8839  0.4140
  176SOPE   O1119980   3.677   3.948  10.543  0.2425 -0.2288  0.2744
  176SOPE    C119981   3.572   3.936  10.448  0.7399  0.5433 -0.1726
  176SOPE    HA19982   3.581   4.012  10.367  1.8105  1.1844  0.5389
  176SOPE    HB19983   3.468   3.945  10.486  0.5201 -2.1407 -0.0218
  176SOPE    C219984   3.583   3.814  10.361 -0.1143 -0.8048 -0.4089
  176SOPE    HS19985   3.601   3.723  10.422  1.1989  0.0978  0.5656
  176SOPE   O2119986   3.692   3.846  10.265  0.0998  0.2555  0.3067
  176SOPE   C2119987   3.756   3.740  10.232 -0.2256 -0.2622 -0.6824
  176SOPE   O2219988   3.737   3.627  10.269  0.1488 -0.0653  0.4640
  176SOPE   C2219989   3.870   3.775  10.141  0.7441 -0.4656  0.3845
  176SOPE   H2R19990   3.940   3.817  10.216  0.8865 -3.5359  2.0103
  176SOPE   H2S19991   3.830   3.856  10.076 -1.6156 -2.3010 -0.5480
  176SOPE    C319992   3.441   3.792  10.292 -0.7420  0.6743  0.2854
  176SOPE    HX19993   3.406   3.888  10.248  0.2694  1.5437  1.3377
  176SOPE    HY19994   3.369   3.773  10.375  2.2370  1.1674  3.0668
  176SOPE   O3119995   3.435   3.697  10.189 -0.4804 -0.2515 -0.7870
  176SOPE   C3119996   3.429   3.572  10.224 -0.0349 -0.5964 -0.3828
  176SOPE   O3219997   3.412   3.529  10.339  0.2791 -0.2842  0.0845
  176SOPE   C3219998   3.436   3.484  10.104  0.8120  0.0795 -0.0790
  176SOPE   H2X19999   3.540   3.447  10.095  1.3407  1.7406 -1.0414
  176SOPE   H2Y20000   3.406   3.532  10.009  1.3775  0.5987  0.0051
  176SOPE   C2320001   3.933   3.657  10.069  0.1430  0.3310 -0.1702
  176SOPE   H3R20002   3.958   3.582  10.147 -1.1616  0.2836  0.2204
  176SOPE   H3S20003   4.021   3.689  10.010  3.0955 -2.8430  2.3099
  176SOPE   C2420004   3.848   3.587   9.965  0.3520  0.3232  0.9291
  176SOPE   H4R20005   3.775   3.520  10.016 -0.0717  1.0438  1.2787
  176SOPE   H4S20006   3.785   3.667   9.921  1.4665  0.1199 -1.0964
  176SOPE   C2520007   3.919   3.504   9.847  0.4666 -0.6285  0.4578
  176SOPE   H5R20008   3.961   3.580   9.778 -0.3798  1.1845  1.9150
  176SOPE   H5S20009   3.994   3.442   9.901  0.9315 -0.6803 -0.2300
  176SOPE   C2620010   3.824   3.414   9.772  0.0831 -0.3621  0.5686
  176SOPE   H6R20011   3.871   3.393   9.674 -1.7607  0.4011 -0.5180
  176SOPE   H6S20012   3.812   3.315   9.820 -3.1154 -1.1116 -1.6168
  176SOPE   C2720013   3.683   3.465   9.743 -0.4300  0.7624 -0.3016
  176SOPE   H7R20014   3.617   3.490   9.829 -1.1019 -1.4054 -0.1611
  176SOPE   H7S20015   3.693   3.559   9.684  1.6923  1.2064  0.7155
  176SOPE   C2820016   3.603   3.377   9.644  0.6517 -0.4139  0.5759
  176SOPE   H8R20017   3.553   3.301   9.708  1.7043  0.0453  1.9595
  176SOPE   H8S20018   3.526   3.447   9.605  1.5643  1.8650  2.7340
  176SOPE   C2920019   3.683   3.311   9.533  0.2878  0.0617 -0.3155
  176SOPE   H9120020   3.720   3.208   9.539  1.4563  0.4723 -0.3091
  176SOPE  C21020021   3.725   3.371   9.422 -0.0405 -0.7772 -0.6742
  176SOPE  H10120022   3.778   3.312   9.346 -0.0490 -1.9854  0.2387
  176SOPE  C21120023   3.707   3.514   9.391 -0.3911  0.2913 -0.1145
  176SOPE  H11R20024   3.790   3.556   9.330 -0.4628  1.6808  0.7275
  176SOPE  H11S20025   3.710   3.568   9.488  1.5124 -1.3712  0.7947
  176SOPE  C21220026   3.579   3.561   9.314  0.2528  0.5938 -1.0690
  176SOPE  H12R20027   3.598   3.659   9.265 -2.7304  1.2639 -0.9974
  176SOPE  H12S20028   3.508   3.575   9.399 -3.6644  0.5626 -4.1791
  176SOPE  C21320029   3.518   3.457   9.216  0.2218 -0.3495  0.0151
  176SOPE  H13R20030   3.453   3.384   9.270 -1.7623  0.0848 -1.7294
  176SOPE  H13S20031   3.611   3.412   9.175  0.3646  0.1613 -0.2203
  176SOPE  C21420032   3.438   3.521   9.107  0.0675 -0.2177 -0.5094
  176SOPE  H14R20033   3.493   3.603   9.055  2.3844 -0.2201  1.8993
  176SOPE  H14S20034   3.351   3.576   9.151  0.9873  2.6687 -2.1377
  176SOPE  C21520035   3.400   3.427   8.994  0.1108 -0.1832 -0.0333
  176SOPE  H15R20036   3.363   3.332   9.039  0.6432 -1.6476 -2.5560
  176SOPE  H15S20037   3.494   3.411   8.937 -0.4435 -3.4211 -0.1592
  176SOPE  C21620038   3.303   3.482   8.882  0.3703 -0.1476  0.3565
  176SOPE  H16R20039   3.340   3.575   8.835 -0.8549 -0.3162 -0.9878
  176SOPE  H16S20040   3.213   3.522   8.933  0.8703  0.1877  0.9823
  176SOPE  C21720041   3.270   3.380   8.770 -0.2413 -0.1076 -0.2873
  176SOPE  H17R20042   3.180   3.431   8.731 -0.3827 -0.0798  0.0691
  176SOPE  H17S20043   3.241   3.280   8.809  3.4394 -1.6094 -1.1706
  176SOPE  C21820044   3.390   3.356   8.681 -0.4695 -0.3843  0.2202
  176SOPE  H18R20045   3.370   3.300   8.587  0.0495  1.7975 -1.2425
  176SOPE  H18S20046   3.479   3.312   8.730  0.0658 -2.0776 -2.1749
  176SOPE  H18T20047   3.433   3.452   8.646  1.2671 -0.8920  0.8893
  176SOPE   C3320048   3.347   3.357  10.133  0.0851  0.0850 -0.0809
  176SOPE   H3X20049   3.247   3.391  10.169  0.2329  0.4775 -0.0469
  176SOPE   H3Y20050   3.400   3.313  10.221 -0.5111  0.2691  0.3742
  176SOPE   C3420051   3.319   3.258  10.029  0.3789 -0.6558  0.4045
  176SOPE   H4X20052   3.288   3.162  10.076  3.1011 -1.2841  1.0251
  176SOPE   H4Y20053   3.405   3.215   9.975  0.5445  1.2793 -0.9261
  176SOPE   C3520054   3.216   3.310   9.929  0.3365 -0.0299  0.2087
  176SOPE   H5X20055   3.162   3.398   9.971 -2.3453 -1.0124 -1.0433
  176SOPE   H5Y20056   3.138   3.232   9.922 -0.5076  0.7425  0.9183
  176SOPE   C3620057   3.272   3.355   9.793 -0.0612 -0.5907 -0.4196
  176SOPE   H6X20058   3.345   3.278   9.762  1.7655  1.2928 -0.9525
  176SOPE   H6Y20059   3.328   3.449   9.811 -0.0981 -1.4099  4.8719
  176SOPE   C3720060   3.159   3.383   9.693 -0.1314 -1.1659  0.1829
  176SOPE   H7X20061   3.081   3.435   9.753 -0.4209 -0.1511 -1.0597
  176SOPE   H7Y20062   3.137   3.282   9.652 -3.2833 -0.6073  0.4167
  176SOPE   C3820063   3.197   3.486   9.576 -0.8878  0.6137 -0.2793
  176SOPE   H8X20064   3.255   3.423   9.505  1.8042  1.3444  1.1710
  176SOPE   H8Y20065   3.257   3.574   9.609 -1.6829  1.6181 -1.4542
  176SOPE   C3920066   3.073   3.546   9.521 -0.5102 -0.1487 -0.6161
  176SOPE   H9X20067   3.031   3.622   9.590 -2.4495 -1.3945 -0.3715
  176SOPE   H9Y20068   2.987   3.476   9.529  0.9436 -1.7680  1.5462
  176SOPE  C31020069   3.090   3.574   9.375 -0.4389  0.7638  0.2563
  176SOPE  H10X20070   3.111   3.474   9.331 -0.6150  0.8273  0.0309
  176SOPE  H10Y20071   3.186   3.629   9.361 -0.8841  1.4132 -0.2863
  176SOPE  C31120072   2.972   3.659   9.327  0.1027  0.1877 -1.0421
  176SOPE  H11X20073   2.989   3.768   9.331 -0.8155  0.2768  0.5966
  176SOPE  H11Y20074   2.885   3.634   9.392  2.5886 -1.0465  1.9618
  176SOPE  C31220075   2.934   3.622   9.186  0.0166  0.6433 -0.0889
  176SOPE  H12X20076   2.829   3.655   9.170  0.4301  2.5280  1.0221
  176SOPE  H12Y20077   2.932   3.511   9.196 -1.1275  0.8492  2.2058
  176SOPE  C31320078   3.031   3.667   9.078  0.8382  0.1796  0.4525
  176SOPE  H13X20079   3.000   3.617   8.984  2.1623  0.4962 -0.1620
  176SOPE  H13Y20080   3.129   3.629   9.113 -0.4948 -2.4708  1.4286
  176SOPE  C31420081   3.025   3.824   9.061  0.2681 -0.9710  0.1445
  176SOPE  H14X20082   2.987   3.888   9.144  2.4863  0.9074 -0.2673
  176SOPE  H14Y20083   2.947   3.849   8.986 -0.2339 -2.1161  0.2656
  176SOPE  C31520084   3.171   3.870   9.037 -0.3142 -0.1572  0.0137
  176SOPE  H15X20085   3.211   3.801   8.959 -2.1767 -2.0275  0.6697
  176SOPE  H15Y20086   3.233   3.867   9.129  1.6634 -0.2648 -1.2879
  176SOPE  C31620087   3.177   4.018   8.975 -0.7805 -0.4471 -0.0841
  176SOPE  H16X20088   3.134   4.089   9.048 -1.3035  1.7889 -2.5089
  176SOPE  H16Y20089   3.108   4.021   8.889  0.6055 -0.6273 -1.2272
  176SOPE  C31720090   3.319   4.058   8.939 -0.9498 -0.7453  1.1680
  176SOPE  H17X20091   3.363   3.983   8.870 -0.1706  0.1166  0.7120
  176SOPE  H17Y20092   3.397   4.061   9.017  0.7304  2.0551 -0.5268
  176SOPE  C31820093   3.320   4.184   8.850 -0.0777 -0.3790  0.5063
  176SOPE  H18X20094   3.416   4.239   8.840  0.1781 -0.8106  0.5635
  176SOPE  H18Y20095   3.262   4.246   8.922  0.4283  0.6658  0.0382
  176SOPE  H18Z20096   3.264   4.176   8.755  0.5843  2.1256 -0.1465
  177SOPE     N20097   3.758   1.135  11.221  0.1061 -0.4454 -0.2678
  177SOPE   HN120098   3.817   1.060  11.263  0.2771 -1.0563 -1.5610
  177SOPE   HN220099   3.824   1.193  11.166  0.2216  0.0255  0.3629
  177SOPE   HN320100   3.721   1.190  11.301  0.9374  1.4231 -1.1459
  177SOPE   C1220101   3.659   1.068  11.132 -0.2798  0.1736 -0.4558
  177SOPE  H12A20102   3.624   0.977  11.186 -2.5279  1.0557 -0.3680
  177SOPE  H12B20103   3.712   1.036  11.040  0.4991 -1.5069  0.5458
  177SOPE   C1120104   3.546   1.168  11.091  0.0271  0.6172  0.7641
  177SOPE  H11A20105   3.463   1.168  11.165 -2.3826  0.4282 -1.8372
  177SOPE  H11B20106   3.500   1.113  11.005 -0.7040  0.6459  1.1342
  177SOPE     P20107   3.568   1.369  10.921 -0.3725 -0.1191 -0.3222
  177SOPE   O1320108   3.607   1.286  10.801 -0.3195  0.2538 -0.3407
  177SOPE   O1420109   3.620   1.506  10.920  0.0839 -0.6621  0.5397
  177SOPE   O1220110   3.586   1.298  11.059  0.3982 -0.2291 -0.0177
  177SOPE   O1120111   3.409   1.390  10.911 -0.0266  0.0890  0.1846
  177SOPE    C120112   3.332   1.405  10.790 -0.5020  0.2222  0.1604
  177SOPE    HA20113   3.222   1.416  10.805 -0.4927  1.8717 -0.8360
  177SOPE    HB20114   3.348   1.311  10.733 -0.5857 -1.0497  2.2063
  177SOPE    C220115   3.384   1.522  10.701  0.3284 -0.0250 -1.1847
  177SOPE    HS20116   3.488   1.497  10.671  1.5307  2.6979  0.5383
  177SOPE   O2120117   3.371   1.651  10.767  0.2077  0.0584 -0.2545
  177SOPE   C2120118   3.446   1.751  10.716  0.6672  0.2465 -0.7582
  177SOPE   O2220119   3.517   1.743  10.616 -0.1323  0.2171 -0.9904
  177SOPE   C2220120   3.432   1.874  10.810  0.4052  0.1202 -0.1058
  177SOPE   H2R20121   3.511   1.948  10.787  0.3393  0.3717  0.4565
  177SOPE   H2S20122   3.451   1.836  10.913  1.3296  2.2288  0.5267
  177SOPE    C320123   3.313   1.511  10.558  0.6276  0.2993 -0.4809
  177SOPE    HX20124   3.352   1.590  10.490  2.5949  0.7278  1.1065
  177SOPE    HY20125   3.209   1.548  10.571  0.2892 -0.7842 -0.0537
  177SOPE   O3120126   3.318   1.377  10.490  0.8877  0.6152 -0.3726
  177SOPE   C3120127   3.202   1.350  10.422 -0.2973 -0.5285 -0.2849
  177SOPE   O3220128   3.109   1.423  10.412 -0.7381  0.5951  0.8320
  177SOPE   C3220129   3.226   1.203  10.381 -0.2897  0.4030 -0.0377
  177SOPE   H2X20130   3.141   1.167  10.318 -0.5456  0.7605  0.0994
  177SOPE   H2Y20131   3.247   1.134  10.466  1.6876 -0.0799 -0.9028
  177SOPE   C2320132   3.283   1.940  10.789 -0.6459  0.7804 -0.6266
  177SOPE   H3R20133   3.284   2.033  10.850 -1.3694  1.0395 -1.0028
  177SOPE   H3S20134   3.217   1.860  10.830  1.9766 -0.3056  1.6543
  177SOPE   C2420135   3.243   1.968  10.640  0.1545 -0.2550 -0.6676
  177SOPE   H4R20136   3.219   1.868  10.599 -0.2206 -0.8901  1.0463
  177SOPE   H4S20137   3.147   2.025  10.639  0.8158  0.8592 -1.4634
  177SOPE   C2520138   3.333   2.054  10.552 -0.0201 -0.1945 -0.7003
  177SOPE   H5R20139   3.337   2.158  10.592  2.8585  0.1132 -1.6794
  177SOPE   H5S20140   3.433   2.006  10.539  0.4089  0.4414  0.1565
  177SOPE   C2620141   3.283   2.060  10.402 -0.3468  0.7657  0.2692
  177SOPE   H6R20142   3.180   2.100  10.409 -0.3825  0.4343  1.7847
  177SOPE   H6S20143   3.351   2.130  10.347 -0.0281  0.8819  0.8053
  177SOPE   C2720144   3.291   1.922  10.322 -0.2526 -0.1451  0.2734
  177SOPE   H7R20145   3.393   1.878  10.325  0.3718  1.2729  0.6924
  177SOPE   H7S20146   3.227   1.849  10.375  1.3544 -1.4456  0.4529
  177SOPE   C2820147   3.242   1.937  10.177  0.5658 -0.2210 -0.1911
  177SOPE   H8R20148   3.138   1.976  10.180  0.0836 -1.5749  1.3321
  177SOPE   H8S20149   3.298   2.013  10.118 -0.9989  1.8459  0.9025
  177SOPE   C2920150   3.226   1.805  10.101  0.4730  0.2979 -0.1379
  177SOPE   H9120151   3.191   1.720  10.161  0.9665 -0.0441 -0.3332
  177SOPE  C21020152   3.243   1.797   9.965  0.3298  0.0948 -0.1761
  177SOPE  H10120153   3.235   1.700   9.914  1.9822  0.7134 -1.6735
  177SOPE  C21120154   3.280   1.905   9.874 -0.2882 -0.0662  0.2994
  177SOPE  H11R20155   3.349   1.852   9.805 -1.4774 -0.2199 -0.7894
  177SOPE  H11S20156   3.326   1.993   9.924  0.7317 -0.8657  0.7844
  177SOPE  C21220157   3.161   1.952   9.785 -0.2346  0.0752  0.4703
  177SOPE  H12R20158   3.094   2.016   9.847 -2.5788  1.2237 -3.1083
  177SOPE  H12S20159   3.113   1.859   9.749 -0.2648 -0.5111  1.9655
  177SOPE  C21320160   3.192   2.028   9.659  0.0565  0.6734 -0.1914
  177SOPE  H13R20161   3.271   1.976   9.600  0.5007 -0.4998  1.3961
  177SOPE  H13S20162   3.232   2.125   9.696  0.8704  0.8746 -1.5760
  177SOPE  C21420163   3.071   2.059   9.560 -0.5592  0.6190  0.1676
  177SOPE  H14R20164   2.988   2.111   9.612 -0.9677 -1.1760  1.3448
  177SOPE  H14S20165   3.032   1.959   9.532 -0.1954  0.5095  0.0533
  177SOPE  C21520166   3.123   2.138   9.445 -0.2074  0.1307  0.3423
  177SOPE  H15R20167   3.224   2.099   9.419 -0.7973 -0.2449 -1.4758
  177SOPE  H15S20168   3.130   2.246   9.469 -0.5655  0.6658 -1.8658
  177SOPE  C21620169   3.036   2.125   9.310 -0.3921  0.1209  0.3330
  177SOPE  H16R20170   2.952   2.189   9.342  0.8255  1.3080  1.2384
  177SOPE  H16S20171   3.003   2.019   9.304 -2.2007  0.7677 -1.4200
  177SOPE  C21720172   3.107   2.166   9.175 -0.8668 -0.7684 -0.6406
  177SOPE  H17R20173   3.212   2.133   9.162 -1.1550 -2.1269  0.3810
  177SOPE  H17S20174   3.118   2.277   9.178  3.3345 -1.1126 -0.7458
  177SOPE  C21820175   3.025   2.133   9.052 -0.0225  0.2399 -0.1779
  177SOPE  H18R20176   2.984   2.030   9.049  1.4164 -0.3374 -0.5602
  177SOPE  H18S20177   3.083   2.150   8.958 -0.6687  1.8684 -0.2977
  177SOPE  H18T20178   2.938   2.202   9.054  0.9219  1.4398  0.8325
  177SOPE   C3320179   3.355   1.197  10.301 -0.0002 -0.4851 -0.0542
  177SOPE   H3X20180   3.361   1.100  10.248 -2.4829  0.5300 -2.3409
  177SOPE   H3Y20181   3.442   1.207  10.370  0.7230  0.9364 -1.1299
  177SOPE   C3420182   3.371   1.291  10.183 -0.0587  0.2421 -0.3285
  177SOPE   H4X20183   3.471   1.278  10.137 -0.0781  0.5675 -0.4701
  177SOPE   H4Y20184   3.372   1.388  10.237 -1.5785  0.9634 -1.5407
  177SOPE   C3520185   3.260   1.300  10.076  0.2641  0.3810  0.2814
  177SOPE   H5X20186   3.180   1.359  10.125 -2.3906 -2.0724 -0.9257
  177SOPE   H5Y20187   3.215   1.200  10.056  0.7576  0.2094  0.0060
  177SOPE   C3620188   3.309   1.369   9.949  0.3962  0.2336 -0.8315
  177SOPE   H6X20189   3.400   1.317   9.912  1.0728  2.2342 -2.0734
  177SOPE   H6Y20190   3.336   1.474   9.975 -0.9023  0.6425 -1.1211
  177SOPE   C3720191   3.204   1.368   9.841 -0.0798 -0.1449  0.0849
  177SOPE   H7X20192   3.123   1.441   9.865  2.0638  2.0833  0.7576
  177SOPE   H7Y20193   3.155   1.269   9.840  2.2969 -1.3399 -1.3918
  177SOPE   C3820194   3.261   1.401   9.701  0.0166  0.1193  0.1388
  177SOPE   H8X20195   3.182   1.368   9.630  1.0094  1.5287 -1.6741
  177SOPE   H8Y20196   3.341   1.326   9.681  0.1747 -0.8592  4.0898
  177SOPE   C3920197   3.302   1.548   9.674  0.4371 -0.0870  0.0475
  177SOPE   H9X20198   3.393   1.553   9.738 -0.4584  0.2009  1.3229
  177SOPE   H9Y20199   3.232   1.626   9.712  0.4748  1.1441 -2.3085
  177SOPE  C31020200   3.333   1.583   9.525 -0.8876  0.3731  0.1412
  177SOPE  H10X20201   3.356   1.691   9.532  0.0357  0.0598  2.1917
  177SOPE  H10Y20202   3.243   1.570   9.460 -0.5973 -0.3499 -0.1225
  177SOPE  C31120203   3.440   1.496   9.462 -0.3331  0.3966  0.2103
  177SOPE  H11X20204   3.398   1.394   9.454 -0.9088  0.6278  0.2658
  177SOPE  H11Y20205   3.511   1.476   9.546 -0.4857 -0.5185  0.1244
  177SOPE  C31220206   3.500   1.556   9.338  0.1138 -1.0008  0.4869
  177SOPE  H12X20207   3.538   1.659   9.358 -1.1627 -0.6315  1.0637
  177SOPE  H12Y20208   3.423   1.567   9.258  0.9482  0.1615 -0.1771
  177SOPE  C31320209   3.608   1.467   9.279  0.7970 -0.1793 -0.3979
  177SOPE  H13X20210   3.568   1.368   9.249  1.7973 -0.2468 -1.5648
  177SOPE  H13Y20211   3.678   1.450   9.363 -0.1970  1.2631  0.7380
  177SOPE  C31420212   3.680   1.519   9.148  0.1542 -0.2907  0.0700
  177SOPE  H14X20213   3.713   1.623   9.167  0.2839 -0.3246  0.0266
  177SOPE  H14Y20214   3.606   1.527   9.065  0.3459  0.6325 -0.0173
  177SOPE  C31520215   3.802   1.432   9.110 -0.4106 -0.2442  0.3932
  177SOPE  H15X20216   3.779   1.325   9.092  1.6019 -0.6011 -0.2758
  177SOPE  H15Y20217   3.877   1.436   9.191  1.0429  0.3163 -0.9377
  177SOPE  C31620218   3.885   1.486   8.986 -0.1683  0.4765  0.2623
  177SOPE  H16X20219   3.901   1.596   8.986 -1.8132  0.7278  0.7777
  177SOPE  H16Y20220   3.832   1.463   8.892  0.3111 -1.5897  0.4795
  177SOPE  C31720221   4.024   1.419   8.978  0.4481 -1.1651 -0.3950
  177SOPE  H17X20222   4.092   1.463   9.054 -0.7183  0.7797 -0.4500
  177SOPE  H17Y20223   4.071   1.442   8.880  0.3418  0.4992 -0.0653
  177SOPE  C31820224   4.020   1.270   8.998 -0.2827  0.1885  0.9734
  177SOPE  H18X20225   4.117   1.219   8.981 -0.1651  0.4780  0.7744
  177SOPE  H18Y20226   3.946   1.217   8.934  1.3392 -1.3657  0.3624
  177SOPE  H18Z20227   3.990   1.239   9.100  0.7065  1.7608  1.7614
  178SOPE     N20228   6.680   6.654  10.732 -0.0757  0.4942 -0.5908
  178SOPE   HN120229   6.728   6.733  10.778  1.2124 -1.1220  0.9230
  178SOPE   HN220230   6.580   6.680  10.721 -0.5972 -0.7667  0.9125
  178SOPE   HN320231   6.681   6.576  10.801 -1.3721  1.1882  0.2268
  178SOPE   C1220232   6.743   6.613  10.607 -0.2678 -0.3501 -0.2696
  178SOPE  H12A20233   6.853   6.616  10.624 -0.2560 -0.1386 -0.3751
  178SOPE  H12B20234   6.725   6.681  10.522 -1.4403  0.2719  0.4545
  178SOPE   C1120235   6.697   6.466  10.577  0.3822 -0.8374  0.6905
  178SOPE  H11A20236   6.732   6.442  10.474 -0.3402 -0.9900  0.4792
  178SOPE  H11B20237   6.587   6.455  10.584  0.3396 -1.6144 -0.9012
  178SOPE     P20238   6.901   6.329  10.690 -0.1115  0.2635  0.1992
  178SOPE   O1320239   6.915   6.208  10.771 -0.1856 -0.0654  0.2953
  178SOPE   O1420240   6.977   6.449  10.731 -0.1134 -0.2885  0.2817
  178SOPE   O1220241   6.751   6.368  10.663 -0.4525 -0.2992 -0.8708
  178SOPE   O1120242   6.954   6.287  10.549 -0.0871  0.1419  0.0643
  178SOPE    C120243   6.884   6.185  10.481 -0.5153 -0.3751 -0.5375
  178SOPE    HA20244   6.801   6.220  10.416 -0.8761  1.6545  1.0014
  178SOPE    HB20245   6.830   6.120  10.553  0.6824  0.3090  1.0007
  178SOPE    C220246   6.978   6.089  10.400  0.2107  0.1506 -0.9394
  178SOPE    HS20247   7.044   6.046  10.479  0.3322  0.4249 -0.8893
  178SOPE   O2120248   7.045   6.168  10.298 -0.1696 -0.1119 -0.2890
  178SOPE   C2120249   7.163   6.116  10.260 -0.8348 -0.5393 -0.2452
  178SOPE   O2220250   7.216   6.023  10.318 -0.1824 -0.0646  0.2352
  178SOPE   C2220251   7.199   6.174  10.128  0.3097  0.5184 -0.4704
  178SOPE   H2R20252   7.150   6.274  10.125 -0.5858  0.1397  1.1892
  178SOPE   H2S20253   7.139   6.118  10.053  1.1831  1.4267 -1.8792
  178SOPE    C320254   6.892   5.973  10.336  0.1523 -0.6412 -0.0002
  178SOPE    HX20255   6.818   6.037  10.282 -0.1766  1.0397  2.3689
  178SOPE    HY20256   6.836   5.920  10.416  1.2509 -2.4076 -0.3916
  178SOPE   O3120257   6.961   5.887  10.236 -0.5256  0.3531 -0.5099
  178SOPE   C3120258   7.017   5.784  10.283  0.1403  0.3730 -0.1960
  178SOPE   O3220259   7.012   5.743  10.399 -0.7395  0.1168 -0.3057
  178SOPE   C3220260   7.096   5.715  10.167  0.2563 -1.2547 -0.0425
  178SOPE   H2X20261   7.035   5.629  10.132 -0.2455 -0.7416 -0.4474
  178SOPE   H2Y20262   7.191   5.677  10.209 -0.0167 -1.7334  0.1497
  178SOPE   C2320263   7.349   6.156  10.098  0.5315 -0.3703 -0.1053
  178SOPE   H3R20264   7.372   6.049  10.114  0.0631 -0.1756  2.1404
  178SOPE   H3S20265   7.408   6.205  10.179  0.9275 -2.0562  0.6384
  178SOPE   C2420266   7.393   6.213   9.964  0.0645  0.3699 -0.1734
  178SOPE   H4R20267   7.339   6.310   9.961 -0.2866  0.1598 -0.9056
  178SOPE   H4S20268   7.502   6.232   9.953  0.7309 -3.7673 -1.6957
  178SOPE   C2520269   7.348   6.134   9.834  0.4406  0.4102 -0.0323
  178SOPE   H5R20270   7.373   6.026   9.848  0.6727  0.2168 -1.8233
  178SOPE   H5S20271   7.237   6.146   9.831  0.1493 -2.0462 -0.5460
  178SOPE   C2620272   7.403   6.209   9.715  0.7118 -0.1751  0.2580
  178SOPE   H6R20273   7.405   6.319   9.736  0.7830 -0.2397  0.5988
  178SOPE   H6S20274   7.510   6.184   9.700  0.2913 -1.0169 -1.4082
  178SOPE   C2720275   7.330   6.175   9.586 -0.7023 -0.7810 -0.7743
  178SOPE   H7R20276   7.222   6.201   9.592 -0.3855  0.2444  0.8308
  178SOPE   H7S20277   7.376   6.241   9.510 -0.0551 -0.5699 -0.2061
  178SOPE   C2820278   7.334   6.022   9.537  0.2252  0.6656  0.2010
  178SOPE   H8R20279   7.441   5.996   9.518 -0.1876 -0.0736 -1.1643
  178SOPE   H8S20280   7.300   5.967   9.627 -1.7201  0.3830 -0.6864
  178SOPE   C2920281   7.258   5.999   9.410 -0.1126  0.2473 -0.2717
  178SOPE   H9120282   7.154   5.964   9.415  0.5237 -1.7099 -0.2504
  178SOPE  C21020283   7.305   6.001   9.289  0.0661  1.1419 -0.5173
  178SOPE  H10120284   7.238   5.977   9.206 -0.1781  2.1497 -0.6159
  178SOPE  C21120285   7.454   6.011   9.247 -1.0992 -0.1366  0.6492
  178SOPE  H11R20286   7.498   5.910   9.237  0.8519  0.9216 -1.9148
  178SOPE  H11S20287   7.510   6.070   9.322  0.9769  0.0403 -1.0091
  178SOPE  C21220288   7.474   6.085   9.112 -0.1760 -0.4989 -1.0615
  178SOPE  H12R20289   7.578   6.118   9.092 -1.0636  2.5771 -0.9392
  178SOPE  H12S20290   7.422   6.183   9.110 -0.7165 -0.7805 -0.9683
  178SOPE  C21320291   7.424   6.004   8.993 -0.2160  0.0673  0.0890
  178SOPE  H13R20292   7.322   5.961   9.003  0.3011 -1.0408  0.7835
  178SOPE  H13S20293   7.478   5.907   8.984 -1.0777 -0.2930 -1.4534
  178SOPE  C21420294   7.449   6.085   8.870 -1.3321 -0.7664 -0.1282
  178SOPE  H14R20295   7.555   6.119   8.872 -0.5247 -3.0996 -1.5713
  178SOPE  H14S20296   7.386   6.176   8.875 -0.5557 -0.1609 -1.2010
  178SOPE  C21520297   7.400   6.017   8.743  0.1027  0.2863  0.9080
  178SOPE  H15R20298   7.415   6.086   8.657 -1.9060  0.7954  0.9437
  178SOPE  H15S20299   7.289   6.010   8.747 -0.0894 -0.5007 -3.5322
  178SOPE  C21620300   7.461   5.890   8.703  0.0140 -0.4572  0.1208
  178SOPE  H16R20301   7.432   5.857   8.601  3.6584 -1.4505 -0.6454
  178SOPE  H16S20302   7.425   5.809   8.770 -1.0017  1.3730  1.8329
  178SOPE  C21720303   7.618   5.883   8.713  0.4943  0.6405 -0.3462
  178SOPE  H17R20304   7.651   5.919   8.813  0.5525  1.3148 -0.6056
  178SOPE  H17S20305   7.666   5.939   8.630 -0.2720 -2.5324 -3.0289
  178SOPE  C21820306   7.671   5.743   8.702  0.2499  0.0539  0.5140
  178SOPE  H18R20307   7.641   5.697   8.605 -1.1496 -0.0788  0.9896
  178SOPE  H18S20308   7.628   5.678   8.782  1.9559  0.4487  1.7779
  178SOPE  H18T20309   7.782   5.744   8.705  0.2762  0.1657 -0.4936
  178SOPE   C3320310   7.124   5.796  10.036  0.2909  0.3670 -0.1057
  178SOPE   H3X20311   7.170   5.893  10.063 -0.7982  0.9782 -0.4164
  178SOPE   H3Y20312   7.029   5.825   9.986  0.9535  3.9011  0.5950
  178SOPE   C3420313   7.212   5.738   9.921 -0.0555 -0.6278 -0.3017
  178SOPE   H4X20314   7.316   5.745   9.960 -0.0830 -0.8299 -0.1928
  178SOPE   H4Y20315   7.213   5.800   9.829  0.0227  0.4480  0.4150
  178SOPE   C3520316   7.186   5.591   9.886 -0.1655  0.9034  0.1335
  178SOPE   H5X20317   7.079   5.580   9.858 -0.7020  3.8989  0.7855
  178SOPE   H5Y20318   7.207   5.533   9.979  0.1916 -1.7349 -1.5533
  178SOPE   C3620319   7.291   5.535   9.787  0.5801  0.1811 -0.6174
  178SOPE   H6X20320   7.277   5.425   9.788 -1.0081  0.3679 -0.2160
  178SOPE   H6Y20321   7.394   5.563   9.820  0.2797  1.3423 -0.6261
  178SOPE   C3720322   7.274   5.602   9.649  0.1184  0.2983 -0.4103
  178SOPE   H7X20323   7.302   5.709   9.666 -1.9493  0.7420  0.3936
  178SOPE   H7Y20324   7.167   5.601   9.620  0.2973  1.1937 -1.1501
  178SOPE   C3820325   7.363   5.546   9.538  0.8023 -0.5558 -0.5739
  178SOPE   H8X20326   7.342   5.437   9.534 -1.6884 -0.0439 -2.2824
  178SOPE   H8Y20327   7.468   5.557   9.572  0.3537  2.7569 -0.1084
  178SOPE   C3920328   7.339   5.610   9.401  0.0684 -0.0230  0.2995
  178SOPE   H9X20329   7.365   5.718   9.404  0.6613 -0.1976  1.8213
  178SOPE   H9Y20330   7.232   5.600   9.373  0.5093 -1.2851 -0.9696
  178SOPE  C31020331   7.434   5.538   9.297 -1.0112  0.7689  0.4502
  178SOPE  H10X20332   7.407   5.430   9.295 -0.8298  0.7362 -0.4204
  178SOPE  H10Y20333   7.540   5.548   9.331 -0.2817 -3.3358 -0.3516
  178SOPE  C31120334   7.443   5.600   9.157  0.5003 -0.0241  0.4002
  178SOPE  H11X20335   7.527   5.555   9.099 -0.0273  2.9411 -2.8862
  178SOPE  H11Y20336   7.455   5.710   9.167 -0.4687  0.1846 -0.5602
  178SOPE  C31220337   7.319   5.584   9.072 -0.2984  0.0776  0.3467
  178SOPE  H12X20338   7.316   5.653   8.986  0.0849 -1.0983 -0.6168
  178SOPE  H12Y20339   7.233   5.623   9.131 -1.9192 -0.6583 -1.4597
  178SOPE  C31320340   7.278   5.440   9.027 -0.6905  0.6990  0.3068
  178SOPE  H13X20341   7.182   5.455   8.974 -2.8646 -1.4797  3.4456
  178SOPE  H13Y20342   7.258   5.376   9.116 -1.1107  0.6149  0.1543
  178SOPE  C31420343   7.376   5.373   8.937  0.0708 -0.4930  0.1990
  178SOPE  H14X20344   7.473   5.339   8.981  0.3036 -0.6682 -0.4440
  178SOPE  H14Y20345   7.402   5.457   8.869 -1.7134  0.2989  0.4624
  178SOPE  C31520346   7.308   5.256   8.871  0.1411 -0.3097 -1.4912
  178SOPE  H15X20347   7.361   5.232   8.776  0.1140 -0.3544 -1.4950
  178SOPE  H15Y20348   7.206   5.286   8.838 -0.6725  0.4402  1.5705
  178SOPE  C31620349   7.293   5.126   8.950  0.4529 -0.2718 -0.0609
  178SOPE  H16X20350   7.215   5.146   9.028  1.5828 -0.6899  1.1970
  178SOPE  H16Y20351   7.385   5.096   9.004 -1.6245 -2.2735  2.5580
  178SOPE  C31720352   7.252   5.016   8.852 -0.6055  0.2956  0.3131
  178SOPE  H17X20353   7.336   4.999   8.781 -0.1098 -0.1455  0.9922
  178SOPE  H17Y20354   7.161   5.055   8.801 -0.8045 -0.2256  0.2680
  178SOPE  C31820355   7.229   4.872   8.910 -0.5499 -0.3873  1.0886
  178SOPE  H18X20356   7.131   4.867   8.963 -0.1462 -1.6459  1.7274
  178SOPE  H18Y20357   7.309   4.855   8.985  0.2140  0.7682  0.5475
  178SOPE  H18Z20358   7.234   4.798   8.828  1.5680  2.4519 -1.4645
  179SOPE     N20359   0.066   0.703   6.511  0.7239 -0.4092 -0.0765
  179SOPE   HN120360   0.007   0.703   6.425  2.3953 -0.7285 -1.2356
  179SOPE   HN220361   0.164   0.727   6.489  0.7500  0.2617  0.7331
  179SOPE   HN320362   0.073   0.604   6.543  2.9461 -0.5911 -1.0662
  179SOPE   C1220363   0.008   0.796   6.615 -0.6466  0.1984  0.4033
  179SOPE  H12A20364   0.075   0.799   6.703  4.2554  0.7976 -3.1238
  179SOPE  H12B20365  -0.090   0.754   6.647 -0.3616 -0.8369 -0.0368
  179SOPE   C1120366   0.010   0.945   6.559 -0.5724 -0.1921 -0.7914
  179SOPE  H11A20367   0.115   0.969   6.534 -1.2782  1.1277 -2.6429
  179SOPE  H11B20368  -0.022   1.015   6.640  0.0587  0.8490 -1.4274
  179SOPE     P20369  -0.227   1.029   6.448 -0.2226  0.0693  0.0033
  179SOPE   O1320370  -0.297   1.027   6.581 -0.0853  0.1549  0.2206
  179SOPE   O1420371  -0.300   0.959   6.344  0.5070 -0.1561  0.3849
  179SOPE   O1220372  -0.084   0.957   6.452 -0.1124  0.0882  0.2264
  179SOPE   O1120373  -0.197   1.175   6.407 -0.2461  0.4821 -0.2068
  179SOPE    C120374  -0.086   1.260   6.439 -0.0464  0.0635  0.2253
  179SOPE    HA20375  -0.048   1.303   6.344  1.3840 -2.6441 -0.4638
  179SOPE    HB20376   0.000   1.207   6.485  0.3078 -0.4816 -1.0553
  179SOPE    C220377  -0.140   1.371   6.532  0.8542 -0.4423 -0.4849
  179SOPE    HS20378  -0.063   1.445   6.562  0.9281 -0.2498 -1.1442
  179SOPE   O2120379  -0.216   1.313   6.651 -0.4855  0.2355  0.1169
  179SOPE   C2120380  -0.129   1.287   6.751 -0.6798  0.6956 -0.6147
  179SOPE   O2220381  -0.005   1.311   6.753  0.4016  0.4729 -0.1431
  179SOPE   C2220382  -0.197   1.194   6.860  0.1692 -0.5837 -0.4499
  179SOPE   H2R20383  -0.133   1.110   6.894 -0.2207 -0.6791  0.0631
  179SOPE   H2S20384  -0.281   1.149   6.803 -0.1879  0.6284 -0.8920
  179SOPE    C320385  -0.230   1.467   6.453  0.3124 -0.3618 -0.0163
  179SOPE    HX20386  -0.327   1.423   6.420  0.7667 -1.3456 -0.0725
  179SOPE    HY20387  -0.166   1.479   6.364 -0.3504  0.4856 -0.3824
  179SOPE   O3120388  -0.241   1.599   6.506  0.3324 -0.5203  0.4524
  179SOPE   C3120389  -0.326   1.610   6.616 -0.2667 -0.0487  0.7249
  179SOPE   O3220390  -0.401   1.519   6.653  0.1225  0.1293 -0.0079
  179SOPE   C3220391  -0.313   1.748   6.693 -0.6966 -0.4017  0.2572
  179SOPE   H2X20392  -0.412   1.797   6.677 -1.3233 -2.3743 -2.4356
  179SOPE   H2Y20393  -0.227   1.807   6.656  0.1160 -0.0633  2.6360
  179SOPE   C2320394  -0.234   1.291   6.981 -0.3422  0.3553  0.8684
  179SOPE   H3R20395  -0.304   1.368   6.944  0.9453  0.6660 -0.9992
  179SOPE   H3S20396  -0.140   1.338   7.017 -0.0673 -0.4772  1.2628
  179SOPE   C2420397  -0.291   1.224   7.104 -0.1732 -0.5372  0.9129
  179SOPE   H4R20398  -0.392   1.186   7.078  0.7097 -2.5880  0.3641
  179SOPE   H4S20399  -0.227   1.138   7.134  1.8909  0.4141 -0.6239
  179SOPE   C2520400  -0.311   1.306   7.234 -0.6620  0.0387 -0.2111
  179SOPE   H5R20401  -0.205   1.328   7.258 -0.8492 -0.3490  1.0046
  179SOPE   H5S20402  -0.358   1.406   7.227 -0.8606  0.0772  1.4571
  179SOPE   C2620403  -0.369   1.224   7.350  0.6883  0.1783  0.5617
  179SOPE   H6R20404  -0.472   1.198   7.316  1.5752 -0.8461 -1.3911
  179SOPE   H6S20405  -0.320   1.125   7.368  1.9380  0.6440 -0.2357
  179SOPE   C2720406  -0.375   1.313   7.475 -0.8481  0.0313  0.6891
  179SOPE   H7R20407  -0.276   1.359   7.497 -0.5451  0.5278 -1.6349
  179SOPE   H7S20408  -0.439   1.399   7.445 -1.4272 -0.4168  0.6343
  179SOPE   C2820409  -0.430   1.244   7.600 -0.2325 -0.2780 -0.3248
  179SOPE   H8R20410  -0.398   1.138   7.591 -1.3566 -0.6291 -0.3528
  179SOPE   H8S20411  -0.380   1.287   7.689 -0.9680 -0.9900  0.4417
  179SOPE   C2920412  -0.582   1.254   7.599 -0.1049  0.5674 -0.1171
  179SOPE   H9120413  -0.631   1.232   7.503 -0.0761 -0.9643  0.2087
  179SOPE  C21020414  -0.664   1.282   7.705  0.2974 -0.7491  0.0606
  179SOPE  H10120415  -0.772   1.275   7.684  0.5205 -3.2862 -0.4748
  179SOPE  C21120416  -0.612   1.316   7.842  0.1137  1.1090  0.0781
  179SOPE  H11R20417  -0.656   1.415   7.864  0.2865  1.3413 -0.6049
  179SOPE  H11S20418  -0.501   1.321   7.845  0.4252 -3.4644 -0.0872
  179SOPE  C21220419  -0.668   1.214   7.939  0.3770 -0.1978  0.2560
  179SOPE  H12R20420  -0.637   1.108   7.924 -0.4171 -0.4882  0.6576
  179SOPE  H12S20421  -0.779   1.216   7.944  0.3749 -0.8590  0.5502
  179SOPE  C21320422  -0.625   1.257   8.082 -0.3877 -0.4745  0.0080
  179SOPE  H13R20423  -0.661   1.361   8.098 -1.5936 -0.8886  0.0536
  179SOPE  H13S20424  -0.514   1.251   8.087 -0.2713  1.9694  0.9883
  179SOPE  C21420425  -0.691   1.169   8.197 -0.6091 -0.4081  0.1492
  179SOPE  H14R20426  -0.694   1.059   8.180 -0.6364 -0.6838  1.7863
  179SOPE  H14S20427  -0.793   1.213   8.199  0.5803  2.5132 -0.5654
  179SOPE  C21520428  -0.634   1.203   8.334  0.1403  0.4924 -1.0048
  179SOPE  H15R20429  -0.644   1.312   8.356 -1.4084 -0.1808  1.7505
  179SOPE  H15S20430  -0.527   1.178   8.322  0.6280  1.7432  0.6041
  179SOPE  C21620431  -0.704   1.125   8.447 -0.0567  0.6549 -0.5264
  179SOPE  H16R20432  -0.714   1.018   8.417  4.2482  0.2393 -0.8348
  179SOPE  H16S20433  -0.808   1.162   8.445 -0.6984 -1.0953  0.0255
  179SOPE  C21720434  -0.633   1.153   8.584 -0.4955  0.6022  0.3244
  179SOPE  H17R20435  -0.611   1.261   8.601  1.3381  0.1688  0.8399
  179SOPE  H17S20436  -0.530   1.111   8.590 -0.6678 -0.1826 -1.7927
  179SOPE  C21820437  -0.708   1.101   8.703  0.3212  0.3367  0.1641
  179SOPE  H18R20438  -0.817   1.104   8.682  0.4207  0.1978 -0.3748
  179SOPE  H18S20439  -0.687   1.168   8.790 -1.2366  1.1683 -0.0825
  179SOPE  H18T20440  -0.669   1.001   8.732  0.1198  0.8183  2.2100
  179SOPE   C3320441  -0.293   1.724   6.843  0.0433 -0.2839  0.5745
  179SOPE   H3X20442  -0.374   1.664   6.890  0.6911 -2.0661 -0.5280
  179SOPE   H3Y20443  -0.298   1.825   6.890 -0.3519  0.7595 -1.6022
  179SOPE   C3420444  -0.157   1.654   6.872 -0.0082 -0.2600 -0.1613
  179SOPE   H4X20445  -0.075   1.713   6.826  0.8279 -0.0307  1.5684
  179SOPE   H4Y20446  -0.168   1.557   6.820 -2.7365  0.4548 -1.0457
  179SOPE   C3520447  -0.134   1.636   7.018  0.2539 -0.0470  0.2286
  179SOPE   H5X20448  -0.206   1.575   7.078  1.4088 -0.0406  1.6519
  179SOPE   H5Y20449  -0.124   1.734   7.070  3.2650 -0.0759 -0.2084
  179SOPE   C3620450   0.008   1.568   7.052 -0.5101 -0.4956 -0.1322
  179SOPE   H6X20451   0.089   1.632   7.010 -0.0486 -1.5918 -0.9464
  179SOPE   H6Y20452   0.017   1.468   7.005  0.5075 -0.3638 -0.2279
  179SOPE   C3720453   0.039   1.557   7.201  0.8158  0.0311 -0.7137
  179SOPE   H7X20454  -0.049   1.513   7.251 -0.2292  0.4943 -2.1246
  179SOPE   H7Y20455   0.062   1.656   7.247  1.4356 -0.0494 -0.8342
  179SOPE   C3820456   0.167   1.479   7.229 -0.4293 -0.6517  0.4635
  179SOPE   H8X20457   0.241   1.546   7.180 -0.6151  0.6354  1.8917
  179SOPE   H8Y20458   0.155   1.384   7.174  0.2936  0.3628 -1.5187
  179SOPE   C3920459   0.200   1.456   7.379 -0.1128 -0.4654  0.8969
  179SOPE   H9X20460   0.224   1.558   7.417 -1.9648  0.6195 -0.7427
  179SOPE   H9Y20461   0.290   1.392   7.385 -0.8178 -1.6557 -0.9963
  179SOPE  C31020462   0.089   1.387   7.459  0.0250  0.0323  0.0227
  179SOPE  H10X20463   0.083   1.299   7.391  0.9147  0.6623 -0.8860
  179SOPE  H10Y20464  -0.009   1.438   7.471 -0.6980 -1.3499  0.2074
  179SOPE  C31120465   0.133   1.354   7.603 -0.6256 -0.5364 -0.1044
  179SOPE  H11X20466   0.171   1.450   7.645 -2.1447 -0.0222  0.1449
  179SOPE  H11Y20467   0.228   1.297   7.598  0.7169  1.5266  1.2323
  179SOPE  C31220468   0.029   1.286   7.690  0.1850 -0.2337 -0.2457
  179SOPE  H12X20469   0.013   1.186   7.644 -0.4253 -0.4941  0.5282
  179SOPE  H12Y20470  -0.061   1.350   7.701 -0.2740 -1.0350  0.7604
  179SOPE  C31320471   0.087   1.279   7.827 -0.2663 -0.1723 -0.3023
  179SOPE  H13X20472   0.127   1.375   7.866 -0.8920 -0.0763  0.1148
  179SOPE  H13Y20473   0.167   1.204   7.840 -1.2091 -0.8500  1.8090
  179SOPE  C31420474  -0.017   1.229   7.928  0.3104  1.1690 -0.1974
  179SOPE  H14X20475  -0.057   1.134   7.888 -1.9693  2.0710 -0.1410
  179SOPE  H14Y20476  -0.103   1.300   7.930 -0.5177  0.1737 -0.0479
  179SOPE  C31520477   0.031   1.217   8.071 -0.3152 -0.6198  0.9077
  179SOPE  H15X20478   0.068   1.312   8.114  0.7400  1.1072 -3.4996
  179SOPE  H15Y20479   0.125   1.160   8.088 -0.4688 -1.1533  0.0026
  179SOPE  C31620480  -0.075   1.159   8.167  0.4281 -0.9023 -0.1540
  179SOPE  H16X20481  -0.118   1.063   8.132 -3.4007 -0.3446  2.7349
  179SOPE  H16Y20482  -0.159   1.230   8.180  1.1458 -0.6346  3.4329
  179SOPE  C31720483  -0.010   1.132   8.308 -0.4753 -0.4815  0.3481
  179SOPE  H17X20484   0.041   1.219   8.355  0.5230 -0.2640 -1.1274
  179SOPE  H17Y20485   0.069   1.054   8.308 -0.6029 -0.6330  2.2895
  179SOPE  C31820486  -0.113   1.085   8.413  0.1418 -0.2942  0.0292
  179SOPE  H18X20487  -0.064   1.062   8.509 -0.2593 -0.9469  0.0833
  179SOPE  H18Y20488  -0.171   1.001   8.368 -1.9546 -0.8713  3.6498
  179SOPE  H18Z20489  -0.185   1.168   8.431  0.4106 -0.2035  0.7056
  180SOPE     N20490   6.301   0.753   6.355 -0.0231 -0.3586 -0.2866
  180SOPE   HN120491   6.229   0.747   6.281 -1.1193  0.4355  0.7075
  180SOPE   HN220492   6.378   0.814   6.322 -0.6148  0.6516  0.1872
  180SOPE   HN320493   6.338   0.656   6.353 -0.0718 -0.3546 -2.9620
  180SOPE   C1220494   6.248   0.772   6.494 -0.3168 -0.2282 -0.3238
  180SOPE  H12A20495   6.230   0.880   6.515  3.1638  0.8654 -2.5354
  180SOPE  H12B20496   6.323   0.729   6.565 -0.8367  1.0587  1.0366
  180SOPE   C1120497   6.111   0.692   6.505  0.4901  0.0445 -0.9958
  180SOPE  H11A20498   6.071   0.727   6.603  0.3218 -0.2239 -0.9677
  180SOPE  H11B20499   6.133   0.583   6.513  0.1370  0.1243  1.5795
  180SOPE     P20500   5.957   0.837   6.345 -0.0649  0.1792  0.0770
  180SOPE   O1320501   5.845   0.818   6.248 -0.0687 -0.1466  0.2833
  180SOPE   O1420502   6.072   0.916   6.294 -0.1726 -0.5806  0.1354
  180SOPE   O1220503   6.029   0.700   6.390 -0.1500  0.2788  0.0053
  180SOPE   O1120504   5.916   0.906   6.482  0.1064 -0.0127 -0.9229
  180SOPE    C120505   5.804   0.842   6.548 -0.0487  0.3903 -0.5415
  180SOPE    HA20506   5.814   0.733   6.565  1.0150  0.6670  0.6794
  180SOPE    HB20507   5.707   0.869   6.501  1.3183  2.8452 -2.0393
  180SOPE    C220508   5.802   0.889   6.692  0.6314  0.3901 -0.4680
  180SOPE    HS20509   5.887   0.843   6.747 -0.2224  0.7395  1.1905
  180SOPE   O2120510   5.674   0.882   6.752  0.1482 -0.0797 -0.3005
  180SOPE   C2120511   5.660   0.762   6.811  0.5380  0.4953 -0.2426
  180SOPE   O2220512   5.737   0.665   6.809 -0.3439 -0.0012  0.7168
  180SOPE   C2220513   5.523   0.747   6.890 -0.1432  0.3086  0.1351
  180SOPE   H2R20514   5.454   0.707   6.812 -1.4386  1.5219  0.6404
  180SOPE   H2S20515   5.481   0.844   6.925  0.7305 -0.1673  2.6031
  180SOPE    C320516   5.840   1.036   6.692 -0.4314 -0.7157 -0.3606
  180SOPE    HX20517   5.787   1.091   6.612 -0.2010  2.5568  1.6802
  180SOPE    HY20518   5.945   1.034   6.656 -0.1975  0.8135  0.2276
  180SOPE   O3120519   5.844   1.097   6.824  0.3039 -0.5372  0.8092
  180SOPE   C3120520   5.739   1.157   6.864 -0.6169 -0.8664  0.6125
  180SOPE   O3220521   5.637   1.175   6.804 -0.1277  0.6948  0.2639
  180SOPE   C3220522   5.758   1.205   7.011 -0.1025  0.7238 -0.0024
  180SOPE   H2X20523   5.816   1.299   7.007  1.8146 -0.4262  0.5902
  180SOPE   H2Y20524   5.813   1.129   7.071 -1.4123  0.7472  1.2663
  180SOPE   C2320525   5.540   0.644   7.000 -0.4185 -0.3957  0.1638
  180SOPE   H3R20526   5.605   0.560   6.967 -1.5610 -2.0463  1.9850
  180SOPE   H3S20527   5.439   0.601   7.022 -0.5797  0.1681  0.5484
  180SOPE   C2420528   5.595   0.695   7.130 -0.2076  0.8499 -0.5550
  180SOPE   H4R20529   5.643   0.612   7.185 -2.1308  0.4880  0.6212
  180SOPE   H4S20530   5.669   0.778   7.127  3.6693 -2.2487  3.2889
  180SOPE   C2520531   5.480   0.751   7.223  0.0747  0.0415  0.3087
  180SOPE   H5R20532   5.413   0.823   7.171 -1.2590 -1.2799  0.1517
  180SOPE   H5S20533   5.417   0.664   7.248  1.6384 -0.8783  1.1250
  180SOPE   C2620534   5.531   0.805   7.354 -0.5958  0.1706  0.0705
  180SOPE   H6R20535   5.580   0.725   7.414 -0.1179  0.3724 -0.0466
  180SOPE   H6S20536   5.602   0.885   7.322 -1.5221  1.4369  1.1205
  180SOPE   C2720537   5.418   0.858   7.445  0.1261 -0.2486 -0.0281
  180SOPE   H7R20538   5.337   0.903   7.385 -0.4867 -1.7756 -0.3749
  180SOPE   H7S20539   5.366   0.778   7.502 -1.0253  0.4437 -0.0976
  180SOPE   C2820540   5.475   0.961   7.540 -0.3669 -0.1206  0.7726
  180SOPE   H8R20541   5.491   1.047   7.472 -0.5942 -2.1185 -1.8728
  180SOPE   H8S20542   5.388   0.987   7.604 -1.2181  2.5879 -1.3738
  180SOPE   C2920543   5.603   0.923   7.613  0.7432  0.4412 -1.1238
  180SOPE   H9120544   5.685   0.887   7.549  0.2848 -2.8392  0.0349
  180SOPE  C21020545   5.637   0.953   7.739  0.0084  0.1570 -0.2734
  180SOPE  H10120546   5.731   0.918   7.786 -0.6180 -0.2790  0.6787
  180SOPE  C21120547   5.542   1.028   7.835 -0.2089  0.1861  0.2625
  180SOPE  H11R20548   5.456   1.068   7.777 -0.3299  0.1545  0.4231
  180SOPE  H11S20549   5.585   1.122   7.876 -1.3213  1.9741 -2.5020
  180SOPE  C21220550   5.496   0.941   7.957  0.0733 -0.0638  0.6966
  180SOPE  H12R20551   5.475   0.999   8.049 -0.9556  0.2579  0.2652
  180SOPE  H12S20552   5.589   0.883   7.974  0.7574  0.8376  0.1175
  180SOPE  C21320553   5.378   0.842   7.929 -0.2134 -0.6088  0.2134
  180SOPE  H13R20554   5.394   0.790   7.832  1.1053  0.5318 -0.2003
  180SOPE  H13S20555   5.291   0.905   7.901 -0.2700 -1.1522 -0.8657
  180SOPE  C21420556   5.334   0.749   8.039 -0.6222 -0.1424 -0.2620
  180SOPE  H14R20557   5.416   0.682   8.074 -1.2892 -0.7289  0.2235
  180SOPE  H14S20558   5.257   0.676   8.005 -0.7651 -0.1699  0.1151
  180SOPE  C21520559   5.287   0.824   8.160  1.0760  0.3055  0.0779
  180SOPE  H15R20560   5.216   0.901   8.123  0.7341 -0.5188 -0.9957
  180SOPE  H15S20561   5.374   0.877   8.203  1.2604  1.0736 -1.2397
  180SOPE  C21620562   5.223   0.747   8.281 -0.4579  0.5442 -0.0468
  180SOPE  H16R20563   5.308   0.683   8.313  0.3247  1.0287 -1.1203
  180SOPE  H16S20564   5.143   0.682   8.240 -1.7895  2.1192 -0.0136
  180SOPE  C21720565   5.179   0.836   8.404 -0.3216 -0.3879 -0.0540
  180SOPE  H17R20566   5.274   0.887   8.430 -0.6649  1.1784 -1.7402
  180SOPE  H17S20567   5.143   0.770   8.486  1.5309 -0.7516  0.4852
  180SOPE  C21820568   5.079   0.941   8.365 -0.1672  0.6125 -1.0827
  180SOPE  H18R20569   5.064   1.002   8.457 -0.9360 -1.5113  0.2507
  180SOPE  H18S20570   4.981   0.914   8.321 -1.7831  2.4175  1.2933
  180SOPE  H18T20571   5.126   1.004   8.287  0.4998 -1.2192 -2.1973
  180SOPE   C3320572   5.630   1.223   7.099  0.5499  0.1021 -0.0526
  180SOPE   H3X20573   5.576   1.127   7.113 -0.7231  0.6826 -0.9369
  180SOPE   H3Y20574   5.563   1.284   7.035 -0.2254 -2.7408 -2.0576
  180SOPE   C3420575   5.671   1.281   7.231 -0.1399 -0.7438 -0.7206
  180SOPE   H4X20576   5.731   1.374   7.226 -2.1274  0.6679  0.8391
  180SOPE   H4Y20577   5.749   1.216   7.277 -0.7560 -1.1832 -0.2883
  180SOPE   C3520578   5.551   1.297   7.316 -0.1166 -0.1861  0.1133
  180SOPE   H5X20579   5.490   1.205   7.305 -0.8592  0.2863  0.2622
  180SOPE   H5Y20580   5.494   1.383   7.275 -0.0625  0.1782  0.7946
  180SOPE   C3620581   5.602   1.336   7.456 -0.0393  0.2059  0.3092
  180SOPE   H6X20582   5.648   1.433   7.427  2.1250 -1.4599 -1.9614
  180SOPE   H6Y20583   5.673   1.268   7.507 -0.7157 -0.1261  0.8148
  180SOPE   C3720584   5.478   1.365   7.539 -0.1606 -0.2713  0.4779
  180SOPE   H7X20585   5.432   1.265   7.553  1.8101 -1.7156 -2.7689
  180SOPE   H7Y20586   5.403   1.427   7.484  0.7689  0.6661  0.2585
  180SOPE   C3820587   5.506   1.415   7.681  0.2808  0.4221  0.0849
  180SOPE   H8X20588   5.539   1.521   7.682  0.5459  0.3845 -1.8278
  180SOPE   H8Y20589   5.585   1.349   7.722  1.4197  0.5819 -1.7632
  180SOPE   C3920590   5.377   1.409   7.773 -0.2208  0.9185  0.6665
  180SOPE   H9X20591   5.359   1.302   7.798  1.3376  0.0454 -1.7191
  180SOPE   H9Y20592   5.285   1.444   7.721 -2.7405 -3.6919  1.6537
  180SOPE  C31020593   5.401   1.501   7.897  0.1273 -0.6837  0.0803
  180SOPE  H10X20594   5.304   1.520   7.949 -0.0600  0.5286 -0.7051
  180SOPE  H10Y20595   5.441   1.600   7.866 -1.2181 -0.2119 -0.2188
  180SOPE  C31120596   5.497   1.447   8.004  0.7637  0.3057  0.3209
  180SOPE  H11X20597   5.534   1.529   8.069  2.2118  0.4855 -0.7188
  180SOPE  H11Y20598   5.587   1.407   7.953 -0.7971 -3.1209  0.0689
  180SOPE  C31220599   5.431   1.343   8.102  0.1382 -0.4815  0.4006
  180SOPE  H12X20600   5.369   1.273   8.041  1.5072  0.3244 -1.9745
  180SOPE  H12Y20601   5.362   1.403   8.163  0.0281  2.6084 -2.5934
  180SOPE  C31320602   5.532   1.282   8.204 -0.6248 -0.4482 -0.2217
  180SOPE  H13X20603   5.593   1.363   8.248  1.2493 -2.0196  0.1814
  180SOPE  H13Y20604   5.612   1.220   8.158 -0.7924 -0.7723 -0.0790
  180SOPE  C31420605   5.458   1.219   8.320  0.7802  0.1729 -0.3209
  180SOPE  H14X20606   5.381   1.156   8.270  0.1065 -0.0971  1.0331
  180SOPE  H14Y20607   5.398   1.295   8.375  2.0242  0.1627  1.1140
  180SOPE  C31520608   5.534   1.132   8.418 -1.3252  1.4441 -0.0512
  180SOPE  H15X20609   5.578   1.036   8.383 -1.0585  1.1507  1.0513
  180SOPE  H15Y20610   5.476   1.096   8.506  0.3542 -3.1820 -0.6976
  180SOPE  C31620611   5.655   1.203   8.476  0.4571  0.3922  0.3662
  180SOPE  H16X20612   5.637   1.309   8.504 -0.6496 -0.2539  2.1978
  180SOPE  H16Y20613   5.735   1.199   8.399  0.7600 -1.9665  0.7707
  180SOPE  C31720614   5.707   1.138   8.607  0.3617  0.2079  0.5958
  180SOPE  H17X20615   5.809   1.179   8.622  0.4106  1.0748 -1.8802
  180SOPE  H17Y20616   5.718   1.029   8.585 -0.3226  0.3989 -0.7395
  180SOPE  C31820617   5.617   1.160   8.725  0.0625  0.5067  0.4500
  180SOPE  H18X20618   5.573   1.261   8.713 -1.7143 -0.2217  0.7027
  180SOPE  H18Y20619   5.666   1.142   8.823 -1.4965  2.6824  1.6588
  180SOPE  H18Z20620   5.529   1.092   8.728  2.0168 -2.1524 -0.5859
  181SOPE     N20621   5.140   5.854   5.976 -0.4152  0.1808  0.1129
  181SOPE   HN120622   5.180   5.907   6.056  0.6552 -0.3230 -0.0732
  181SOPE   HN220623   5.205   5.776   5.954 -1.7910 -1.3182  1.2400
  181SOPE   HN320624   5.128   5.921   5.897 -1.1623  2.0558  1.7961
  181SOPE   C1220625   5.009   5.791   6.021  0.0877  0.0669  0.0722
  181SOPE  H12A20626   4.955   5.759   5.930  3.5028 -0.9325 -1.6875
  181SOPE  H12B20627   4.950   5.876   6.062 -1.5970 -0.4820 -1.1656
  181SOPE   C1120628   5.021   5.684   6.127  0.0774  0.4664 -0.8264
  181SOPE  H11A20629   4.920   5.661   6.168  0.8762 -2.8466 -0.5952
  181SOPE  H11B20630   5.080   5.711   6.217  1.2109 -0.8616 -1.1496
  181SOPE     P20631   5.007   5.441   6.026  0.2140  0.3197 -0.0002
  181SOPE   O1320632   5.030   5.423   5.878  0.1276 -0.1258  0.5098
  181SOPE   O1420633   4.866   5.439   6.076 -0.8493  0.1077  0.2376
  181SOPE   O1220634   5.088   5.570   6.071  0.7856 -0.1261 -0.4835
  181SOPE   O1120635   5.087   5.329   6.090 -0.3085 -0.1918 -0.4623
  181SOPE    C120636   5.230   5.330   6.108  0.5873 -0.6613 -0.2666
  181SOPE    HA20637   5.289   5.397   6.042  0.0028 -0.8990 -1.0522
  181SOPE    HB20638   5.261   5.226   6.087  1.1127 -0.3652 -0.9937
  181SOPE    C220639   5.274   5.353   6.254  0.0942 -0.2563 -0.1608
  181SOPE    HS20640   5.277   5.257   6.309  1.1019  0.3878  0.9231
  181SOPE   O2120641   5.183   5.436   6.317 -0.2350  0.4246 -0.4262
  181SOPE   C2120642   5.079   5.381   6.386  0.4095  0.3223  1.0209
  181SOPE   O2220643   5.061   5.264   6.411  0.1720  0.5257  0.4911
  181SOPE   C2220644   4.983   5.499   6.416 -0.6309  0.0069  0.3973
  181SOPE   H2R20645   4.891   5.475   6.359 -0.8531  1.6531  0.0317
  181SOPE   H2S20646   5.030   5.595   6.384  1.4465 -0.2923  2.4647
  181SOPE    C320647   5.418   5.408   6.266 -0.0765  0.3107 -0.3174
  181SOPE    HX20648   5.427   5.491   6.193  2.4640  0.1770 -0.2086
  181SOPE    HY20649   5.494   5.334   6.232  0.5896  0.4420  0.8483
  181SOPE   O3120650   5.453   5.446   6.400  0.6097  0.3696  0.3417
  181SOPE   C3120651   5.440   5.577   6.431 -0.4584 -1.0368  0.1778
  181SOPE   O3220652   5.398   5.667   6.362  0.3229  0.0546 -0.1444
  181SOPE   C3220653   5.505   5.600   6.566  0.8795  0.5464  0.0565
  181SOPE   H2X20654   5.492   5.706   6.596  0.2262  0.5718 -0.2983
  181SOPE   H2Y20655   5.612   5.576   6.547  0.4981 -0.1186 -1.3333
  181SOPE   C2320656   4.926   5.514   6.564 -0.7781  0.0810 -0.4464
  181SOPE   H3R20657   4.861   5.425   6.578 -0.1152 -0.1553  1.1617
  181SOPE   H3S20658   4.850   5.595   6.567 -0.9007 -0.1167  3.8422
  181SOPE   C2420659   5.032   5.523   6.671  0.2257 -0.1284  0.6564
  181SOPE   H4R20660   5.105   5.440   6.669  1.0019  0.5299  1.3273
  181SOPE   H4S20661   5.077   5.621   6.644 -0.1827 -0.4051 -1.0746
  181SOPE   C2520662   4.982   5.538   6.817 -0.2527  0.0464 -0.1993
  181SOPE   H5R20663   4.929   5.636   6.825  0.3968  0.4013 -0.1775
  181SOPE   H5S20664   4.918   5.450   6.836  1.4396 -1.0482  0.5430
  181SOPE   C2620665   5.107   5.553   6.905 -0.1720 -0.0494 -0.1976
  181SOPE   H6R20666   5.171   5.466   6.878  1.9183  1.8710 -1.5669
  181SOPE   H6S20667   5.163   5.648   6.893 -0.2153 -0.0335 -0.2809
  181SOPE   C2720668   5.078   5.545   7.061  0.0175  0.7939 -0.2802
  181SOPE   H7R20669   4.985   5.487   7.077 -0.0710  1.2059  0.7354
  181SOPE   H7S20670   5.161   5.488   7.109 -0.8451 -1.8902 -1.8520
  181SOPE   C2820671   5.055   5.682   7.123 -0.0969 -0.1326  0.7317
  181SOPE   H8R20672   5.052   5.672   7.233  0.4569  1.5415  0.9099
  181SOPE   H8S20673   5.152   5.735   7.117  1.7732 -3.3853  0.7323
  181SOPE   C2920674   4.952   5.769   7.059 -0.2238  0.1325  0.4103
  181SOPE   H9120675   4.969   5.796   6.953 -0.0805 -3.0559 -0.4262
  181SOPE  C21020676   4.847   5.824   7.127  0.4605 -0.2068  1.0202
  181SOPE  H10120677   4.781   5.886   7.066 -1.6743 -1.0072  2.4745
  181SOPE  C21120678   4.812   5.810   7.270 -0.2208  0.8564  0.6903
  181SOPE  H11R20679   4.911   5.808   7.320  1.2288  2.1783 -2.0510
  181SOPE  H11S20680   4.764   5.712   7.291 -0.8350  1.3387  1.5973
  181SOPE  C21220681   4.725   5.928   7.317  0.5874  0.3805 -0.2242
  181SOPE  H12R20682   4.637   5.936   7.249  0.3164  1.7532  0.2730
  181SOPE  H12S20683   4.781   6.023   7.311 -0.7786  1.2057 -0.2382
  181SOPE  C21320684   4.701   5.918   7.468 -0.1070 -0.0776 -0.6011
  181SOPE  H13R20685   4.701   5.813   7.503 -2.0730  0.4314  1.0087
  181SOPE  H13S20686   4.600   5.958   7.490 -0.0080 -0.9054  1.5089
  181SOPE  C21420687   4.791   6.007   7.556  0.2121  0.6541 -0.4864
  181SOPE  H14R20688   4.763   6.114   7.560  0.9684  0.7995  1.3455
  181SOPE  H14S20689   4.892   6.004   7.509  0.7339  0.0128  0.6445
  181SOPE  C21520690   4.799   5.957   7.703 -0.6286  0.4323 -0.2187
  181SOPE  H15R20691   4.887   5.984   7.766  0.3432  0.8527 -1.7153
  181SOPE  H15S20692   4.802   5.846   7.693 -2.1540  0.4438 -0.8535
  181SOPE  C21620693   4.676   5.989   7.779 -0.5355 -0.4030 -0.8977
  181SOPE  H16R20694   4.687   5.947   7.881 -0.0611  0.8853 -0.4098
  181SOPE  H16S20695   4.595   5.933   7.727 -1.7894 -0.0056  0.6040
  181SOPE  C21720696   4.635   6.139   7.794 -0.2722 -0.1683  0.6337
  181SOPE  H17R20697   4.623   6.184   7.693  0.4644  1.1066  1.1017
  181SOPE  H17S20698   4.714   6.189   7.854  1.9014 -0.6588 -1.7207
  181SOPE  C21820699   4.500   6.152   7.866  0.1286  0.0121  0.2759
  181SOPE  H18R20700   4.478   6.253   7.909 -1.4675 -0.2939  0.2141
  181SOPE  H18S20701   4.493   6.082   7.951 -0.7870 -0.9672 -0.5884
  181SOPE  H18T20702   4.422   6.133   7.788  2.4172 -0.4083 -1.9638
  181SOPE   C3320703   5.447   5.512   6.686  0.4054  0.2227 -0.4065
  181SOPE   H3X20704   5.443   5.402   6.666  0.9795  0.1193  0.0472
  181SOPE   H3Y20705   5.339   5.535   6.696 -0.5792 -3.9724 -0.2247
  181SOPE   C3420706   5.495   5.545   6.832 -0.4364  0.0989  0.2166
  181SOPE   H4X20707   5.604   5.524   6.836 -0.3899  0.5128  1.3204
  181SOPE   H4Y20708   5.453   5.472   6.905 -0.9772  1.1450  0.9679
  181SOPE   C3520709   5.454   5.687   6.882  0.3983  0.2617  0.0580
  181SOPE   H5X20710   5.352   5.701   6.842  0.7764  0.8828 -0.6844
  181SOPE   H5Y20711   5.524   5.757   6.831 -0.9509  0.9829 -0.8335
  181SOPE   C3620712   5.475   5.708   7.032 -0.6506 -0.0902  0.5863
  181SOPE   H6X20713   5.424   5.630   7.093  1.1365 -0.5103  1.5958
  181SOPE   H6Y20714   5.427   5.804   7.060 -1.6860 -0.2324 -0.6464
  181SOPE   C3720715   5.621   5.704   7.079  0.2526  0.1814 -0.0650
  181SOPE   H7X20716   5.675   5.784   7.024 -1.7173  2.7337  1.5766
  181SOPE   H7Y20717   5.665   5.607   7.049 -0.3516 -1.2896  3.5507
  181SOPE   C3820718   5.644   5.723   7.234  0.8012 -0.3395 -0.0570
  181SOPE   H8X20719   5.621   5.829   7.257 -0.6514 -0.8155  0.7420
  181SOPE   H8Y20720   5.750   5.706   7.263  0.1326  0.4851  3.1154
  181SOPE   C3920721   5.556   5.641   7.328 -0.7125  0.0699  0.0425
  181SOPE   H9X20722   5.559   5.541   7.281  0.8005 -1.1478  2.6247
  181SOPE   H9Y20723   5.451   5.678   7.327 -0.7363  0.0293  0.7949
  181SOPE  C31020724   5.591   5.636   7.477  0.4517  0.2444  0.6462
  181SOPE  H10X20725   5.669   5.559   7.493  1.2627  0.4298 -2.1432
  181SOPE  H10Y20726   5.510   5.593   7.539 -0.2636 -0.8068 -0.9740
  181SOPE  C31120727   5.635   5.763   7.546  0.1871 -0.4888 -0.2691
  181SOPE  H11X20728   5.553   5.837   7.562 -0.1286 -0.7349 -0.7314
  181SOPE  H11Y20729   5.705   5.813   7.477 -0.4844 -0.1203 -0.6843
  181SOPE  C31220730   5.701   5.732   7.684 -0.5076  0.3125 -0.2314
  181SOPE  H12X20731   5.785   5.805   7.694 -0.4813  0.7120 -2.9699
  181SOPE  H12Y20732   5.742   5.629   7.687  1.0993  0.8402 -2.5392
  181SOPE  C31320733   5.608   5.743   7.804 -0.0074  0.2318 -0.5835
  181SOPE  H13X20734   5.527   5.674   7.775  0.6456 -0.6763 -0.2730
  181SOPE  H13Y20735   5.571   5.848   7.808 -1.4460 -0.2208 -1.7910
  181SOPE  C31420736   5.653   5.704   7.942  0.2254  0.4388  0.1082
  181SOPE  H14X20737   5.739   5.770   7.966  1.3946 -0.3268 -1.8737
  181SOPE  H14Y20738   5.698   5.602   7.945 -0.6497 -0.0385 -2.1711
  181SOPE  C31520739   5.533   5.709   8.039 -0.2545  0.0450 -0.2161
  181SOPE  H15X20740   5.445   5.645   8.015  0.5950 -1.0388 -0.4652
  181SOPE  H15Y20741   5.493   5.812   8.042  0.2588  0.2453 -0.2984
  181SOPE  C31620742   5.575   5.665   8.182  0.1984  0.0484  0.3280
  181SOPE  H16X20743   5.683   5.686   8.198 -0.1877  2.8314 -0.4864
  181SOPE  H16Y20744   5.564   5.554   8.181 -1.5867  0.1433  3.1667
  181SOPE  C31720745   5.483   5.716   8.291  0.5341 -0.4150 -0.4833
  181SOPE  H17X20746   5.375   5.706   8.267  0.1959 -1.0903  1.2425
  181SOPE  H17Y20747   5.492   5.827   8.297 -0.0590 -0.2755 -2.1028
  181SOPE  C31820748   5.521   5.640   8.416  0.3579 -0.4788 -0.5202
  181SOPE  H18X20749   5.619   5.664   8.462  0.5185 -3.2658  0.6157
  181SOPE  H18Y20750   5.514   5.531   8.398 -2.5405 -0.9617  2.9490
  181SOPE  H18Z20751   5.451   5.665   8.498  1.0976  0.4269 -0.1452
  182SOPE     N20752   5.483   0.610   6.146 -1.0259 -0.7482  0.3020
  182SOPE   HN120753   5.396   0.573   6.102 -2.2945  0.9389  1.3417
  182SOPE   HN220754   5.462   0.707   6.178  1.1957 -1.0586  2.8662
  182SOPE   HN320755   5.550   0.612   6.067 -0.6982 -4.2020  0.4395
  182SOPE   C1220756   5.530   0.536   6.265  0.4205  0.3643 -0.1230
  182SOPE  H12A20757   5.446   0.542   6.337  0.9113 -1.7319  0.6440
  182SOPE  H12B20758   5.619   0.593   6.300 -0.3000  1.3173  0.1988
  182SOPE   C1120759   5.581   0.395   6.236 -0.4619  0.0026 -0.4767
  182SOPE  H11A20760   5.626   0.364   6.333  1.9551  4.7386  0.0560
  182SOPE  H11B20761   5.664   0.396   6.162 -0.5355  2.3785 -0.5756
  182SOPE     P20762   5.478   0.155   6.204  0.3861  0.1581 -0.2731
  182SOPE   O1320763   5.588   0.115   6.109  0.6145 -0.4939  0.0859
  182SOPE   O1420764   5.349   0.097   6.166 -1.1006  0.9691  0.3565
  182SOPE   O1220765   5.468   0.309   6.202 -0.0792 -0.2313  0.5775
  182SOPE   O1120766   5.525   0.110   6.347  0.2335  0.2510  0.1617
  182SOPE    C120767   5.432   0.050   6.435  0.5412 -0.4296  0.0203
  182SOPE    HA20768   5.497  -0.021   6.492  1.5561 -0.1729 -0.8050
  182SOPE    HB20769   5.356  -0.013   6.384 -1.0927  1.9220 -0.5343
  182SOPE    C220770   5.372   0.156   6.533 -0.3546 -0.7868  0.2571
  182SOPE    HS20771   5.315   0.226   6.468  0.3150 -1.3070 -0.9208
  182SOPE   O2120772   5.473   0.219   6.613 -0.2653 -0.3021 -0.3587
  182SOPE   C2120773   5.461   0.350   6.632 -0.4551 -0.1031 -0.1274
  182SOPE   O2220774   5.369   0.425   6.596 -0.2563  0.2827 -0.2611
  182SOPE   C2220775   5.593   0.394   6.704  1.3156  0.0055 -0.4120
  182SOPE   H2R20776   5.568   0.492   6.751  0.1869  0.0400 -1.0591
  182SOPE   H2S20777   5.673   0.400   6.627  0.0811  0.3327 -1.6839
  182SOPE    C320778   5.262   0.079   6.617  0.3344 -0.6414 -0.5309
  182SOPE    HX20779   5.323   0.018   6.687 -0.2698 -0.9333 -0.2501
  182SOPE    HY20780   5.198   0.007   6.561 -1.1865 -0.1819  0.5779
  182SOPE   O3120781   5.184   0.162   6.712 -0.4880 -0.2123  0.2028
  182SOPE   C3120782   5.090   0.239   6.648  0.2323  0.8005 -0.5470
  182SOPE   O3220783   5.079   0.244   6.524  0.0895 -0.0190 -0.0054
  182SOPE   C3220784   4.999   0.300   6.758 -0.1897 -0.2172 -0.0075
  182SOPE   H2X20785   4.974   0.225   6.836 -2.2296 -0.8648 -1.2386
  182SOPE   H2Y20786   4.902   0.326   6.712 -1.3232 -0.8252  2.0020
  182SOPE   C2320787   5.646   0.289   6.810  0.2845  0.4669 -0.5508
  182SOPE   H3R20788   5.739   0.341   6.841  0.3722  0.9610 -1.6395
  182SOPE   H3S20789   5.678   0.194   6.763  1.1699  0.3863  0.1942
  182SOPE   C2420790   5.566   0.280   6.936 -0.1794 -0.0553 -0.4614
  182SOPE   H4R20791   5.494   0.364   6.934 -1.0127 -0.7415  0.1767
  182SOPE   H4S20792   5.513   0.182   6.936 -0.6837  0.1929 -2.1040
  182SOPE   C2520793   5.652   0.282   7.063 -0.0395 -0.0976 -0.3361
  182SOPE   H5R20794   5.727   0.201   7.062  0.7084  0.5471  1.1533
  182SOPE   H5S20795   5.698   0.383   7.064 -1.8784  0.7742 -0.5709
  182SOPE   C2620796   5.574   0.272   7.198 -0.1285  0.6407  0.2676
  182SOPE   H6R20797   5.476   0.323   7.189 -1.4313 -1.6627  1.1379
  182SOPE   H6S20798   5.545   0.165   7.207 -0.2280  0.7265  1.0060
  182SOPE   C2720799   5.655   0.328   7.317  0.4558  0.7648 -0.1821
  182SOPE   H7R20800   5.756   0.281   7.316 -0.4900 -1.3221 -3.2440
  182SOPE   H7S20801   5.664   0.439   7.307 -0.7941  0.9024  0.1185
  182SOPE   C2820802   5.592   0.286   7.455 -0.1361 -0.1073  0.0889
  182SOPE   H8R20803   5.555   0.182   7.465 -0.2218 -0.1986 -1.0588
  182SOPE   H8S20804   5.675   0.293   7.528  1.1120 -0.9712 -1.2155
  182SOPE   C2920805   5.489   0.381   7.485  0.0031  0.5089 -0.6886
  182SOPE   H9120806   5.425   0.407   7.399  0.2895  0.0659 -1.0407
  182SOPE  C21020807   5.464   0.434   7.604 -0.7215 -0.5474 -0.2234
  182SOPE  H10120808   5.385   0.508   7.621  2.4157  2.8631 -0.0100
  182SOPE  C21120809   5.544   0.417   7.724 -0.3365 -0.4621 -0.1105
  182SOPE  H11R20810   5.596   0.512   7.749  1.2132 -1.3239 -0.0013
  182SOPE  H11S20811   5.623   0.340   7.720 -0.0886 -0.3492  1.8316
  182SOPE  C21220812   5.457   0.373   7.848 -0.2794  0.7858 -0.0849
  182SOPE  H12R20813   5.398   0.280   7.827 -0.8650  1.2543 -0.5533
  182SOPE  H12S20814   5.389   0.460   7.864 -0.3751  0.4721  1.2768
  182SOPE  C21320815   5.522   0.353   7.987  0.1495 -0.6867  0.5589
  182SOPE  H13R20816   5.594   0.436   8.004  1.5040 -1.8379  0.4947
  182SOPE  H13S20817   5.573   0.254   7.981  1.3993 -0.0324  0.1843
  182SOPE  C21420818   5.418   0.350   8.101  0.3440 -0.0193 -0.3801
  182SOPE  H14R20819   5.366   0.253   8.106  2.1039 -1.0053 -0.8080
  182SOPE  H14S20820   5.343   0.431   8.085  1.3453  1.0537  0.3128
  182SOPE  C21520821   5.490   0.381   8.240  0.1371 -0.1872 -0.0627
  182SOPE  H15R20822   5.518   0.488   8.242 -0.9884  0.1053  3.5843
  182SOPE  H15S20823   5.577   0.316   8.266 -2.0168 -2.8900  0.6779
  182SOPE  C21620824   5.394   0.373   8.356  0.2196  0.0092 -0.1160
  182SOPE  H16R20825   5.371   0.268   8.381 -1.1347  0.1558 -0.6917
  182SOPE  H16S20826   5.292   0.413   8.337  0.0809 -0.6383 -0.7448
  182SOPE  C21720827   5.453   0.446   8.485 -0.3596 -0.3410 -0.2924
  182SOPE  H17R20828   5.378   0.442   8.566  1.6252  3.1300  1.8569
  182SOPE  H17S20829   5.472   0.553   8.460 -1.1655  0.1494  1.1585
  182SOPE  C21820830   5.579   0.377   8.544  0.4610  0.7247 -0.1478
  182SOPE  H18R20831   5.672   0.394   8.485  0.6840  0.3624  0.0953
  182SOPE  H18S20832   5.559   0.267   8.540  2.9255  0.2415  0.0146
  182SOPE  H18T20833   5.609   0.402   8.648  0.3205  2.2389 -0.4711
  182SOPE   C3320834   5.050   0.433   6.822 -0.6559  0.3178 -0.2144
  182SOPE   H3X20835   4.967   0.505   6.837  2.0727  3.8295 -1.1050
  182SOPE   H3Y20836   5.110   0.486   6.744  1.5980  2.7020  2.9779
  182SOPE   C3420837   5.141   0.428   6.941  0.1820  0.4073  0.0034
  182SOPE   H4X20838   5.148   0.534   6.974 -0.5312  0.5675 -0.3583
  182SOPE   H4Y20839   5.235   0.385   6.901  1.0376  3.7480 -1.8345
  182SOPE   C3520840   5.095   0.338   7.051  1.3857 -0.9468  0.5418
  182SOPE   H5X20841   5.121   0.238   7.011  2.2367  0.0322 -1.4346
  182SOPE   H5Y20842   4.986   0.344   7.074  1.5954  0.0961  1.2787
  182SOPE   C3620843   5.169   0.357   7.184  0.2551 -0.0341  1.4427
  182SOPE   H6X20844   5.208   0.461   7.195  1.3563 -0.0987 -1.4742
  182SOPE   H6Y20845   5.258   0.292   7.182 -0.5757 -1.1680 -1.1206
  182SOPE   C3720846   5.080   0.305   7.291  0.4806  0.4192 -0.8755
  182SOPE   H7X20847   5.063   0.199   7.262  0.9573 -0.2196  1.1082
  182SOPE   H7Y20848   4.977   0.348   7.292 -0.6135 -2.0974  0.4365
  182SOPE   C3820849   5.141   0.324   7.423  0.2688 -0.0659  0.7006
  182SOPE   H8X20850   5.197   0.420   7.427 -2.4204  1.5167  1.5973
  182SOPE   H8Y20851   5.220   0.248   7.441 -0.2311 -0.1853  2.4962
  182SOPE   C3920852   5.048   0.316   7.540 -0.6584 -0.2779  0.2812
  182SOPE   H9X20853   4.989   0.222   7.531  0.6246 -0.8192 -2.9487
  182SOPE   H9Y20854   4.978   0.402   7.545  0.2551  0.5909 -1.5858
  182SOPE  C31020855   5.129   0.297   7.676  0.6570  0.4617 -0.3248
  182SOPE  H10X20856   5.208   0.373   7.694  1.8579 -0.7992 -0.1855
  182SOPE  H10Y20857   5.174   0.196   7.670  1.3802  0.7790 -0.3068
  182SOPE  C31120858   5.031   0.293   7.798 -1.1689 -0.2614 -0.2384
  182SOPE  H11X20859   4.955   0.213   7.789 -1.8889  0.4222 -0.2495
  182SOPE  H11Y20860   4.981   0.392   7.801 -0.1641  0.2753 -1.0264
  182SOPE  C31220861   5.110   0.260   7.924  0.0389  0.5991 -0.3653
  182SOPE  H12X20862   5.175   0.350   7.936 -0.1809  0.5535  1.2681
  182SOPE  H12Y20863   5.171   0.169   7.905 -0.4085 -0.2146  1.9486
  182SOPE  C31320864   5.030   0.220   8.050  0.0955 -0.5180 -0.8407
  182SOPE  H13X20865   5.004   0.112   8.040 -0.1975 -0.3719 -1.6889
  182SOPE  H13Y20866   4.931   0.270   8.041  0.6033  0.3698 -1.6151
  182SOPE  C31420867   5.090   0.254   8.185  1.1075 -0.3581 -0.4745
  182SOPE  H14X20868   5.128   0.357   8.196 -0.1065  0.0890 -0.3424
  182SOPE  H14Y20869   5.177   0.186   8.189  0.6554 -0.9208 -0.1520
  182SOPE  C31520870   4.998   0.212   8.306 -0.1818  0.0369 -0.1530
  182SOPE  H15X20871   4.956   0.112   8.283  2.7646 -1.4603  0.6392
  182SOPE  H15Y20872   4.909   0.278   8.310  1.4178  2.4115 -2.0354
  182SOPE  C31620873   5.068   0.209   8.442 -0.4697 -0.5213  0.3424
  182SOPE  H16X20874   5.075   0.315   8.472 -6.2280 -0.2441  1.2855
  182SOPE  H16Y20875   5.173   0.173   8.438  0.0706  0.8867  1.5648
  182SOPE  C31720876   4.990   0.114   8.535  0.7842 -0.7917  0.3587
  182SOPE  H17X20877   4.985   0.015   8.484 -1.3705 -0.3015 -0.4422
  182SOPE  H17Y20878   4.885   0.150   8.547  0.5775 -0.7545 -1.3831
  182SOPE  C31820879   5.063   0.087   8.671  0.3839 -0.2548  0.1951
  182SOPE  H18X20880   5.078   0.179   8.731  0.7512  0.4472 -0.9612
  182SOPE  H18Y20881   5.158   0.034   8.649  1.0914  1.0823 -0.0357
  182SOPE  H18Z20882   4.990   0.026   8.727 -0.1346  0.1654 -0.0207
  183SOPE     N20883   1.023   4.657   6.372  0.1249 -0.1271 -0.0935
  183SOPE   HN120884   1.056   4.559   6.378 -1.2706 -0.5063  1.8311
  183SOPE   HN220885   0.969   4.692   6.454 -1.0865  0.3881 -1.0861
  183SOPE   HN320886   0.961   4.659   6.288  0.7623 -1.1719 -0.6038
  183SOPE   C1220887   1.149   4.738   6.345  0.3214 -0.1240 -0.3818
  183SOPE  H12A20888   1.220   4.727   6.430 -0.1042  1.8621  0.2602
  183SOPE  H12B20889   1.117   4.844   6.346 -0.9943 -0.5154 -0.4030
  183SOPE   C1120890   1.216   4.698   6.215  0.1063 -0.1204 -0.3164
  183SOPE  H11A20891   1.140   4.693   6.134  0.4907  1.7414 -0.8188
  183SOPE  H11B20892   1.254   4.594   6.224 -1.5915 -0.5373  2.3937
  183SOPE     P20893   1.462   4.803   6.227  0.3391  0.4804  0.1593
  183SOPE   O1320894   1.539   4.909   6.154 -0.5660  0.0820 -0.1040
  183SOPE   O1420895   1.515   4.666   6.208 -0.2711  0.8462  0.0057
  183SOPE   O1220896   1.313   4.805   6.185  0.5423  0.0013 -0.5831
  183SOPE   O1120897   1.460   4.835   6.381  0.3077 -0.2033  0.0447
  183SOPE    C120898   1.432   4.967   6.423  0.0186 -0.7323 -0.0533
  183SOPE    HA20899   1.323   4.991   6.423 -0.2718 -1.9954 -1.0072
  183SOPE    HB20900   1.490   5.035   6.357  0.7032 -0.1979  1.0740
  183SOPE    C220901   1.486   5.004   6.566 -0.0359 -0.4837 -0.2456
  183SOPE    HS20902   1.448   5.103   6.597  0.8953  0.2474 -1.3936
  183SOPE   O2120903   1.629   5.005   6.572 -0.5394  0.6415  0.3854
  183SOPE   C2120904   1.691   5.117   6.522 -0.3077  0.5704 -0.1647
  183SOPE   O2220905   1.633   5.218   6.489  0.5323  0.1363  0.0568
  183SOPE   C2220906   1.842   5.106   6.532  0.1796 -0.0245  0.0551
  183SOPE   H2R20907   1.883   5.209   6.531  0.7968 -0.2591  0.9129
  183SOPE   H2S20908   1.863   5.040   6.445  0.7132 -0.1163  0.2526
  183SOPE    C320909   1.431   4.905   6.670  0.3400  0.2725  0.1092
  183SOPE    HX20910   1.469   4.802   6.655  2.0345  0.2118  4.1442
  183SOPE    HY20911   1.321   4.915   6.655  0.3566  1.0362  0.4759
  183SOPE   O3120912   1.448   4.953   6.806 -0.5480 -0.1827 -0.4706
  183SOPE   C3120913   1.550   4.907   6.874 -0.6632 -0.2635  0.5425
  183SOPE   O3220914   1.617   4.813   6.835  0.5336  0.5644  0.3431
  183SOPE   C3220915   1.556   4.966   7.021  0.1414 -0.0514 -0.4105
  183SOPE   H2X20916   1.651   4.933   7.069 -0.8859  1.0768  2.4910
  183SOPE   H2Y20917   1.480   4.915   7.083 -0.2154 -0.1422 -0.9177
  183SOPE   C2320918   1.909   5.039   6.654 -0.4324  0.0164  0.0450
  183SOPE   H3R20919   2.014   5.022   6.622 -1.2307 -2.7947 -1.2613
  183SOPE   H3S20920   1.860   4.945   6.686 -1.6683  0.5003 -0.3739
  183SOPE   C2420921   1.917   5.151   6.759  1.0805  0.0736  0.1033
  183SOPE   H4R20922   1.963   5.242   6.715 -1.0204  2.1031  1.9484
  183SOPE   H4S20923   1.814   5.186   6.782  0.1060 -0.3780 -3.2684
  183SOPE   C2520924   1.988   5.108   6.887  0.0447  0.4097 -0.1940
  183SOPE   H5R20925   1.921   5.046   6.950 -2.0651  2.2552 -0.5469
  183SOPE   H5S20926   2.076   5.045   6.863 -1.9795 -2.6925  0.2939
  183SOPE   C2620927   2.024   5.222   6.972 -0.1480  0.2346  0.3826
  183SOPE   H6R20928   2.089   5.296   6.921 -0.2956  0.3259  0.3244
  183SOPE   H6S20929   1.935   5.280   7.005  1.3523  2.0740  1.3260
  183SOPE   C2720930   2.091   5.175   7.107 -0.1038 -1.0443 -0.3004
  183SOPE   H7R20931   2.020   5.119   7.172  0.4454  1.6120  2.6859
  183SOPE   H7S20932   2.179   5.115   7.074  1.7655  0.6946  1.3890
  183SOPE   C2820933   2.141   5.291   7.185  0.0233 -0.1585  0.7707
  183SOPE   H8R20934   2.208   5.360   7.129 -0.1327 -1.3110 -0.8763
  183SOPE   H8S20935   2.052   5.356   7.202 -1.1458 -1.3300 -0.7606
  183SOPE   C2920936   2.208   5.251   7.319 -0.2350 -0.2643  0.3239
  183SOPE   H9120937   2.317   5.260   7.322 -0.1942 -0.5300 -0.2717
  183SOPE  C21020938   2.146   5.225   7.433 -0.0835 -0.8131 -0.4153
  183SOPE  H10120939   2.220   5.191   7.507  0.9744  1.7232 -0.2633
  183SOPE  C21120940   1.998   5.226   7.440  0.6688 -0.0870 -0.6077
  183SOPE  H11R20941   1.964   5.154   7.518 -0.6372  1.0420 -0.0977
  183SOPE  H11S20942   1.946   5.203   7.345 -1.8375  0.9491  0.4391
  183SOPE  C21220943   1.947   5.358   7.493  0.5096 -0.3337 -1.1549
  183SOPE  H12R20944   1.837   5.351   7.505  0.2796  3.4088 -0.4326
  183SOPE  H12S20945   1.962   5.437   7.415 -1.2135  0.0115 -1.1545
  183SOPE  C21320946   1.993   5.398   7.631 -0.1546 -0.6139 -0.0001
  183SOPE  H13R20947   1.935   5.491   7.646 -0.5663 -0.9392  0.4031
  183SOPE  H13S20948   2.100   5.428   7.622 -0.2538  0.1213  1.1954
  183SOPE  C21420949   1.983   5.305   7.752  0.0565 -0.3651 -0.3464
  183SOPE  H14R20950   2.049   5.221   7.721 -1.7558 -1.0560 -2.4395
  183SOPE  H14S20951   1.879   5.268   7.762  1.5476 -4.0710  2.4428
  183SOPE  C21520952   2.038   5.353   7.876 -0.0974  0.3549  0.0562
  183SOPE  H15R20953   2.140   5.396   7.861 -0.7107  1.7456 -0.2737
  183SOPE  H15S20954   2.038   5.268   7.946  1.4054 -0.0855 -0.4664
  183SOPE  C21620955   1.949   5.462   7.938 -0.5004 -0.1105  0.0124
  183SOPE  H16R20956   1.922   5.542   7.866 -0.4823  1.5132  1.7736
  183SOPE  H16S20957   2.008   5.516   8.014 -2.4417  1.9509  0.0912
  183SOPE  C21720958   1.823   5.405   8.011 -0.3087  0.1353  0.1446
  183SOPE  H17R20959   1.862   5.319   8.071 -1.0683  0.0062  0.4527
  183SOPE  H17S20960   1.749   5.366   7.938 -1.5750  1.1083  0.8888
  183SOPE  C21820961   1.743   5.504   8.100  0.5672  0.0949 -0.1318
  183SOPE  H18R20962   1.673   5.446   8.162  1.4363  1.4506  2.1652
  183SOPE  H18S20963   1.692   5.570   8.026 -0.1798 -0.5248 -0.1780
  183SOPE  H18T20964   1.814   5.564   8.161 -1.1817  1.7787  0.2835
  183SOPE   C3320965   1.545   5.125   7.030  0.0828 -0.3191  0.1061
  183SOPE   H3X20966   1.446   5.150   6.986 -0.4912  0.1559  1.6306
  183SOPE   H3Y20967   1.641   5.153   6.980  0.9884 -0.7708  1.5629
  183SOPE   C3420968   1.552   5.188   7.170  0.4559  0.3853  0.4313
  183SOPE   H4X20969   1.565   5.299   7.176 -0.1982  0.4419  1.0226
  183SOPE   H4Y20970   1.638   5.138   7.218  2.3095  0.3931 -2.8016
  183SOPE   C3520971   1.430   5.152   7.261 -0.1568 -0.2055 -0.2076
  183SOPE   H5X20972   1.427   5.042   7.274 -1.1564 -0.2618 -0.9119
  183SOPE   H5Y20973   1.346   5.186   7.197 -0.5435 -1.9668 -0.6537
  183SOPE   C3620974   1.434   5.223   7.393 -0.2935  0.0839 -0.7246
  183SOPE   H6X20975   1.459   5.330   7.374  0.5901  0.2768  1.3743
  183SOPE   H6Y20976   1.524   5.197   7.453 -0.5354  0.3705 -0.2309
  183SOPE   C3720977   1.319   5.188   7.488 -0.1997 -0.4252 -0.2073
  183SOPE   H7X20978   1.310   5.077   7.479  1.2233 -0.5674 -0.0590
  183SOPE   H7Y20979   1.220   5.227   7.459  0.2201  0.1055 -0.9344
  183SOPE   C3820980   1.360   5.228   7.625 -0.2645 -0.1065  0.3210
  183SOPE   H8X20981   1.385   5.336   7.620 -1.7217  0.2065 -0.4002
  183SOPE   H8Y20982   1.438   5.160   7.665  1.5792  0.1826 -2.5993
  183SOPE   C3920983   1.256   5.218   7.739 -0.9743  0.0732  0.1701
  183SOPE   H9X20984   1.196   5.125   7.734 -1.9312  0.7659 -1.5909
  183SOPE   H9Y20985   1.181   5.297   7.718 -1.1501 -0.1581 -0.0761
  183SOPE  C31020986   1.323   5.238   7.879 -0.0642  0.5855  0.0833
  183SOPE  H10X20987   1.385   5.330   7.866 -1.9463  1.9743  0.6616
  183SOPE  H10Y20988   1.387   5.155   7.915  2.0370  1.2187 -2.0326
  183SOPE  C31120989   1.214   5.276   7.986 -0.4888 -0.0098 -0.5518
  183SOPE  H11X20990   1.143   5.343   7.932 -0.3355  1.5628  1.1172
  183SOPE  H11Y20991   1.267   5.335   8.064 -0.0805 -1.4108  0.2372
  183SOPE  C31220992   1.160   5.145   8.029  0.8358 -0.5302 -0.4655
  183SOPE  H12X20993   1.235   5.070   8.058  0.9737 -0.8279 -1.5608
  183SOPE  H12Y20994   1.110   5.093   7.944 -1.3419 -0.5000  0.7395
  183SOPE  C31320995   1.060   5.170   8.148 -1.1314 -0.0594 -0.0557
  183SOPE  H13X20996   1.005   5.074   8.159 -0.5614 -0.5966 -1.7737
  183SOPE  H13Y20997   0.987   5.248   8.116 -0.3389  0.4394 -0.6594
  183SOPE  C31420998   1.124   5.212   8.282 -0.3000 -0.2147 -0.1947
  183SOPE  H14X20999   1.143   5.321   8.276  1.6407 -0.4164  1.4931
  183SOPE  H14Y21000   1.214   5.150   8.303 -0.9686 -0.9398  0.5954
  183SOPE  C31521001   1.034   5.186   8.402  0.2097  0.3967  0.7482
  183SOPE  H15X21002   1.099   5.214   8.488 -1.7211  0.2174  2.2941
  183SOPE  H15Y21003   1.003   5.080   8.407 -0.1239  0.5607  2.5182
  183SOPE  C31621004   0.913   5.280   8.404 -0.2288 -0.6185 -1.0894
  183SOPE  H16X21005   0.831   5.252   8.334 -1.2134 -0.9258  0.1664
  183SOPE  H16Y21006   0.934   5.380   8.363 -0.9044  0.2984  0.7324
  183SOPE  C31721007   0.852   5.300   8.543  0.0902  0.6792  0.4667
  183SOPE  H17X21008   0.926   5.293   8.626  0.4738 -0.7191  0.0189
  183SOPE  H17Y21009   0.779   5.218   8.564  1.9385 -1.1515 -0.1102
  183SOPE  C31821010   0.784   5.433   8.548  0.2599 -0.6930  0.3578
  183SOPE  H18X21011   0.744   5.446   8.652  0.6479  1.3430  0.2776
  183SOPE  H18Y21012   0.697   5.441   8.480 -0.7687 -1.4144  1.5559
  183SOPE  H18Z21013   0.852   5.514   8.514  0.8266 -1.6868 -0.8778
  184SOPE     N21014   1.605   6.208   6.190 -0.1267  0.0533  0.3362
  184SOPE   HN121015   1.626   6.282   6.261 -1.6010 -0.2178  1.0918
  184SOPE   HN221016   1.686   6.189   6.128  0.0861 -1.2288  0.9985
  184SOPE   HN321017   1.523   6.235   6.133 -0.3541  1.8481  1.4660
  184SOPE   C1221018   1.568   6.085   6.263 -0.0997 -0.0782 -0.1851
  184SOPE  H12A21019   1.485   6.121   6.328 -0.1658 -0.0728 -0.2718
  184SOPE  H12B21020   1.658   6.057   6.321 -0.7651  1.2291  1.5167
  184SOPE   C1121021   1.508   5.985   6.163 -0.8986  0.0456 -0.0786
  184SOPE  H11A21022   1.503   5.884   6.210 -2.3361  0.8498  1.5493
  184SOPE  H11B21023   1.568   5.977   6.070 -0.1753 -1.1575  0.4694
  184SOPE     P21024   1.254   5.948   6.161 -0.1650  0.2633 -0.1742
  184SOPE   O1321025   1.223   5.842   6.059 -0.2706 -0.8902  0.5862
  184SOPE   O1421026   1.143   6.043   6.170 -0.4990 -0.7164  0.5493
  184SOPE   O1221027   1.382   6.023   6.132  0.1143 -0.0820  0.0607
  184SOPE   O1121028   1.280   5.879   6.304  0.2529 -0.9687 -0.7701
  184SOPE    C121029   1.279   5.947   6.428 -0.8918  1.1609  0.2781
  184SOPE    HA21030   1.252   6.055   6.421 -3.3394  0.7599  2.4646
  184SOPE    HB21031   1.385   5.956   6.461 -0.8264 -2.0399  1.1167
  184SOPE    C221032   1.193   5.866   6.536 -0.4539 -0.2138 -0.7114
  184SOPE    HS21033   1.198   5.922   6.632 -5.8569  1.4547 -1.2339
  184SOPE   O2121034   1.228   5.727   6.542  0.0174 -0.5631  0.4238
  184SOPE   C2121035   1.351   5.700   6.576  0.4517 -0.2487 -0.4992
  184SOPE   O2221036   1.435   5.780   6.612 -0.5951  0.0553  0.2803
  184SOPE   C2221037   1.366   5.547   6.545  0.9553  0.6117  0.3937
  184SOPE   H2R21038   1.377   5.523   6.437 -0.1007  1.4170  0.1042
  184SOPE   H2S21039   1.268   5.499   6.567  0.5069  0.9429 -0.8857
  184SOPE    C321040   1.044   5.881   6.488 -0.6050  0.2914  0.2964
  184SOPE    HX21041   1.018   5.807   6.409  0.8445  0.8250 -0.7120
  184SOPE    HY21042   1.040   5.974   6.428 -2.5246 -1.0192 -1.6683
  184SOPE   O3121043   0.954   5.894   6.599  0.1585  0.4530 -0.5577
  184SOPE   C3121044   0.887   5.780   6.653 -0.3809 -0.5971  0.6274
  184SOPE   O3221045   0.914   5.669   6.623 -0.0671 -0.3769  0.6403
  184SOPE   C3221046   0.778   5.832   6.744  0.5244 -0.2357 -0.9195
  184SOPE   H2X21047   0.703   5.883   6.680  1.0216  2.3176  0.4557
  184SOPE   H2Y21048   0.829   5.908   6.809  0.2530 -0.5894 -0.2852
  184SOPE   C2321049   1.476   5.474   6.629  0.7358  0.2872 -0.5421
  184SOPE   H3R21050   1.579   5.514   6.615  0.8327  0.2230 -0.0180
  184SOPE   H3S21051   1.468   5.366   6.606  1.3654  0.3100 -0.8697
  184SOPE   C2421052   1.433   5.480   6.780 -0.5031 -0.1163  0.1828
  184SOPE   H4R21053   1.500   5.410   6.834  2.3201  2.0706 -0.3967
  184SOPE   H4S21054   1.459   5.579   6.823  2.4069  0.3835 -2.5668
  184SOPE   C2521055   1.296   5.430   6.809  0.0002  0.2950 -0.4002
  184SOPE   H5R21056   1.231   5.506   6.759  0.6166  1.2577  0.2384
  184SOPE   H5S21057   1.291   5.327   6.769  1.3336  0.9615 -2.3812
  184SOPE   C2621058   1.258   5.418   6.959  0.7237 -0.0833 -0.6328
  184SOPE   H6R21059   1.167   5.356   6.958  0.8358 -0.2410 -1.3306
  184SOPE   H6S21060   1.334   5.358   7.015 -0.3997  0.5956  1.6837
  184SOPE   C2721061   1.227   5.549   7.025  0.0779 -0.9985  0.5864
  184SOPE   H7R21062   1.305   5.620   6.988 -0.5191  0.5803  2.3388
  184SOPE   H7S21063   1.129   5.577   6.982 -0.2068 -3.0245 -0.1541
  184SOPE   C2821064   1.224   5.537   7.181  0.4117  0.5449  0.3867
  184SOPE   H8R21065   1.325   5.510   7.218  1.2901 -0.5201 -2.5738
  184SOPE   H8S21066   1.198   5.634   7.227 -1.2239 -0.2500  1.1997
  184SOPE   C2921067   1.124   5.438   7.221 -0.1963 -0.2086  0.1625
  184SOPE   H9121068   1.154   5.334   7.201 -1.5297 -0.7972  1.1380
  184SOPE  C21021069   1.003   5.457   7.277 -0.1725  0.4319 -0.1313
  184SOPE  H10121070   0.947   5.378   7.329 -1.5653  1.0354 -0.6814
  184SOPE  C21121071   0.939   5.586   7.299  0.3855 -0.0131 -0.8704
  184SOPE  H11R21072   0.830   5.564   7.300  0.5488 -0.8490 -0.8045
  184SOPE  H11S21073   0.959   5.654   7.214  1.4398 -0.1733 -0.7563
  184SOPE  C21221074   0.971   5.655   7.431 -0.1175 -0.6223 -1.0122
  184SOPE  H12R21075   0.915   5.750   7.448  0.6305  0.0770 -2.3783
  184SOPE  H12S21076   1.081   5.670   7.442 -0.1349  0.6450 -2.3802
  184SOPE  C21321077   0.925   5.565   7.551 -0.1168 -0.1771 -0.3921
  184SOPE  H13R21078   0.990   5.475   7.547  1.3746  0.7932  1.1749
  184SOPE  H13S21079   0.818   5.538   7.541 -1.3160  3.2563  1.9466
  184SOPE  C21421080   0.966   5.616   7.690  0.1467  0.1678  0.3944
  184SOPE  H14R21081   0.922   5.712   7.725  1.3606  0.4496  1.1975
  184SOPE  H14S21082   1.076   5.631   7.693  0.3755 -1.2086 -0.8896
  184SOPE  C21521083   0.932   5.506   7.806 -0.0936  0.4068 -0.2152
  184SOPE  H15R21084   0.984   5.409   7.791  0.3825  0.9057 -1.8998
  184SOPE  H15S21085   0.824   5.487   7.789 -0.3011  2.2950 -1.1314
  184SOPE  C21621086   0.955   5.565   7.943 -0.0139  0.7741 -0.3735
  184SOPE  H16R21087   0.972   5.674   7.932 -0.7678  0.7564 -1.7945
  184SOPE  H16S21088   1.048   5.513   7.972 -0.7037  0.6091  1.6698
  184SOPE  C21721089   0.845   5.531   8.047  0.0954 -0.1437 -0.2533
  184SOPE  H17R21090   0.829   5.422   8.039 -3.2064  0.2819  0.0187
  184SOPE  H17S21091   0.752   5.586   8.021 -1.2578 -1.7926  0.9981
  184SOPE  C21821092   0.901   5.576   8.177  0.0371  0.0368 -0.2779
  184SOPE  H18R21093   0.839   5.555   8.267  0.4405 -0.0741 -0.0237
  184SOPE  H18S21094   0.921   5.686   8.179 -1.9713  0.4211  0.9796
  184SOPE  H18T21095   1.003   5.534   8.189  0.5827  1.7314  1.3679
  184SOPE   C3321096   0.707   5.719   6.824 -0.1825  0.0437  0.4657
  184SOPE   H3X21097   0.784   5.657   6.874 -1.2241 -1.8312 -0.2088
  184SOPE   H3Y21098   0.644   5.649   6.764  0.4797 -0.3182  0.1869
  184SOPE   C3421099   0.613   5.778   6.927  0.8251  0.4771  0.4242
  184SOPE   H4X21100   0.521   5.804   6.871 -0.2589  1.2815  2.4975
  184SOPE   H4Y21101   0.659   5.865   6.979 -1.0658  1.4632  0.4762
  184SOPE   C3521102   0.578   5.688   7.040  0.1613 -0.7007  0.2935
  184SOPE   H5X21103   0.664   5.670   7.107 -0.6429 -0.0565  1.5296
  184SOPE   H5Y21104   0.552   5.595   6.985 -0.8195 -0.5393  0.4767
  184SOPE   C3621105   0.457   5.746   7.117  0.6360  0.0745 -1.0693
  184SOPE   H6X21106   0.375   5.773   7.047 -1.1094 -1.8196  0.1902
  184SOPE   H6Y21107   0.488   5.845   7.155 -1.3730  0.2713  0.1231
  184SOPE   C3721108   0.395   5.660   7.227  0.2498  0.1964 -0.6396
  184SOPE   H7X21109   0.484   5.621   7.282 -0.4491 -1.4342 -0.6175
  184SOPE   H7Y21110   0.338   5.575   7.183 -1.3897  0.6534  0.5732
  184SOPE   C3821111   0.297   5.740   7.312  0.6282 -0.2740 -0.6944
  184SOPE   H8X21112   0.203   5.744   7.253  0.4774  2.8026 -0.3045
  184SOPE   H8Y21113   0.338   5.841   7.330  0.7999 -0.4761  0.0475
  184SOPE   C3921114   0.259   5.666   7.444  0.4039  0.4178  0.5165
  184SOPE   H9X21115   0.349   5.620   7.491 -0.1854 -1.0528  0.2370
  184SOPE   H9Y21116   0.184   5.585   7.428  0.1876  0.8349 -0.6345
  184SOPE  C31021117   0.195   5.763   7.553  0.0194  0.3089  0.2170
  184SOPE  H10X21118   0.102   5.813   7.518 -0.4331 -1.7338 -1.6239
  184SOPE  H10Y21119   0.269   5.846   7.562  0.8775 -0.4701  0.3985
  184SOPE  C31121120   0.188   5.699   7.692  0.3205  0.4188  0.2433
  184SOPE  H11X21121   0.288   5.664   7.724 -0.8136 -2.6858  0.5467
  184SOPE  H11Y21122   0.119   5.613   7.673  0.0848  0.5760  0.3875
  184SOPE  C31221123   0.135   5.795   7.796 -0.3594  0.3788  0.7669
  184SOPE  H12X21124   0.027   5.814   7.780 -0.8099 -1.5158  1.4331
  184SOPE  H12Y21125   0.192   5.891   7.790 -2.1196  1.2897 -2.0369
  184SOPE  C31321126   0.163   5.739   7.940  0.2886  0.5183  0.2605
  184SOPE  H13X21127   0.274   5.735   7.929  0.3670  2.2808  0.3272
  184SOPE  H13Y21128   0.137   5.632   7.954  2.1139 -0.1955 -1.4502
  184SOPE  C31421129   0.122   5.828   8.054 -0.3161 -0.6834  0.2068
  184SOPE  H14X21130   0.011   5.836   8.056 -0.2340  0.5341  0.2557
  184SOPE  H14Y21131   0.162   5.932   8.049 -1.7589 -0.0004  2.1660
  184SOPE  C31521132   0.160   5.779   8.196 -0.1041 -0.2141  0.5194
  184SOPE  H15X21133   0.271   5.770   8.203  0.2136  2.1581 -0.8318
  184SOPE  H15Y21134   0.115   5.680   8.217 -0.8278  0.1307  0.5878
  184SOPE  C31621135   0.132   5.882   8.304  0.1923 -0.1278 -0.1317
  184SOPE  H16X21136   0.023   5.903   8.297  0.4757  1.8848  1.0905
  184SOPE  H16Y21137   0.187   5.978   8.291  0.0713 -0.0469 -0.0450
  184SOPE  C31721138   0.154   5.844   8.445  0.0563 -0.1283 -0.1205
  184SOPE  H17X21139   0.113   5.742   8.461  2.8879 -1.5349 -1.5537
  184SOPE  H17Y21140   0.104   5.905   8.524 -1.8182 -1.2742 -0.3855
  184SOPE  C31821141   0.309   5.834   8.468 -0.5369 -0.2581  0.5199
  184SOPE  H18X21142   0.336   5.790   8.566  0.2488  1.3363  1.0446
  184SOPE  H18Y21143   0.343   5.940   8.458 -1.1264 -0.2162 -1.3816
  184SOPE  H18Z21144   0.354   5.778   8.384  0.7082  1.4727  0.0101
  185SAPI   C1221145   3.519   3.191  11.060  0.1054  0.3049  0.3197
  185SAPI    H221146   3.477   3.112  11.126 -0.7320  1.1110  0.7620
  185SAPI    O221147   3.412   3.223  10.972  0.0468 -0.4165  0.4431
  185SAPI   HO221148   3.392   3.139  10.931 -3.5215  0.6037 -0.0747
  185SAPI   C1321149   3.543   3.311  11.152 -0.8236 -0.0027  0.5833
  185SAPI    H321150   3.628   3.274  11.214  0.3263  0.7510 -0.5143
  185SAPI    O321151   3.430   3.336  11.239 -0.0919 -0.3940 -0.2256
  185SAPI   HO321152   3.356   3.338  11.177 -0.7223  0.3930  0.5324
  185SAPI   C1421153   3.584   3.431  11.072 -0.3225  0.1023 -0.0495
  185SAPI    H421154   3.491   3.461  11.020 -0.3684  0.8187  0.4318
  185SAPI    O421155   3.613   3.540  11.155 -0.0528  0.2345 -0.6205
  185SAPI   HO421156   3.526   3.552  11.195  0.6128  0.4087  0.7935
  185SAPI   C1521157   3.699   3.399  10.972  0.2352  0.2405 -0.2570
  185SAPI    H521158   3.786   3.383  11.039 -0.4745  0.6361  0.7743
  185SAPI    O521159   3.740   3.516  10.897  0.1894 -0.2091  0.3075
  185SAPI   HO521160   3.775   3.572  10.967  0.6309 -0.6309  0.4254
  185SAPI   C1621161   3.678   3.271  10.887 -0.7876  0.9071  0.1924
  185SAPI    H621162   3.606   3.292  10.805 -2.4628  1.5837  1.7809
  185SAPI    O621163   3.803   3.240  10.826  0.8381 -0.0212  0.3164
  185SAPI   HO621164   3.788   3.176  10.756 -0.7191 -0.0106  0.6247
  185SAPI   C1121165   3.639   3.152  10.983  0.0308  0.7122  0.3481
  185SAPI    H121166   3.726   3.138  11.051 -1.4157 -0.8493  1.9169
  185SAPI     P21167   3.666   2.900  10.966 -0.2574 -0.1567 -0.2308
  185SAPI   O1321168   3.574   2.860  11.076 -0.1045 -0.2896  0.7108
  185SAPI   O1421169   3.810   2.901  10.987  0.2615 -0.0806  0.3480
  185SAPI   O1221170   3.614   3.037  10.902 -0.3662 -1.0762 -0.3823
  185SAPI   O1121171   3.658   2.801  10.846  0.8834  0.4435 -0.5242
  185SAPI    C121172   3.568   2.818  10.741  0.3040  0.2297 -0.0247
  185SAPI    HA21173   3.480   2.883  10.762  0.3691 -0.2090  1.6759
  185SAPI    HB21174   3.627   2.855  10.655 -1.0985  2.8216  0.0589
  185SAPI    C221175   3.515   2.680  10.691 -1.1136 -0.5082 -0.3473
  185SAPI    HS21176   3.458   2.631  10.774 -0.7653 -2.3847 -1.1895
  185SAPI   O2121177   3.613   2.583  10.645 -0.1680  0.0440 -0.1120
  185SAPI   C2121178   3.569   2.457  10.639 -0.4972 -0.1438 -0.7883
  185SAPI   O2221179   3.462   2.416  10.680  0.5202  0.5284 -0.6878
  185SAPI   C2221180   3.669   2.369  10.573 -0.7317  0.6334 -0.8999
  185SAPI   H2R21181   3.766   2.421  10.557 -0.4063  0.6253  1.0040
  185SAPI   H2S21182   3.688   2.290  10.648  2.8418  0.7055 -1.6141
  185SAPI    C321183   3.408   2.701  10.579 -0.7677 -0.5299  0.0748
  185SAPI    HX21184   3.327   2.769  10.615 -1.7717 -1.6806  0.0296
  185SAPI    HY21185   3.363   2.599  10.569  0.0480 -1.0021  1.2048
  185SAPI   O3121186   3.461   2.746  10.454 -0.6822  0.0333 -0.3627
  185SAPI   C3121187   3.421   2.856  10.404  0.0778  0.4515 -0.1615
  185SAPI   O3221188   3.367   2.947  10.465 -0.0024 -0.2703  0.4023
  185SAPI   C3221189   3.430   2.850  10.251  0.0991  0.0157 -0.2189
  185SAPI   H2X21190   3.537   2.849  10.223 -0.2995  0.4104 -1.8322
  185SAPI   H2Y21191   3.388   2.947  10.214  1.5216 -0.3591 -2.9628
  185SAPI   C2321192   3.615   2.279  10.456 -0.6814  0.4224 -0.0554
  185SAPI   H3R21193   3.557   2.185  10.473  2.2836 -1.7285 -1.4018
  185SAPI   H3S21194   3.708   2.237  10.412  1.1899  3.2669  1.0657
  185SAPI   C2421195   3.555   2.361  10.343 -0.1186 -0.6372 -0.1356
  185SAPI   H4R21196   3.471   2.426  10.375 -0.4997 -2.2597  2.2140
  185SAPI   H4S21197   3.525   2.290  10.263 -1.5900 -1.1994  0.9140
  185SAPI   C2521198   3.653   2.462  10.288  0.7011  0.3451 -0.6771
  185SAPI   H5R21199   3.675   2.544  10.358 -2.0528  0.7147 -0.2045
  185SAPI   C2621200   3.695   2.467  10.167  0.1804  0.1208 -0.2154
  185SAPI   H6R21201   3.781   2.530  10.142 -0.4894  1.9712  2.0616
  185SAPI   C2721202   3.656   2.369  10.059  0.4483 -0.7310 -0.5139
  185SAPI   H7R21203   3.552   2.394  10.027  0.4614 -0.7891 -0.6020
  185SAPI   H7S21204   3.659   2.271  10.111  0.0275 -0.5878 -0.2113
  185SAPI   C2821205   3.744   2.369   9.944 -0.5698 -0.3458  0.3052
  185SAPI   H8R21206   3.845   2.333   9.970 -0.8098 -1.2265  0.0176
  185SAPI   C2921207   3.722   2.389   9.814 -0.0311 -0.1412  0.0688
  185SAPI   H9R21208   3.803   2.384   9.739  0.5482  0.0199  0.6800
  185SAPI  C21021209   3.594   2.439   9.744  0.0750 -0.3119  1.1390
  185SAPI  H10R21210   3.617   2.512   9.664 -2.0583 -0.0645  0.7277
  185SAPI  H10S21211   3.528   2.495   9.813 -1.7452 -0.9880 -0.0071
  185SAPI  C21121212   3.524   2.314   9.700  0.4481 -0.6999 -0.3618
  185SAPI  H11R21213   3.476   2.250   9.774 -1.7362 -0.5870 -1.6310
  185SAPI  C21221214   3.498   2.296   9.571  0.2746  0.0849 -0.5226
  185SAPI  H12R21215   3.430   2.213   9.548  0.3953 -0.2289  0.2366
  185SAPI  C21321216   3.538   2.385   9.457 -0.1154  0.9214 -0.2912
  185SAPI  H13R21217   3.649   2.383   9.460 -0.1541 -1.4419  2.3078
  185SAPI  H13S21218   3.513   2.491   9.479  2.8802  1.7731 -0.7072
  185SAPI  C21421219   3.468   2.363   9.326  0.4222  0.7553 -0.4499
  185SAPI  H14R21220   3.405   2.448   9.293 -1.1935 -0.9489 -1.8710
  185SAPI  C21521221   3.494   2.262   9.237 -0.1802  0.3524  0.4500
  185SAPI  H15R21222   3.425   2.258   9.151  1.3197 -1.9276 -0.7157
  185SAPI  C21621223   3.588   2.145   9.263  0.4696  0.0490 -0.2144
  185SAPI  H16R21224   3.552   2.091   9.353  2.0342 -1.1315 -0.2676
  185SAPI  H16S21225   3.675   2.198   9.306  2.2923 -1.5477 -1.7980
  185SAPI  C21721226   3.614   2.040   9.157  0.0286  0.0559 -0.3472
  185SAPI  H17R21227   3.689   1.966   9.191 -0.3515  0.5834  1.7282
  185SAPI  H17S21228   3.656   2.088   9.066  0.0346  0.5571 -0.0840
  185SAPI  C21821229   3.485   1.972   9.123  0.4212 -0.2823 -0.1356
  185SAPI  H18R21230   3.417   2.045   9.073 -1.2737  0.5634  3.2627
  185SAPI  H18S21231   3.439   1.950   9.222 -1.5824  0.2601 -0.9083
  185SAPI  C21921232   3.498   1.832   9.069  0.1040 -0.2234  0.2384
  185SAPI  H19R21233   3.404   1.776   9.084  0.2685 -0.5541  0.0417
  185SAPI  H19S21234   3.578   1.782   9.128  2.8039  3.5469 -0.0177
  185SAPI  C22021235   3.536   1.812   8.918 -0.8090  0.1599  0.1247
  185SAPI  H20R21236   3.571   1.707   8.918 -0.7593  0.1771 -0.4930
  185SAPI  H20S21237   3.624   1.874   8.891  0.3469 -1.0140  1.1295
  185SAPI  H20T21238   3.458   1.815   8.839  0.4789 -0.1173 -1.1723
  185SAPI   C3321239   3.349   2.737  10.192 -0.8351  0.6015  0.0391
  185SAPI   H3X21240   3.253   2.716  10.244 -0.8028  0.0790 -0.1134
  185SAPI   H3Y21241   3.392   2.635  10.200 -0.1725  1.0374  2.7037
  185SAPI   C3421242   3.317   2.744  10.047 -0.7527 -0.0833  0.6210
  185SAPI   H4X21243   3.409   2.763   9.988 -1.1503 -0.4993 -0.1467
  185SAPI   H4Y21244   3.258   2.838  10.040  0.3472  0.6511  1.1954
  185SAPI   C3521245   3.245   2.625   9.982  0.1692  0.2991  0.2618
  185SAPI   H5X21246   3.146   2.615  10.032 -1.3389  0.8589 -2.4935
  185SAPI   H5Y21247   3.303   2.532  10.004 -1.7399 -0.6747  1.3160
  185SAPI   C3621248   3.235   2.622   9.829  0.5535  0.0752 -0.0831
  185SAPI   H6X21249   3.336   2.600   9.788  1.0466  2.3673 -0.1892
  185SAPI   H6Y21250   3.202   2.716   9.779 -1.5896 -0.5657  0.0726
  185SAPI   C3721251   3.139   2.506   9.787 -0.7825  0.0229  0.1155
  185SAPI   H7X21252   3.043   2.535   9.834  0.3392  0.7672  1.9767
  185SAPI   H7Y21253   3.173   2.415   9.841 -4.3693 -0.7492  1.1801
  185SAPI   C3821254   3.117   2.466   9.647 -0.1598  0.5166  0.3847
  185SAPI   H8X21255   3.070   2.365   9.648 -2.0542  1.3909  0.1613
  185SAPI   H8Y21256   3.219   2.455   9.603  0.2958 -0.6295  1.6744
  185SAPI   C3921257   3.023   2.561   9.571 -0.8906  0.0278  0.2439
  185SAPI   H9X21258   3.077   2.657   9.576 -0.4743 -0.2119  0.3684
  185SAPI   H9Y21259   2.931   2.590   9.626 -0.8044  0.4546  0.1626
  185SAPI  C31021260   2.993   2.524   9.423 -0.3772  0.4400  0.2842
  185SAPI  H10X21261   2.921   2.440   9.435 -0.6024  0.4320 -1.0378
  185SAPI  H10Y21262   3.075   2.473   9.368  0.5375  1.8695  0.2963
  185SAPI  C31121263   2.944   2.645   9.326 -0.5065  0.3142 -0.3246
  185SAPI  H11X21264   3.031   2.706   9.294  0.6046 -0.3966  1.2606
  185SAPI  H11Y21265   2.883   2.715   9.386  0.1176  0.7882 -0.2327
  185SAPI  C31221266   2.871   2.608   9.194 -0.0347 -0.0642 -1.0720
  185SAPI  H12X21267   2.948   2.563   9.128  1.9063  2.6572 -0.7812
  185SAPI  H12Y21268   2.843   2.704   9.144  1.4508  1.0570  0.1870
  185SAPI  C31321269   2.742   2.534   9.216 -0.2347  0.8171  0.6325
  185SAPI  H13X21270   2.662   2.611   9.221  1.2462  2.6134 -2.0640
  185SAPI  H13Y21271   2.751   2.471   9.307  0.1740 -0.0217  0.0084
  185SAPI  C31421272   2.719   2.426   9.118 -0.3277  0.4911  0.5221
  185SAPI  H14X21273   2.631   2.366   9.150  0.7139 -1.8444 -0.8519
  185SAPI  H14Y21274   2.796   2.347   9.126 -2.3536 -1.8427 -1.7467
  185SAPI  C31521275   2.722   2.484   8.971  0.2218  0.1518  0.7068
  185SAPI  H15X21276   2.822   2.524   8.940  0.9448 -1.3654  1.0487
  185SAPI  H15Y21277   2.644   2.563   8.960 -0.8980 -0.6363  2.8167
  185SAPI  C31621278   2.677   2.380   8.869  0.1630 -0.4440  0.0995
  185SAPI  H16X21279   2.575   2.345   8.898  0.1495 -0.7666 -0.3297
  185SAPI  H16Y21280   2.757   2.307   8.894  3.2763  2.7244 -0.3171
  185SAPI  C31721281   2.678   2.411   8.715  0.4422  0.1742 -0.1440
  185SAPI  H17X21282   2.610   2.498   8.700  0.2066 -0.0637 -0.4700
  185SAPI  H17Y21283   2.632   2.319   8.674  1.1612 -1.0510  1.7451
  185SAPI  C31821284   2.816   2.430   8.642 -0.9343 -0.4229  0.2710
  185SAPI  H18X21285   2.887   2.349   8.667 -1.3826 -0.5325  1.2077
  185SAPI  H18Y21286   2.861   2.529   8.666 -1.0239 -0.1512 -0.6770
  185SAPI  H18Z21287   2.796   2.423   8.533  2.8784  2.8676 -0.7731
  186SAPI   C1221288   3.834   0.580  10.948 -0.1345  0.2290  0.3356
  186SAPI    H221289   3.941   0.579  10.919 -0.1207  0.3294  0.3865
  186SAPI    O221290   3.831   0.564  11.087 -0.0409  0.3377  0.4539
  186SAPI   HO221291   3.839   0.468  11.090 -1.3419  0.2433  1.5777
  186SAPI   C1321292   3.772   0.702  10.893  0.0027 -0.3795 -0.1097
  186SAPI    H321293   3.784   0.691  10.783 -1.6062 -0.9250 -0.2348
  186SAPI    O321294   3.842   0.814  10.944  0.7413 -0.3042 -0.2648
  186SAPI   HO321295   3.791   0.894  10.929  0.6968 -0.5377 -1.4282
  186SAPI   C1421296   3.628   0.702  10.933 -0.0715 -0.1451  0.0182
  186SAPI    H421297   3.635   0.710  11.043  1.5663  3.8974 -0.2654
  186SAPI    O421298   3.561   0.824  10.885  0.3715  0.3699 -0.7322
  186SAPI   HO421299   3.499   0.833  10.958  2.1068 -1.9562  1.1521
  186SAPI   C1521300   3.557   0.576  10.884  0.4764  0.2604 -0.5195
  186SAPI    H521301   3.560   0.591  10.774  0.0375  0.0747 -0.5561
  186SAPI    O521302   3.418   0.581  10.916 -0.7279 -0.1291 -0.4176
  186SAPI   HO521303   3.360   0.536  10.854  1.2230 -1.2422 -1.4652
  186SAPI   C1621304   3.625   0.445  10.934  0.3643 -0.7699 -0.6801
  186SAPI    H621305   3.624   0.422  11.043 -1.0206  0.1520 -0.4842
  186SAPI    O621306   3.555   0.329  10.879  0.1255  0.0633 -0.9430
  186SAPI   HO621307   3.549   0.343  10.784 -1.6670 -0.0084 -0.8574
  186SAPI   C1121308   3.769   0.451  10.885  0.1001  0.1840 -0.0755
  186SAPI    H121309   3.770   0.469  10.776 -0.9894  0.6778 -0.0112
  186SAPI     P21310   3.957   0.272  10.819  0.2607 -0.4309  0.4847
  186SAPI   O1321311   4.034   0.164  10.887 -0.2067 -0.1703  0.4686
  186SAPI   O1421312   4.031   0.389  10.761  0.5530  0.1931 -0.4897
  186SAPI   O1221313   3.842   0.337  10.922  0.1024 -0.0118  0.6388
  186SAPI   O1121314   3.867   0.206  10.698 -0.1783  0.1320 -0.4585
  186SAPI    C121315   3.935   0.136  10.595 -0.4700  0.0566  0.4596
  186SAPI    HA21316   4.030   0.091  10.629 -1.0955 -1.4449  0.2691
  186SAPI    HB21317   3.865   0.053  10.570  0.7445 -0.7449 -0.2887
  186SAPI    C221318   3.964   0.233  10.472  0.7442 -0.6021 -0.0794
  186SAPI    HS21319   4.015   0.327  10.501  1.5556 -1.1432  0.2710
  186SAPI   O2121320   3.833   0.263  10.415  0.3898 -0.1252  0.2477
  186SAPI   C2121321   3.830   0.341  10.310  0.0805  1.0402 -0.4854
  186SAPI   O2221322   3.927   0.397  10.271 -0.3254 -0.4424  0.5882
  186SAPI   C2221323   3.698   0.345  10.246  0.3609  0.2952 -0.6783
  186SAPI   H2R21324   3.664   0.240  10.228  0.4234  0.1659 -0.0471
  186SAPI   H2S21325   3.623   0.392  10.312 -0.3756 -0.3080 -1.0722
  186SAPI    C321326   4.076   0.170  10.377 -0.0134 -0.9138  0.0405
  186SAPI    HX21327   4.171   0.167  10.435  0.9364  0.9193 -1.3474
  186SAPI    HY21328   4.099   0.231  10.287 -0.2263  0.5145  0.9395
  186SAPI   O3121329   4.046   0.035  10.341  0.0702 -0.5279 -0.3609
  186SAPI   C3121330   3.990   0.020  10.220 -0.0847  0.1397  0.0317
  186SAPI   O3221331   3.958   0.105  10.138  0.3081  0.3279 -0.3380
  186SAPI   C3221332   4.006  -0.136  10.199 -1.6025  0.3668 -0.3528
  186SAPI   H2X21333   3.964  -0.174  10.295  2.1907  3.2877  2.6305
  186SAPI   H2Y21334   4.115  -0.157  10.199 -1.3772  1.4986 -0.1273
  186SAPI   C2321335   3.711   0.423  10.109 -0.4128  0.3695 -0.5177
  186SAPI   H3R21336   3.769   0.357  10.040 -0.8424 -0.2600 -0.2773
  186SAPI   H3S21337   3.762   0.521  10.123 -1.1142  0.8339 -1.1742
  186SAPI   C2421338   3.580   0.458  10.048 -0.1782 -0.5874 -0.3487
  186SAPI   H4R21339   3.606   0.496   9.947 -2.0509  1.7095 -0.0033
  186SAPI   H4S21340   3.532   0.547  10.095  1.2761  0.7325 -1.2883
  186SAPI   C2521341   3.475   0.347  10.031  0.2684 -0.2029 -0.5032
  186SAPI   H5R21342   3.453   0.280  10.115  0.2596 -1.3435 -1.4072
  186SAPI   C2621343   3.382   0.321   9.933 -1.0784 -0.4305 -0.0535
  186SAPI   H6R21344   3.320   0.231   9.946 -1.2044 -0.6587 -2.0143
  186SAPI   C2721345   3.365   0.404   9.809  0.1812 -0.4104 -0.9880
  186SAPI   H7R21346   3.430   0.494   9.799 -2.7646  2.0264  0.6817
  186SAPI   H7S21347   3.266   0.454   9.817  0.8083  0.6785  0.2628
  186SAPI   C2821348   3.376   0.324   9.678 -0.2428  0.3392 -0.1177
  186SAPI   H8R21349   3.325   0.227   9.678  0.1996  0.0603 -2.7321
  186SAPI   C2921350   3.427   0.367   9.565 -0.4713 -0.0829  0.4253
  186SAPI   H9R21351   3.402   0.316   9.471 -0.2349  0.9041 -0.1739
  186SAPI  C21021352   3.494   0.498   9.542 -0.4666  0.2327 -0.8332
  186SAPI  H10R21353   3.446   0.577   9.604  0.0331 -0.6582  0.7032
  186SAPI  H10S21354   3.483   0.526   9.435  2.0511  0.8040 -0.9607
  186SAPI  C21121355   3.639   0.478   9.586 -0.1662 -0.3244  0.4838
  186SAPI  H11R21356   3.655   0.469   9.694  1.7973  1.6377  0.3930
  186SAPI  C21221357   3.748   0.478   9.501 -0.3568 -0.4450 -0.3350
  186SAPI  H12R21358   3.848   0.477   9.546  0.8941 -2.0695 -3.0831
  186SAPI  C21321359   3.748   0.486   9.353 -0.3038  0.3837  0.2710
  186SAPI  H13R21360   3.748   0.592   9.321 -0.0442 -0.2289 -1.8639
  186SAPI  H13S21361   3.655   0.439   9.316 -0.0956 -2.2076  2.8786
  186SAPI  C21421362   3.864   0.424   9.275 -0.1774  0.5455  0.2415
  186SAPI  H14R21363   3.951   0.403   9.339  0.9469  1.0600 -1.0961
  186SAPI  C21521364   3.859   0.357   9.153  0.6992  0.0965  0.2107
  186SAPI  H15R21365   3.951   0.337   9.098  0.2875 -1.0636 -0.0670
  186SAPI  C21621366   3.730   0.350   9.073 -0.1150 -0.0877 -0.1269
  186SAPI  H16R21367   3.645   0.397   9.127 -0.3489 -0.1876 -0.4087
  186SAPI  H16S21368   3.704   0.247   9.041 -0.2737 -0.5420  1.4682
  186SAPI  C21721369   3.737   0.427   8.939 -0.3357  0.2275 -0.0841
  186SAPI  H17R21370   3.827   0.397   8.881  0.7136  0.6885  1.2903
  186SAPI  H17S21371   3.759   0.535   8.957 -1.8335  0.9358 -2.2393
  186SAPI  C21821372   3.612   0.425   8.860 -0.1531 -0.0567 -0.1034
  186SAPI  H18R21373   3.525   0.445   8.926  2.2522 -1.1033  3.5514
  186SAPI  H18S21374   3.610   0.317   8.836  1.4700 -0.2169  0.3936
  186SAPI  C21921375   3.611   0.516   8.742  0.0025 -0.3099 -0.5497
  186SAPI  H19R21376   3.702   0.498   8.680  0.5607  1.0805 -0.1617
  186SAPI  H19S21377   3.611   0.619   8.783 -0.3578 -1.5170  2.6186
  186SAPI  C22021378   3.485   0.492   8.664 -0.3827 -0.4807  0.2861
  186SAPI  H20R21379   3.480   0.387   8.628  2.2189 -1.2877  2.1198
  186SAPI  H20S21380   3.479   0.554   8.572 -0.2504  0.4734  0.9067
  186SAPI  H20T21381   3.388   0.509   8.716 -1.7716 -0.6931 -2.1668
  186SAPI   C3321382   3.936  -0.196  10.069  0.1304  1.0379 -0.3142
  186SAPI   H3X21383   3.838  -0.146  10.051  0.7508  1.8160 -1.6104
  186SAPI   H3Y21384   3.922  -0.305  10.082 -0.7426  1.2615  0.6913
  186SAPI   C3421385   4.012  -0.170   9.938 -0.0481  0.3140  0.3488
  186SAPI   H4X21386   4.113  -0.212   9.959  0.7733  2.1130  0.0268
  186SAPI   H4Y21387   4.031  -0.062   9.921 -0.9959  0.2359 -1.3201
  186SAPI   C3521388   3.957  -0.244   9.818  0.0054 -0.4223  0.6052
  186SAPI   H5X21389   3.860  -0.205   9.783  0.7274 -0.0286 -1.0034
  186SAPI   H5Y21390   3.942  -0.349   9.850  1.6200 -0.3706  1.6442
  186SAPI   C3621391   4.056  -0.241   9.701 -0.6280 -0.0541 -0.0772
  186SAPI   H6X21392   4.160  -0.250   9.740 -0.4793  1.0711 -0.2223
  186SAPI   H6Y21393   4.047  -0.141   9.654  1.2312 -0.1408 -0.6592
  186SAPI   C3721394   4.018  -0.345   9.593  0.9089  0.6018  0.2236
  186SAPI   H7X21395   3.907  -0.344   9.592  0.8915  0.5474  1.1328
  186SAPI   H7Y21396   4.047  -0.449   9.618 -2.5272 -0.3447  0.5830
  186SAPI   C3821397   4.077  -0.304   9.457  0.1220  0.1998 -0.2163
  186SAPI   H8X21398   4.187  -0.289   9.467 -0.0566  2.6723 -1.5642
  186SAPI   H8Y21399   4.040  -0.201   9.439  0.7205  0.2616 -1.1025
  186SAPI   C3921400   4.034  -0.378   9.326 -0.1291 -0.4632  0.1326
  186SAPI   H9X21401   3.924  -0.364   9.322  0.0502  0.7041 -1.4355
  186SAPI   H9Y21402   4.075  -0.481   9.326  2.5487  0.5332  2.6894
  186SAPI  C31021403   4.104  -0.315   9.214  0.2043 -0.0682 -0.2918
  186SAPI  H10X21404   4.215  -0.310   9.222  0.1258 -0.2236  1.0027
  186SAPI  H10Y21405   4.074  -0.209   9.201 -3.7044 -1.1135 -0.3640
  186SAPI  C31121406   4.095  -0.391   9.072 -0.0103 -0.5607  0.7997
  186SAPI  H11X21407   3.986  -0.400   9.054  0.0250 -1.6661  1.1178
  186SAPI  H11Y21408   4.131  -0.495   9.083  5.0181  0.5759 -2.8907
  186SAPI  C31221409   4.170  -0.314   8.970 -0.7504 -0.1037 -0.0884
  186SAPI  H12X21410   4.186  -0.208   9.000  1.1948 -0.3874 -0.0215
  186SAPI  H12Y21411   4.112  -0.302   8.876  0.0771  0.0643 -0.5886
  186SAPI  C31321412   4.311  -0.364   8.952  0.0588  0.2180 -0.3688
  186SAPI  H13X21413   4.347  -0.415   9.044  2.1356  1.9162 -0.1987
  186SAPI  H13Y21414   4.386  -0.284   8.938 -0.7358  0.8741 -0.9373
  186SAPI  C31421415   4.327  -0.471   8.838  0.8893  0.1852  0.1022
  186SAPI  H14X21416   4.354  -0.412   8.747 -2.5499  2.2067  0.2808
  186SAPI  H14Y21417   4.225  -0.514   8.834 -0.4767  3.3143 -0.5140
  186SAPI  C31521418   4.414  -0.590   8.874  0.2342  0.0598 -0.1062
  186SAPI  H15X21419   4.378  -0.637   8.968  1.6071  1.7650  1.3195
  186SAPI  H15Y21420   4.516  -0.552   8.899  1.5297 -2.5125 -1.2441
  186SAPI  C31621421   4.434  -0.691   8.761 -0.5373 -0.4799 -0.6496
  186SAPI  H16X21422   4.525  -0.665   8.703  0.5379 -1.0417  0.7630
  186SAPI  H16Y21423   4.343  -0.689   8.698 -1.8857  0.6234  1.2691
  186SAPI  C31721424   4.447  -0.837   8.813  0.3888 -0.4214 -0.3935
  186SAPI  H17X21425   4.544  -0.854   8.865  0.0036 -3.0877 -0.4425
  186SAPI  H17Y21426   4.436  -0.911   8.730 -0.5284  0.6908 -1.2764
  186SAPI  C31821427   4.346  -0.880   8.924 -0.5251  0.1902  0.1929
  186SAPI  H18X21428   4.328  -0.989   8.936  0.4683 -0.0814 -0.7228
  186SAPI  H18Y21429   4.248  -0.848   8.882  1.0300  2.1821 -2.0410
  186SAPI  H18Z21430   4.356  -0.830   9.023 -3.6723  0.0486  0.6603
  187SAPI   C1221431   1.250   1.582   6.315  0.3592  0.5181 -0.6280
  187SAPI    H221432   1.299   1.555   6.219 -0.9059 -1.0144 -0.8730
  187SAPI    O221433   1.309   1.711   6.349  0.8233 -0.2944 -0.1143
  187SAPI   HO221434   1.320   1.762   6.268  0.9231  0.1631  0.1863
  187SAPI   C1321435   1.101   1.598   6.292 -0.7008  0.2307  0.1032
  187SAPI    H321436   1.047   1.503   6.269  1.2032 -1.9160  4.0257
  187SAPI    O321437   1.066   1.693   6.193  0.7410  0.4849  0.7972
  187SAPI   HO321438   1.079   1.779   6.232  1.3800  2.2057 -2.9268
  187SAPI   C1421439   1.037   1.631   6.425 -0.7039  0.4298  0.2480
  187SAPI    H421440   1.083   1.720   6.473  0.1670  0.3921 -0.4899
  187SAPI    O421441   0.894   1.645   6.413  0.5929 -0.3151 -0.5901
  187SAPI   HO421442   0.863   1.697   6.488  0.2203  1.4131 -1.9204
  187SAPI   C1521443   1.067   1.515   6.519 -0.4715 -0.4562  0.3201
  187SAPI    H521444   1.026   1.423   6.472 -0.7977 -0.0193 -0.2602
  187SAPI    O521445   1.002   1.530   6.643  0.1713  0.1602 -0.2862
  187SAPI   HO521446   0.960   1.446   6.666 -0.7909  0.0471 -2.3790
  187SAPI   C1621447   1.221   1.498   6.540  0.1805  0.5440  0.0654
  187SAPI    H621448   1.257   1.590   6.590 -0.2460  0.9609 -0.3930
  187SAPI    O621449   1.243   1.384   6.625 -0.3442 -0.0913 -0.2570
  187SAPI   HO621450   1.329   1.398   6.667  0.0195 -1.2074 -0.6075
  187SAPI   C1121451   1.285   1.467   6.408 -0.1547 -0.2580 -0.4808
  187SAPI    H121452   1.254   1.370   6.362 -0.3457  0.1232 -1.1596
  187SAPI     P21453   1.527   1.353   6.444 -0.5262 -0.0814 -0.0651
  187SAPI   O1321454   1.652   1.394   6.381  0.3971 -0.2379 -0.0164
  187SAPI   O1421455   1.463   1.226   6.396 -0.4273 -0.0483  0.4912
  187SAPI   O1221456   1.428   1.468   6.413 -0.1387  0.1816  0.0392
  187SAPI   O1121457   1.536   1.352   6.602 -0.1938  0.0081 -0.5355
  187SAPI    C121458   1.569   1.472   6.671 -0.2829  0.3324 -0.0079
  187SAPI    HA21459   1.647   1.529   6.616  2.6461 -1.3619  2.2351
  187SAPI    HB21460   1.479   1.534   6.691 -1.2329 -1.0507  0.0462
  187SAPI    C221461   1.623   1.445   6.806 -0.2192  0.5298  0.1507
  187SAPI    HS21462   1.663   1.538   6.851  0.6900  0.2074  0.0318
  187SAPI   O2121463   1.732   1.350   6.806  0.4280 -0.5469 -0.1648
  187SAPI   C2121464   1.853   1.409   6.793  0.0138 -0.3031 -0.5144
  187SAPI   O2221465   1.873   1.526   6.773  0.7096 -0.7015  0.0076
  187SAPI   C2221466   1.963   1.297   6.811  0.5171 -0.0146 -0.2456
  187SAPI   H2R21467   1.914   1.203   6.844 -0.5850  0.7602  0.3379
  187SAPI   H2S21468   1.998   1.273   6.708 -0.7651  1.3163 -1.0222
  187SAPI    C321469   1.509   1.382   6.896 -0.7425 -0.6935  0.6208
  187SAPI    HX21470   1.550   1.381   6.999  0.1240 -0.1253  0.2852
  187SAPI    HY21471   1.479   1.282   6.856 -0.4267 -0.8193  0.6995
  187SAPI   O3121472   1.394   1.475   6.899 -0.0523  0.1588  0.3334
  187SAPI   C3121473   1.287   1.419   6.956 -0.2854  1.3884  1.0476
  187SAPI   O3221474   1.291   1.306   7.011  0.5572  0.3991  0.6936
  187SAPI   C3221475   1.173   1.518   6.943  0.2996 -1.0648 -0.3385
  187SAPI   H2X21476   1.162   1.541   6.835 -1.9922  0.6928  0.2157
  187SAPI   H2Y21477   1.214   1.613   6.985  0.9549 -0.7490 -1.6795
  187SAPI   C2321478   2.092   1.331   6.895 -0.5016  0.6183 -0.1870
  187SAPI   H3R21479   2.136   1.424   6.852  0.5826  0.4272  0.5242
  187SAPI   H3S21480   2.171   1.253   6.889 -1.1031  0.0254 -0.4549
  187SAPI   C2421481   2.061   1.353   7.040  0.1271  0.4332 -0.4616
  187SAPI   H4R21482   2.020   1.455   7.054 -0.6514  0.0456  0.0602
  187SAPI   H4S21483   2.164   1.358   7.082  0.0088  0.1433 -0.1449
  187SAPI   C2521484   1.974   1.246   7.109 -1.0602  0.2348 -0.2774
  187SAPI   H5R21485   1.954   1.153   7.054 -2.3108 -0.2035  0.8874
  187SAPI   C2621486   1.906   1.263   7.225 -1.2860 -0.1988 -0.3723
  187SAPI   H6R21487   1.847   1.178   7.263 -1.5810 -1.2754 -3.1214
  187SAPI   C2721488   1.902   1.391   7.303  0.3274 -0.0967 -0.0390
  187SAPI   H7R21489   1.984   1.462   7.279  2.1648 -1.5840  1.5444
  187SAPI   H7S21490   1.914   1.362   7.410 -1.1165 -0.6753 -0.0324
  187SAPI   C2821491   1.774   1.465   7.278  0.5124  0.4204  0.6904
  187SAPI   H8R21492   1.730   1.452   7.178  1.0275 -1.3559  0.6686
  187SAPI   C2921493   1.729   1.560   7.370  0.3961  0.5745  0.2563
  187SAPI   H9R21494   1.632   1.608   7.354 -0.3689 -1.1202 -0.2872
  187SAPI  C21021495   1.799   1.595   7.502 -0.2461  0.7951  0.5306
  187SAPI  H10R21496   1.907   1.573   7.491 -0.5745 -0.9398  0.6961
  187SAPI  H10S21497   1.756   1.532   7.583 -0.3827 -1.2906 -1.1343
  187SAPI  C21121498   1.778   1.736   7.550 -0.5715 -0.4177  0.4080
  187SAPI  H11R21499   1.691   1.793   7.513  0.7580  1.2629 -0.1619
  187SAPI  C21221500   1.854   1.792   7.642  0.3125  0.1166 -0.3217
  187SAPI  H12R21501   1.842   1.898   7.668  1.7805  0.2305 -0.0763
  187SAPI  C21321502   1.964   1.727   7.717  0.2315  0.1597 -0.2067
  187SAPI  H13R21503   1.983   1.623   7.684  0.3842 -0.7398  2.5656
  187SAPI  H13S21504   1.932   1.714   7.823 -0.8429 -3.1913 -0.8887
  187SAPI  C21421505   2.085   1.814   7.718 -0.3494 -0.1003  0.1214
  187SAPI  H14R21506   2.099   1.884   7.634 -1.9880 -0.4960 -0.5150
  187SAPI  C21521507   2.176   1.803   7.814  0.2919  0.3261 -0.4470
  187SAPI  H15R21508   2.259   1.876   7.812 -0.0270  0.7308  0.6069
  187SAPI  C21621509   2.177   1.702   7.929 -0.0626 -0.1976 -0.0646
  187SAPI  H16R21510   2.268   1.639   7.917 -1.0902 -1.7491  0.0587
  187SAPI  H16S21511   2.095   1.627   7.924  0.6998 -0.9534 -1.9015
  187SAPI  C21721512   2.174   1.765   8.071 -0.4060 -0.1463  0.8096
  187SAPI  H17R21513   2.074   1.811   8.084 -1.2434 -1.4063 -0.9183
  187SAPI  H17S21514   2.244   1.850   8.084 -0.7868  0.2320  0.4224
  187SAPI  C21821515   2.178   1.662   8.191 -0.3768 -0.7780  0.1118
  187SAPI  H18R21516   2.275   1.608   8.197 -0.8123 -1.5674  0.1934
  187SAPI  H18S21517   2.092   1.592   8.182 -1.1380  0.3427 -1.5173
  187SAPI  C21921518   2.154   1.739   8.324 -0.4383 -0.4700 -0.0993
  187SAPI  H19R21519   2.072   1.808   8.295  0.1581 -0.4420 -1.8001
  187SAPI  H19S21520   2.248   1.793   8.348 -0.8140  0.1537 -0.0166
  187SAPI  C22021521   2.097   1.654   8.445  0.1992 -0.3276 -0.1261
  187SAPI  H20R21522   2.051   1.721   8.521 -1.6655 -3.0665  1.2285
  187SAPI  H20S21523   2.176   1.604   8.505 -1.5124  1.0780  3.4415
  187SAPI  H20T21524   2.022   1.582   8.406 -0.7961 -0.4091  1.8683
  187SAPI   C3321525   1.028   1.486   6.982 -0.4742 -0.0475 -0.2817
  187SAPI   H3X21526   1.003   1.383   6.948  0.5813 -0.1008 -0.9142
  187SAPI   H3Y21527   0.960   1.544   6.916 -3.6435 -1.9852  1.1454
  187SAPI   C3421528   1.008   1.505   7.129 -0.0868  0.6314 -0.4075
  187SAPI   H4X21529   0.904   1.537   7.153  0.3112  1.5611  0.0911
  187SAPI   H4Y21530   1.077   1.581   7.170 -0.2066  0.0604  0.8726
  187SAPI   C3521531   1.024   1.369   7.204 -0.1957  0.3822  0.3800
  187SAPI   H5X21532   1.131   1.341   7.201 -0.2258  0.4246 -1.0000
  187SAPI   H5Y21533   0.969   1.292   7.147  0.1514  0.1310  0.3841
  187SAPI   C3621534   0.960   1.368   7.344 -0.8619  0.7577  0.4292
  187SAPI   H6X21535   0.859   1.411   7.327 -0.5521  1.3462  0.0387
  187SAPI   H6Y21536   1.016   1.437   7.411  0.9109 -0.1511 -0.0756
  187SAPI   C3721537   0.938   1.232   7.411 -0.1150 -0.5407 -0.3630
  187SAPI   H7X21538   1.038   1.192   7.440 -1.3542 -2.2916  1.5951
  187SAPI   H7Y21539   0.901   1.171   7.327 -0.9062 -2.3151  1.2464
  187SAPI   C3821540   0.854   1.236   7.542  0.4081  0.8840 -0.3948
  187SAPI   H8X21541   0.801   1.138   7.540 -0.8058  1.5318 -0.3375
  187SAPI   H8Y21542   0.773   1.311   7.529  0.3440  1.4320  2.7819
  187SAPI   C3921543   0.935   1.244   7.667 -0.2910 -0.6492 -1.0494
  187SAPI   H9X21544   0.970   1.349   7.679 -0.3448 -1.0196  3.2253
  187SAPI   H9Y21545   1.022   1.175   7.658 -1.2723 -2.2816  1.3391
  187SAPI  C31021546   0.848   1.205   7.793  0.0034  0.7504 -0.4784
  187SAPI  H10X21547   0.778   1.123   7.766  0.1742  1.2980 -2.6959
  187SAPI  H10Y21548   0.781   1.292   7.813  1.5079  1.6775  0.6277
  187SAPI  C31121549   0.920   1.172   7.915  0.6498 -0.9966  0.2567
  187SAPI  H11X21550   0.982   1.259   7.943  0.3427 -1.0154  1.0111
  187SAPI  H11Y21551   0.988   1.087   7.895 -1.4212 -2.5210 -0.5409
  187SAPI  C31221552   0.814   1.140   8.032 -0.0178 -0.2210 -0.0088
  187SAPI  H12X21553   0.765   1.042   8.014  0.1926 -0.5016  0.9317
  187SAPI  H12Y21554   0.738   1.220   8.028 -0.7840 -0.9632 -0.7359
  187SAPI  C31321555   0.857   1.136   8.179 -0.5803  0.3386  0.0246
  187SAPI  H13X21556   0.896   1.236   8.209 -0.4172  0.2908 -0.0306
  187SAPI  H13Y21557   0.935   1.057   8.182 -2.0623 -1.1946 -0.9402
  187SAPI  C31421558   0.742   1.086   8.268  0.0011  0.3420  0.1083
  187SAPI  H14X21559   0.650   1.144   8.241 -0.0145  1.9586  3.3471
  187SAPI  H14Y21560   0.762   1.113   8.374 -2.0195  2.7742 -0.0683
  187SAPI  C31521561   0.725   0.935   8.261 -0.4636  0.5826  0.0698
  187SAPI  H15X21562   0.822   0.891   8.293  0.6641  3.1550  0.3061
  187SAPI  H15Y21563   0.703   0.913   8.154 -0.9742  2.4636 -0.2274
  187SAPI  C31621564   0.621   0.880   8.353  0.2357 -0.5578 -0.0208
  187SAPI  H16X21565   0.676   0.880   8.450  0.8084  1.5349 -0.3154
  187SAPI  H16Y21566   0.599   0.776   8.322  2.6004 -0.7983 -1.0400
  187SAPI  C31721567   0.486   0.964   8.363  0.1643  0.0938  0.6057
  187SAPI  H17X21568   0.501   1.073   8.373 -0.6314  0.2649 -0.0835
  187SAPI  H17Y21569   0.448   0.925   8.460  0.2633 -0.1158  0.5604
  187SAPI  C31821570   0.381   0.932   8.257 -0.1469 -0.6151 -0.5177
  187SAPI  H18X21571   0.393   0.823   8.241 -0.4933 -0.7146 -0.1230
  187SAPI  H18Y21572   0.408   0.975   8.158  0.0705 -3.3144 -1.6821
  187SAPI  H18Z21573   0.275   0.951   8.286  0.1308  0.2136 -0.0485
  188SAPI   C1221574   2.662   4.632   6.445 -0.5140  0.7909 -0.2850
  188SAPI    H221575   2.696   4.530   6.473 -0.5757  1.3707  2.0443
  188SAPI    O221576   2.590   4.677   6.560 -0.0506 -0.2158  0.9792
  188SAPI   HO221577   2.510   4.623   6.554  1.4791 -2.3756 -0.6048
  188SAPI   C1321578   2.780   4.719   6.413  0.7712 -0.3896 -0.0736
  188SAPI    H321579   2.827   4.673   6.323 -1.6763  2.4067 -2.9137
  188SAPI    O321580   2.886   4.719   6.507  1.0415  0.7952 -0.3584
  188SAPI   HO321581   2.928   4.636   6.529 -1.9732 -0.1729  2.0127
  188SAPI   C1421582   2.736   4.858   6.371 -0.1967 -0.5586  0.2445
  188SAPI    H421583   2.688   4.905   6.459  0.8968  2.1754 -0.5854
  188SAPI    O421584   2.835   4.943   6.324 -0.2249  0.6553 -0.1541
  188SAPI   HO421585   2.807   5.035   6.322  0.5256  0.8781 -0.5143
  188SAPI   C1521586   2.625   4.849   6.264  0.3137  0.1160  0.7511
  188SAPI    H521587   2.680   4.820   6.172 -2.0090  0.5802 -0.8347
  188SAPI    O521588   2.568   4.978   6.240 -0.0999 -0.2040 -0.2901
  188SAPI   HO521589   2.614   5.022   6.169 -0.6813 -0.3392 -0.7518
  188SAPI   C1621590   2.513   4.744   6.282  0.1970 -0.8982 -0.2471
  188SAPI    H621591   2.459   4.787   6.369  0.9663 -1.6927  0.6484
  188SAPI    O621592   2.425   4.734   6.164 -0.6499 -0.5693  0.3255
  188SAPI   HO621593   2.336   4.723   6.197 -1.1014  1.6428 -0.1164
  188SAPI   C1121594   2.572   4.611   6.325  0.6582 -0.5381  0.5483
  188SAPI    H121595   2.631   4.566   6.242  0.7577 -2.0364  1.4090
  188SAPI     P21596   2.481   4.361   6.349  0.6001  0.2721 -0.7848
  188SAPI   O1321597   2.602   4.327   6.270  1.1029  0.1330 -0.0428
  188SAPI   O1421598   2.352   4.307   6.306  0.2756  0.3446 -0.0891
  188SAPI   O1221599   2.459   4.525   6.360  0.1768 -0.2050 -0.2839
  188SAPI   O1121600   2.504   4.327   6.500 -0.1736 -0.3079 -0.0519
  188SAPI    C121601   2.402   4.322   6.601  0.0571  0.1015  0.7321
  188SAPI    HA21602   2.336   4.412   6.595 -0.0277 -0.0587 -1.2221
  188SAPI    HB21603   2.341   4.233   6.576  0.0948  0.1381  0.5056
  188SAPI    C221604   2.460   4.295   6.744 -0.0342  1.2094 -0.3899
  188SAPI    HS21605   2.376   4.314   6.815 -1.3559 -0.4053 -1.4836
  188SAPI   O2121606   2.583   4.367   6.771 -0.1105 -0.1860 -0.1235
  188SAPI   C2121607   2.561   4.498   6.788 -0.2562 -0.2683 -0.1211
  188SAPI   O2221608   2.453   4.555   6.771 -0.3298 -0.1815 -0.6404
  188SAPI   C2221609   2.698   4.561   6.820 -0.3732  0.6962 -0.2717
  188SAPI   H2R21610   2.761   4.578   6.730 -1.6239 -0.1184 -1.3157
  188SAPI   H2S21611   2.679   4.662   6.862 -0.6530  0.5654 -0.0826
  188SAPI    C321612   2.509   4.148   6.749  0.4780 -0.0579 -0.5553
  188SAPI    HX21613   2.590   4.142   6.673 -0.6130  0.5654 -1.7969
  188SAPI    HY21614   2.431   4.081   6.706  2.5909 -1.5252 -2.2109
  188SAPI   O3121615   2.535   4.097   6.877  0.1698  0.1916 -0.7793
  188SAPI   C3121616   2.655   4.081   6.926  0.4250  0.4346  0.1686
  188SAPI   O3221617   2.758   4.095   6.868  0.3439  0.5573 -0.7189
  188SAPI   C3221618   2.640   4.047   7.075  0.0140  1.0219  0.3257
  188SAPI   H2X21619   2.733   3.989   7.093 -0.9348  0.2626  2.9402
  188SAPI   H2Y21620   2.554   3.979   7.093  0.9662 -0.8472 -1.8744
  188SAPI   C2321621   2.764   4.495   6.945  0.0333 -0.4741  0.1107
  188SAPI   H3R21622   2.862   4.543   6.964  0.2891 -1.3972  1.1355
  188SAPI   H3S21623   2.790   4.390   6.920  0.1458 -0.4906  0.2982
  188SAPI   C2421624   2.676   4.509   7.076  0.1233 -0.4446 -0.7265
  188SAPI   H4R21625   2.728   4.448   7.153 -0.5005  1.8514  1.5702
  188SAPI   H4S21626   2.586   4.444   7.068  0.6507 -1.2629 -0.1637
  188SAPI   C2521627   2.666   4.654   7.123  0.1252  0.6658  0.4394
  188SAPI   H5R21628   2.758   4.706   7.153  0.3169  1.5867 -1.6210
  188SAPI   C2621629   2.554   4.724   7.157 -0.5710 -0.0296  0.0195
  188SAPI   H6R21630   2.569   4.828   7.190 -1.7644 -0.0109  0.5110
  188SAPI   C2721631   2.407   4.680   7.145 -0.2956  0.4709 -0.1677
  188SAPI   H7R21632   2.389   4.599   7.072  1.1217 -0.2846  0.3023
  188SAPI   H7S21633   2.354   4.770   7.106  2.4536  2.6787  0.9658
  188SAPI   C2821634   2.356   4.635   7.276  0.3957 -0.0064 -0.2244
  188SAPI   H8R21635   2.362   4.526   7.288  1.3923 -0.2841 -2.8176
  188SAPI   C2921636   2.316   4.710   7.375  0.1373  0.1301  0.0309
  188SAPI   H9R21637   2.265   4.674   7.465 -2.0312  0.8011 -0.8708
  188SAPI  C21021638   2.317   4.866   7.374 -0.1251 -0.8551  0.8759
  188SAPI  H10R21639   2.215   4.909   7.383  1.1257  2.3971  0.1099
  188SAPI  H10S21640   2.380   4.921   7.301  1.1569 -1.9582  1.1299
  188SAPI  C21121641   2.393   4.910   7.495  0.6387 -0.1427 -0.1566
  188SAPI  H11R21642   2.502   4.928   7.493  0.6315  0.5504  2.7614
  188SAPI  C21221643   2.341   4.939   7.618 -0.1115  0.3740  0.4569
  188SAPI  H12R21644   2.412   4.975   7.694 -0.1422  1.5507 -0.0601
  188SAPI  C21321645   2.199   4.938   7.666  0.5039 -0.6407 -0.3176
  188SAPI  H13R21646   2.134   4.966   7.580 -0.1819 -0.1355  0.3627
  188SAPI  H13S21647   2.197   5.026   7.734 -0.5792 -1.8526  1.2564
  188SAPI  C21421648   2.157   4.816   7.737 -0.1959 -0.5477  0.6439
  188SAPI  H14R21649   2.113   4.737   7.675 -2.3210  0.0746  1.3088
  188SAPI  C21521650   2.175   4.790   7.865  0.1140  0.0895 -0.2411
  188SAPI  H15R21651   2.137   4.693   7.903  0.0196 -0.2421 -1.1747
  188SAPI  C21621652   2.238   4.868   7.971 -0.9446 -1.1639  0.4382
  188SAPI  H16R21653   2.284   4.966   7.942 -0.3137 -0.9439  2.0965
  188SAPI  H16S21654   2.312   4.802   8.022 -0.1478 -0.2230  0.5229
  188SAPI  C21721655   2.139   4.914   8.077  1.2553 -0.1536  0.2399
  188SAPI  H17R21656   2.080   4.824   8.108  2.6279 -1.2357 -0.2551
  188SAPI  H17S21657   2.073   4.996   8.041  0.1745 -1.3181 -0.4891
  188SAPI  C21821658   2.210   4.976   8.202 -0.4204  0.6105  0.3898
  188SAPI  H18R21659   2.238   5.079   8.172  1.6113  0.0787  0.3880
  188SAPI  H18S21660   2.296   4.908   8.219 -1.7529 -1.1473  0.2360
  188SAPI  C21921661   2.118   4.984   8.322 -0.3453 -0.7591  0.4023
  188SAPI  H19R21662   2.090   4.879   8.343 -0.4521 -0.7839  0.1336
  188SAPI  H19S21663   2.030   5.043   8.291 -0.4235 -0.5621  0.9950
  188SAPI  C22021664   2.179   5.036   8.445  0.4147 -0.4922  0.3059
  188SAPI  H20R21665   2.111   5.041   8.532  1.4130  0.5260  1.0332
  188SAPI  H20S21666   2.224   5.137   8.433  3.1812 -1.8252 -1.2284
  188SAPI  H20T21667   2.264   4.973   8.480  2.6988  1.6166 -1.3405
  188SAPI   C3321668   2.617   4.164   7.168  0.3954  0.2903  0.9231
  188SAPI   H3X21669   2.516   4.203   7.141  0.4093  0.9765  1.8389
  188SAPI   H3Y21670   2.691   4.245   7.150 -2.1794  2.2218 -1.4227
  188SAPI   C3421671   2.606   4.122   7.318  0.8249  0.3259 -0.4165
  188SAPI   H4X21672   2.689   4.050   7.338  0.1768 -0.5902 -1.0263
  188SAPI   H4Y21673   2.510   4.071   7.340  0.6183  0.5009 -0.9158
  188SAPI   C3521674   2.624   4.242   7.417  1.2260  0.0513  0.3184
  188SAPI   H5X21675   2.717   4.295   7.389  0.9135  0.3439 -0.1847
  188SAPI   H5Y21676   2.637   4.205   7.521 -2.6198 -2.6181 -0.0551
  188SAPI   C3621677   2.529   4.364   7.418 -0.2344 -0.4591 -0.5475
  188SAPI   H6X21678   2.426   4.331   7.445  0.1570 -0.7667  0.5577
  188SAPI   H6Y21679   2.533   4.416   7.320  1.9805 -1.9627 -1.2892
  188SAPI   C3721680   2.575   4.460   7.535  0.2715 -0.1827 -0.6887
  188SAPI   H7X21681   2.542   4.561   7.501  0.7252  0.6624  1.2468
  188SAPI   H7Y21682   2.685   4.468   7.544 -0.0747  4.4911  1.0506
  188SAPI   C3821683   2.508   4.418   7.663  0.1819  0.3125 -0.5231
  188SAPI   H8X21684   2.562   4.330   7.705  0.7498  1.7135  1.7373
  188SAPI   H8Y21685   2.404   4.389   7.635  0.4286 -1.2459  0.1301
  188SAPI   C3921686   2.507   4.527   7.764 -0.1380 -0.0208 -0.4186
  188SAPI   H9X21687   2.480   4.619   7.709 -2.1021 -0.0234  0.4999
  188SAPI   H9Y21688   2.609   4.548   7.801 -0.1030 -3.0232  1.3636
  188SAPI  C31021689   2.404   4.515   7.885 -1.2668 -0.4659  0.1286
  188SAPI  H10X21690   2.373   4.410   7.907 -1.2940 -0.1982  1.4071
  188SAPI  H10Y21691   2.310   4.554   7.841 -0.5549  2.3816  1.0519
  188SAPI  C31121692   2.470   4.587   8.004  0.4138 -0.3039  0.1610
  188SAPI  H11X21693   2.480   4.692   7.970 -1.5849 -0.4306 -0.9280
  188SAPI  H11Y21694   2.575   4.550   8.007  1.0504  1.4202 -0.1068
  188SAPI  C31221695   2.408   4.559   8.139  0.8058  0.3135  0.4949
  188SAPI  H12X21696   2.392   4.451   8.155  0.5817 -0.1824 -2.8066
  188SAPI  H12Y21697   2.309   4.608   8.146 -0.9385 -3.0725  0.4523
  188SAPI  C31321698   2.487   4.609   8.254  0.5497  0.6087  0.2036
  188SAPI  H13X21699   2.497   4.720   8.256 -0.6814  0.7100  0.9768
  188SAPI  H13Y21700   2.590   4.578   8.227  0.0616 -0.5786 -0.2856
  188SAPI  C31421701   2.436   4.558   8.384 -1.0013 -0.2690  0.2182
  188SAPI  H14X21702   2.529   4.547   8.443 -1.4052 -0.4921  0.8178
  188SAPI  H14Y21703   2.400   4.453   8.383 -0.9928 -0.2705 -0.0011
  188SAPI  C31521704   2.324   4.648   8.435  0.6953 -0.0665  0.2773
  188SAPI  H15X21705   2.224   4.626   8.392  0.4346 -1.3631  1.4909
  188SAPI  H15Y21706   2.337   4.755   8.410 -0.9089 -0.0939 -0.7990
  188SAPI  C31621707   2.311   4.639   8.590 -0.7391 -0.4160  0.8060
  188SAPI  H16X21708   2.239   4.717   8.621  1.9577  2.3986  0.1687
  188SAPI  H16Y21709   2.404   4.660   8.648  0.1333  0.0125 -0.7309
  188SAPI  C31721710   2.265   4.511   8.663  0.0096  1.0277 -0.2422
  188SAPI  H17X21711   2.350   4.439   8.660 -0.2455  0.7276 -0.2182
  188SAPI  H17Y21712   2.173   4.464   8.622 -0.3709 -0.0971  1.8251
  188SAPI  C31821713   2.243   4.541   8.813  0.3196 -0.6798 -0.0176
  188SAPI  H18X21714   2.161   4.616   8.819  2.5169  1.8367 -0.4835
  188SAPI  H18Y21715   2.328   4.597   8.857 -0.3372  0.3916 -0.0880
  188SAPI  H18Z21716   2.224   4.456   8.881  1.2035 -1.2301 -0.4537
  189POPC     N21717   1.561   5.847  11.062  0.1318  0.0338  0.0758
  189POPC   C1221718   1.536   5.877  10.914 -0.3354 -0.1923  0.6687
  189POPC  H12A21719   1.469   5.802  10.875 -1.0179  0.5400  0.4227
  189POPC  H12B21720   1.626   5.877  10.855 -0.9323  4.0316 -0.4563
  189POPC   C1321721   1.447   5.871  11.159 -0.1657 -0.2946 -0.3128
  189POPC  H13A21722   1.469   5.839  11.260 -2.2367 -0.9807 -0.0624
  189POPC  H13B21723   1.426   5.976  11.173  3.0802  0.7683 -2.7716
  189POPC  H13C21724   1.354   5.821  11.137 -0.8285  0.1334  1.4496
  189POPC   C1421725   1.615   5.713  11.074  0.1233 -0.1652 -0.1501
  189POPC  H14A21726   1.702   5.702  11.011  2.2887  1.6314  2.3951
  189POPC  H14B21727   1.658   5.699  11.172 -0.5215 -2.8920 -0.2120
  189POPC  H14C21728   1.550   5.631  11.048 -0.1990 -0.3452  1.1943
  189POPC   C1521729   1.662   5.944  11.117 -0.3263  0.1832 -0.9190
  189POPC  H15A21730   1.757   5.935  11.065 -0.2876 -1.2336 -0.6116
  189POPC  H15B21731   1.681   5.939  11.223 -0.8200 -0.4688 -0.8650
  189POPC  H15C21732   1.631   6.047  11.107 -1.1864  0.0143  0.0354
  189POPC   C1121733   1.459   6.015  10.893 -0.0328 -0.2802  0.0861
  189POPC  H11A21734   1.360   6.002  10.942 -0.5129  0.1849 -0.7461
  189POPC  H11B21735   1.441   6.020  10.784  0.4921 -5.1077 -0.3307
  189POPC     P21736   1.640   6.185  10.847 -0.1143 -0.4431 -0.0522
  189POPC   O1321737   1.713   6.067  10.794 -0.3298  0.3927  0.0797
  189POPC   O1421738   1.737   6.277  10.915  0.0795 -0.0056 -0.3283
  189POPC   O1221739   1.524   6.133  10.947 -0.5333 -0.1740  0.4851
  189POPC   O1121740   1.565   6.256  10.726 -0.2555 -0.3247  0.2089
  189POPC    C121741   1.613   6.365  10.658 -0.2025  0.2292  0.1548
  189POPC    HA21742   1.706   6.412  10.697 -0.1594  1.0572 -0.9115
  189POPC    HB21743   1.535   6.445  10.659 -1.8427 -1.3172 -0.5914
  189POPC    C221744   1.645   6.316  10.504  0.1506  0.2672 -0.1591
  189POPC    HS21745   1.680   6.409  10.456  1.0457  0.5750  1.0490
  189POPC   O2121746   1.527   6.266  10.437  0.2052 -0.5651 -0.6002
  189POPC   C2121747   1.466   6.328  10.343 -0.3689  0.0397  0.6466
  189POPC   O2221748   1.499   6.432  10.295  0.1729 -0.3437 -0.0723
  189POPC   C2221749   1.342   6.248  10.299 -0.0351  0.7665 -0.1843
  189POPC   H2R21750   1.282   6.320  10.239  1.1631 -0.7958 -3.3998
  189POPC   H2S21751   1.285   6.227  10.391  1.0327  0.6974  0.4685
  189POPC    C321752   1.758   6.205  10.499  0.4820 -0.4685  0.0621
  189POPC    HX21753   1.710   6.117  10.548 -1.0719 -0.4189 -1.3295
  189POPC    HY21754   1.845   6.249  10.552 -0.6556 -0.4440  1.9226
  189POPC   O3121755   1.794   6.165  10.364  0.1837  0.7516 -0.5269
  189POPC   C3121756   1.861   6.252  10.305 -0.2948  0.4480 -0.1580
  189POPC   O3221757   1.898   6.360  10.352  0.5298 -0.1578  0.1247
  189POPC   C3221758   1.895   6.195  10.168  0.0845 -0.9548 -0.1215
  189POPC   H2X21759   1.871   6.087  10.153 -0.4805 -0.5074 -2.6202
  189POPC   H2Y21760   2.006   6.193  10.180 -0.1406 -3.0078  1.9792
  189POPC   C2321761   1.390   6.129  10.221 -0.0082 -0.1124  0.1747
  189POPC   H3R21762   1.300   6.069  10.195 -0.0678  0.7095 -1.6247
  189POPC   H3S21763   1.450   6.058  10.281  0.0311  0.4797  0.8451
  189POPC   C2421764   1.447   6.153  10.085 -0.4007  0.1070  0.0342
  189POPC   H4R21765   1.446   6.053  10.037  2.1064  0.4633 -0.8298
  189POPC   H4S21766   1.544   6.206  10.096 -0.9772  0.7680  2.0828
  189POPC   C2521767   1.348   6.237   9.999  0.3313  0.1730  0.1090
  189POPC   H5R21768   1.338   6.345  10.025 -3.6243  0.1274 -0.9323
  189POPC   H5S21769   1.251   6.183  10.000 -0.3261  1.3297  1.5491
  189POPC   C2621770   1.383   6.240   9.851 -0.5497  0.1996 -0.1912
  189POPC   H6R21771   1.486   6.277   9.836 -0.8169  2.5886  3.4195
  189POPC   H6S21772   1.314   6.313   9.803 -1.9083 -0.3678  0.8517
  189POPC   C2721773   1.368   6.104   9.775 -0.6610 -0.3151  0.6788
  189POPC   H7R21774   1.266   6.065   9.796 -1.4773  1.8974  0.9806
  189POPC   H7S21775   1.435   6.023   9.810  0.2377 -0.4132 -1.2032
  189POPC   C2821776   1.388   6.123   9.621 -0.1972 -0.1763 -0.7911
  189POPC   H8R21777   1.321   6.207   9.594 -3.4431 -2.6536 -0.7756
  189POPC   H8S21778   1.332   6.037   9.579 -0.5310  0.3733 -1.4804
  189POPC   C2921779   1.530   6.136   9.573  0.6937  1.3394 -0.1932
  189POPC   H9121780   1.589   6.220   9.612  0.4091  1.9627 -1.1040
  189POPC  C21021781   1.596   6.043   9.500 -0.5588  0.4614 -0.2955
  189POPC  H10121782   1.703   6.053   9.477 -0.5712 -0.9650 -1.0692
  189POPC  C21121783   1.540   5.918   9.434  0.2210  0.1819 -0.1519
  189POPC  H11R21784   1.429   5.924   9.431  0.1761 -0.2852  0.5253
  189POPC  H11S21785   1.564   5.828   9.495  1.2503 -0.5560 -1.6204
  189POPC  C21221786   1.598   5.889   9.295  0.8388 -0.0033 -0.6895
  189POPC  H12R21787   1.557   5.792   9.261 -0.2349 -0.5506  2.0644
  189POPC  H12S21788   1.707   5.883   9.314  0.4518  0.4130  1.8577
  189POPC  C21321789   1.565   5.997   9.193 -1.2584 -0.7553  0.0179
  189POPC  H13R21790   1.591   6.095   9.239  0.7722 -1.4941  0.4870
  189POPC  H13S21791   1.456   5.988   9.175 -1.1799  1.0546 -1.4394
  189POPC  C21421792   1.648   5.989   9.062 -0.2317 -0.2889  0.1417
  189POPC  H14R21793   1.753   6.016   9.085 -0.1609 -0.0035 -0.5332
  189POPC  H14S21794   1.612   6.066   8.992  0.1059  0.6174  0.9523
  189POPC  C21521795   1.632   5.847   9.000 -0.8700 -0.2713 -0.0358
  189POPC  H15R21796   1.529   5.807   8.987 -1.5993  0.4666  3.0713
  189POPC  H15S21797   1.687   5.783   9.072 -1.5203  0.4633  1.1470
  189POPC  C21621798   1.709   5.830   8.866  0.3463 -0.5739  0.2137
  189POPC  H16R21799   1.753   5.728   8.877  2.1892  0.1082 -0.5285
  189POPC  H16S21800   1.796   5.899   8.853  1.0781 -1.3544  0.8805
  189POPC  C21721801   1.631   5.817   8.736 -0.0617 -0.2071 -0.2844
  189POPC  H17R21802   1.554   5.896   8.730 -0.1784 -0.2691  0.4143
  189POPC  H17S21803   1.575   5.721   8.735 -0.0752 -0.2136  0.8672
  189POPC  C21821804   1.718   5.818   8.613 -0.6094  0.1637  0.1281
  189POPC  H18R21805   1.656   5.775   8.531 -0.7962 -0.3098  0.5203
  189POPC  H18S21806   1.805   5.750   8.620 -0.5982  0.2302  0.6402
  189POPC  H18T21807   1.747   5.917   8.571 -0.7823 -0.1790 -0.8222
  189POPC   C3321808   1.861   6.286  10.048  0.1022  0.5200 -0.4331
  189POPC   H3X21809   1.841   6.392  10.073  2.6510  0.8872  0.1811
  189POPC   H3Y21810   1.775   6.245   9.992 -0.6310 -1.0270  1.7310
  189POPC   C3421811   1.968   6.284   9.945 -0.3446  0.8683 -0.0371
  189POPC   H4X21812   2.016   6.184   9.951 -1.7797  0.1519 -0.4375
  189POPC   H4Y21813   2.047   6.362   9.958  1.6213 -1.0207 -0.4076
  189POPC   C3521814   1.901   6.323   9.816  0.0144 -0.2181 -0.2786
  189POPC   H5X21815   1.874   6.430   9.817 -0.2049 -0.2781  0.7651
  189POPC   H5Y21816   1.803   6.274   9.796 -0.6025  1.2271 -0.8797
  189POPC   C3621817   1.990   6.287   9.695 -0.4743  0.0911 -0.7310
  189POPC   H6X21818   2.026   6.183   9.702  1.7137  0.8511 -0.1819
  189POPC   H6Y21819   2.075   6.359   9.693 -0.8376  0.5532  0.0045
  189POPC   C3721820   1.906   6.302   9.567 -0.6624  0.5262  0.6076
  189POPC   H7X21821   1.853   6.399   9.568  1.3628  1.6693  0.3536
  189POPC   H7Y21822   1.826   6.225   9.563  0.1494 -0.2681 -0.7402
  189POPC   C3821823   1.977   6.295   9.424  0.7435 -0.5404  0.2495
  189POPC   H8X21824   2.054   6.216   9.410  2.1695  0.9691 -0.5572
  189POPC   H8Y21825   2.020   6.396   9.412 -0.2950  0.1309  1.9468
  189POPC   C3921826   1.867   6.283   9.317  0.2705 -0.0670  0.0743
  189POPC   H9X21827   1.815   6.381   9.309  0.8872  1.0278  6.7578
  189POPC   H9Y21828   1.796   6.206   9.352  2.2165 -1.1862  1.6801
  189POPC  C31021829   1.927   6.252   9.173  0.1055  0.5573  0.2883
  189POPC  H10X21830   1.934   6.141   9.178 -0.1978  0.5831  1.4364
  189POPC  H10Y21831   2.035   6.278   9.165  0.9420 -2.2374  1.7778
  189POPC  C31121832   1.837   6.310   9.055 -0.3631 -0.1635 -0.2817
  189POPC  H11X21833   1.840   6.421   9.067  1.8032 -0.1628 -0.7023
  189POPC  H11Y21834   1.733   6.273   9.065 -1.5853  3.2889  0.6688
  189POPC  C31221835   1.872   6.270   8.909  0.5585 -0.1610 -0.1617
  189POPC  H12X21836   1.878   6.160   8.906  0.4327 -0.1749  0.1125
  189POPC  H12Y21837   1.975   6.305   8.883  0.7728 -0.9189 -0.3351
  189POPC  C31321838   1.772   6.317   8.795  0.1085 -0.2338 -0.7174
  189POPC  H13X21839   1.701   6.385   8.847 -0.9949 -2.3612  0.6544
  189POPC  H13Y21840   1.709   6.230   8.764 -1.9641  1.3103 -0.9664
  189POPC  C31421841   1.838   6.380   8.672 -0.3216 -0.0803  0.2228
  189POPC  H14X21842   1.913   6.456   8.702  0.9720 -0.2736 -2.3740
  189POPC  H14Y21843   1.756   6.434   8.619  0.5025 -0.0039 -0.9958
  189POPC  C31521844   1.907   6.275   8.579 -0.7280  0.1336 -0.4737
  189POPC  H15X21845   1.840   6.240   8.498 -2.3635 -1.0319  1.3260
  189POPC  H15Y21846   1.937   6.197   8.652  0.7259  1.0660 -0.0492
  189POPC  C31621847   2.039   6.318   8.513  0.2233 -1.1309 -0.4019
  189POPC  H16X21848   2.107   6.359   8.591 -0.5533  0.5803 -0.6035
  189POPC  H16Y21849   2.025   6.401   8.439 -0.3297 -0.8833 -0.0169
  189POPC  H16Z21850   2.081   6.226   8.468 -0.1920 -0.5575 -2.0209
  190POPC     N21851   4.022   2.204  11.215 -0.0100  0.2525 -0.3754
  190POPC   C1221852   4.020   2.294  11.091  0.0234  0.1539  0.1345
  190POPC  H12A21853   4.118   2.309  11.049 -0.3932  1.2546 -0.4700
  190POPC  H12B21854   3.985   2.395  11.107  0.6520  0.3858  0.0426
  190POPC   C1321855   4.103   2.082  11.182  0.1176  0.2362  0.8614
  190POPC  H13A21856   4.205   2.115  11.176  0.7071 -1.4861  0.9375
  190POPC  H13B21857   4.105   2.002  11.254 -1.0483  0.2893  0.9643
  190POPC  H13C21858   4.069   2.043  11.087  0.2761  1.4392  0.3040
  190POPC   C1421859   4.081   2.279  11.339 -0.0663  0.1325 -0.2539
  190POPC  H14A21860   4.019   2.366  11.353  0.3210  0.6022 -1.4209
  190POPC  H14B21861   4.079   2.214  11.425  0.2728  0.3586 -0.0745
  190POPC  H14C21862   4.184   2.302  11.318 -0.0218  0.4630  0.3216
  190POPC   C1521863   3.887   2.150  11.249  0.7724 -0.0678 -0.0583
  190POPC  H15A21864   3.841   2.103  11.164  2.4985  1.2774 -1.7969
  190POPC  H15B21865   3.824   2.230  11.285  1.1061  0.3597 -0.4192
  190POPC  H15C21866   3.888   2.083  11.334 -0.4797  0.3395  0.2873
  190POPC   C1121867   3.956   2.237  10.960 -0.1399 -0.6163 -0.3987
  190POPC  H11A21868   3.927   2.310  10.881  0.3000  0.5157  0.4858
  190POPC  H11B21869   3.861   2.200  11.003  0.4125 -0.2974  1.1179
  190POPC     P21870   4.153   2.186  10.810 -0.2980 -0.0114  0.1870
  190POPC   O1321871   4.235   2.069  10.784 -0.6348 -1.0200 -0.4697
  190POPC   O1421872   4.223   2.297  10.875  0.2284  0.2126  0.4373
  190POPC   O1221873   4.028   2.132  10.900 -0.1435  0.0926 -0.2465
  190POPC   O1121874   4.086   2.238  10.680  0.0157  0.1661  0.5396
  190POPC    C121875   3.986   2.167  10.605  0.0825 -0.1397 -0.3298
  190POPC    HA21876   3.919   2.245  10.563  0.0248 -0.4453 -0.8035
  190POPC    HB21877   3.922   2.106  10.672 -2.5655  1.7690 -1.0316
  190POPC    C221878   4.056   2.094  10.487 -0.3745  0.4530 -0.3107
  190POPC    HS21879   4.141   2.031  10.521  0.0484  1.7329  1.0890
  190POPC   O2121880   4.107   2.183  10.391 -0.2375 -0.2784 -1.2049
  190POPC   C2121881   4.238   2.215  10.407  0.2340  0.6695 -0.2863
  190POPC   O2221882   4.315   2.173  10.494  0.3624  0.4743 -0.0582
  190POPC   C2221883   4.273   2.310  10.300  0.1871  0.1842 -0.4632
  190POPC   H2R21884   4.366   2.368  10.322  0.5065 -0.6834  0.4993
  190POPC   H2S21885   4.185   2.379  10.302 -0.0023 -0.0804  1.2427
  190POPC    C321886   3.955   2.008  10.418  0.1123  0.5189  0.7819
  190POPC    HX21887   3.870   2.060  10.369  1.0540 -0.1116 -1.5518
  190POPC    HY21888   3.905   1.953  10.500  1.5374 -2.0690 -0.0362
  190POPC   O3121889   4.017   1.917  10.327 -0.3120  0.4679  0.1787
  190POPC   C3121890   4.086   1.820  10.380  0.0686 -0.4862 -0.0049
  190POPC   O3221891   4.098   1.798  10.499 -0.8689  0.1381 -0.1212
  190POPC   C3221892   4.154   1.726  10.274  0.3846  0.1428  0.4322
  190POPC   H2X21893   4.074   1.666  10.225  0.4552  1.2434 -1.0826
  190POPC   H2Y21894   4.215   1.658  10.337 -0.2866 -0.1004  0.8266
  190POPC   C2321895   4.269   2.253  10.156  0.3286 -0.9406 -0.4824
  190POPC   H3R21896   4.182   2.184  10.147 -1.2999  0.9354  0.4212
  190POPC   H3S21897   4.366   2.203  10.134  1.2579  0.4887  0.2506
  190POPC   C2421898   4.248   2.360  10.039 -0.2970  0.2546 -0.1395
  190POPC   H4R21899   4.327   2.439  10.041 -0.0973  0.0569 -0.1475
  190POPC   H4S21900   4.158   2.423  10.054 -1.0848 -0.5422 -1.5193
  190POPC   C2521901   4.233   2.304   9.900 -0.5414  0.1174  0.0924
  190POPC   H5R21902   4.133   2.259   9.887 -0.4638 -0.3238  0.9751
  190POPC   H5S21903   4.312   2.229   9.876  0.4542  1.1847 -0.0430
  190POPC   C2621904   4.257   2.405   9.787  0.7183 -0.0506 -0.2776
  190POPC   H6R21905   4.352   2.452   9.819  1.4365 -1.4010 -0.4162
  190POPC   H6S21906   4.179   2.484   9.798 -0.9699 -1.7778  0.5943
  190POPC   C2721907   4.241   2.332   9.658 -0.6754  0.2059 -0.2417
  190POPC   H7R21908   4.142   2.281   9.666 -0.2107 -0.6488  0.1182
  190POPC   H7S21909   4.319   2.253   9.649 -1.0189  0.2209 -3.7863
  190POPC   C2821910   4.250   2.418   9.530  0.9007  0.2343 -0.6290
  190POPC   H8R21911   4.344   2.476   9.522  0.9179  0.3160  0.1991
  190POPC   H8S21912   4.162   2.486   9.529  2.5910  2.4443 -2.5320
  190POPC   C2921913   4.235   2.326   9.411  0.1104 -0.4390  0.4679
  190POPC   H9121914   4.328   2.289   9.365  0.0658 -1.6490  1.3251
  190POPC  C21021915   4.125   2.283   9.348 -0.1193 -0.5501  0.1873
  190POPC  H10121916   4.133   2.211   9.265 -2.5848  1.1821 -1.6394
  190POPC  C21121917   3.976   2.308   9.367  0.4600 -0.2473 -0.5102
  190POPC  H11R21918   3.954   2.327   9.474 -0.7310 -0.3432 -0.7374
  190POPC  H11S21919   3.916   2.230   9.315 -0.6541 -2.3962  3.8458
  190POPC  C21221920   3.932   2.445   9.307  0.9440 -0.9482 -0.2841
  190POPC  H12R21921   4.005   2.525   9.329 -2.7309  2.4493  0.2151
  190POPC  H12S21922   3.837   2.477   9.356  0.9529 -0.2104 -0.7284
  190POPC  C21321923   3.915   2.442   9.157  0.1403  0.8719 -0.0427
  190POPC  H13R21924   3.833   2.370   9.133 -0.5973  1.9854 -0.9477
  190POPC  H13S21925   4.010   2.420   9.104 -1.2095 -2.3936 -1.2555
  190POPC  C21421926   3.866   2.578   9.106 -0.6569  0.2586 -0.1691
  190POPC  H14R21927   3.944   2.656   9.111  0.5234 -0.7503 -2.3338
  190POPC  H14S21928   3.781   2.615   9.167  1.6975  1.0801  2.7678
  190POPC  C21521929   3.824   2.569   8.963  0.3587  0.0455  0.9229
  190POPC  H15R21930   3.741   2.495   8.951 -0.5843  1.4215 -1.2407
  190POPC  H15S21931   3.917   2.536   8.913  0.6556  1.5258  0.4915
  190POPC  C21621932   3.781   2.700   8.911 -0.6147  0.5889  0.1201
  190POPC  H16R21933   3.858   2.780   8.911 -0.9780  0.9518 -1.4722
  190POPC  H16S21934   3.708   2.743   8.983 -0.5672  2.3437 -0.8580
  190POPC  C21721935   3.735   2.707   8.767 -0.7165  0.2150  0.2983
  190POPC  H17R21936   3.696   2.808   8.742 -0.2307 -0.1038 -1.8836
  190POPC  H17S21937   3.650   2.636   8.752 -2.5282  2.8466 -2.5877
  190POPC  C21821938   3.838   2.661   8.663 -1.1611  0.0600 -0.2231
  190POPC  H18R21939   3.934   2.716   8.667 -0.6953 -0.5385 -2.3180
  190POPC  H18S21940   3.805   2.685   8.559  0.7033 -1.3734 -1.1645
  190POPC  H18T21941   3.864   2.554   8.677  3.0266  1.0987  0.5434
  190POPC   C3321942   4.247   1.801  10.177  0.1362 -0.4113 -0.1064
  190POPC   H3X21943   4.350   1.763  10.165  0.4675 -0.0177  1.3786
  190POPC   H3Y21944   4.264   1.906  10.210  1.2338  0.1715 -2.4763
  190POPC   C3421945   4.177   1.812  10.040  0.3878 -0.7587 -0.3314
  190POPC   H4X21946   4.074   1.853  10.040 -0.2458 -2.2610  2.2164
  190POPC   H4Y21947   4.160   1.713   9.991  1.3578 -1.0082 -0.1685
  190POPC   C3521948   4.270   1.885   9.944  0.5270  0.1566  0.1829
  190POPC   H5X21949   4.376   1.854   9.961  0.7435 -0.2996 -1.8813
  190POPC   H5Y21950   4.263   1.994   9.966 -0.0302  0.6658 -2.3583
  190POPC   C3621951   4.237   1.860   9.793 -0.2393 -0.2659  0.1758
  190POPC   H6X21952   4.130   1.886   9.778  0.3861  0.9795 -2.4112
  190POPC   H6Y21953   4.244   1.749   9.785  0.3658 -0.2281  0.1875
  190POPC   C3721954   4.338   1.925   9.696 -1.1985  0.5998 -0.0678
  190POPC   H7X21955   4.439   1.879   9.702 -2.0350 -1.0957  1.7614
  190POPC   H7Y21956   4.351   2.033   9.718  0.6218  0.8983 -2.4771
  190POPC   C3821957   4.290   1.915   9.550 -0.2460 -0.0813  0.0362
  190POPC   H8X21958   4.251   2.016   9.526  0.1468 -0.0302 -0.3802
  190POPC   H8Y21959   4.202   1.847   9.549 -1.0327  0.9140  0.5376
  190POPC   C3921960   4.397   1.875   9.446  0.0378 -0.1220 -0.2707
  190POPC   H9X21961   4.458   1.785   9.471 -0.0104  0.0405  0.4441
  190POPC   H9Y21962   4.482   1.946   9.445 -0.3462  0.4347  2.5628
  190POPC  C31021963   4.337   1.865   9.304  0.2397 -0.1649 -0.9019
  190POPC  H10X21964   4.288   1.957   9.266  1.0026  0.9954  0.8625
  190POPC  H10Y21965   4.266   1.780   9.315  0.9701 -0.3430  3.0580
  190POPC  C31121966   4.451   1.822   9.207 -0.2582  0.0103 -0.6762
  190POPC  H11X21967   4.509   1.739   9.253 -0.7772 -0.7041 -1.2913
  190POPC  H11Y21968   4.530   1.900   9.204 -0.1748  0.0021  0.6652
  190POPC  C31221969   4.399   1.788   9.066 -0.0143  0.1493  0.0950
  190POPC  H12X21970   4.330   1.870   9.035 -0.2789  0.6316  1.9059
  190POPC  H12Y21971   4.332   1.700   9.063  1.9572 -1.3339 -0.8479
  190POPC  C31321972   4.523   1.755   8.971 -0.0941  0.8310 -0.4918
  190POPC  H13X21973   4.577   1.675   9.027 -1.1036  0.2540 -0.3390
  190POPC  H13Y21974   4.594   1.840   8.964 -0.0381  0.9057  0.8770
  190POPC  C31421975   4.492   1.686   8.840 -0.4053 -0.0844  0.6273
  190POPC  H14X21976   4.440   1.588   8.854  1.3683 -1.2208 -0.4717
  190POPC  H14Y21977   4.588   1.667   8.788 -0.0359  0.9977  0.9102
  190POPC  C31521978   4.400   1.766   8.749 -0.3810 -0.0687 -0.5086
  190POPC  H15X21979   4.441   1.864   8.713  1.3386 -0.8057 -0.6322
  190POPC  H15Y21980   4.307   1.794   8.803  1.4184  2.1145  1.5839
  190POPC  C31621981   4.360   1.690   8.622 -0.1383  0.2967  0.0307
  190POPC  H16X21982   4.310   1.594   8.644 -0.0420  0.1821 -0.2518
  190POPC  H16Y21983   4.450   1.670   8.561 -0.4081  0.7541 -0.5212
  190POPC  H16Z21984   4.290   1.751   8.561 -0.2825  0.7481  0.6413
  191POPC     N21985   5.009   3.511   6.018 -0.0207 -0.0035 -0.4035
  191POPC   C1221986   5.094   3.467   6.140  0.1445  0.2307 -0.4010
  191POPC  H12A21987   5.105   3.548   6.210 -0.8326  1.3489 -1.5142
  191POPC  H12B21988   5.192   3.449   6.098  0.5671  2.0238 -0.2509
  191POPC   C1321989   5.024   3.408   5.914 -1.0313 -0.2598  0.6843
  191POPC  H13A21990   4.939   3.409   5.848 -0.3141 -2.7662 -0.3414
  191POPC  H13B21991   5.116   3.429   5.861 -0.9105  1.5368  1.5656
  191POPC  H13C21992   5.028   3.310   5.961 -2.3139 -0.1281  1.0824
  191POPC   C1421993   4.862   3.512   6.057 -0.2572 -0.1562  0.0147
  191POPC  H14A21994   4.800   3.568   5.989 -1.3868 -1.0457  0.3047
  191POPC  H14B21995   4.822   3.412   6.066  0.0025 -0.2287  0.4287
  191POPC  H14C21996   4.857   3.556   6.155 -0.5929 -0.1525 -0.0044
  191POPC   C1521997   5.062   3.632   5.947  0.3549  0.1549  0.0099
  191POPC  H15A21998   5.015   3.649   5.852  0.0542 -1.8375 -0.2328
  191POPC  H15B21999   5.167   3.613   5.933  0.4452  0.1701  0.6320
  191POPC  H15C22000   5.053   3.718   6.012  1.0480 -0.6875  1.2526
  191POPC   C1122001   5.043   3.341   6.218 -0.0506  0.6015  0.6585
  191POPC  H11A22002   5.126   3.300   6.280  0.9072  1.4043 -0.0696
  191POPC  H11B22003   5.017   3.265   6.141  0.5864  0.5109  0.5251
  191POPC     P22004   4.916   3.457   6.413  0.2654 -0.0529  0.0053
  191POPC   O1322005   4.779   3.470   6.467  0.0018 -0.1559  0.1586
  191POPC   O1422006   4.992   3.580   6.384 -0.0020 -0.7395  0.4396
  191POPC   O1222007   4.917   3.367   6.292 -0.1735 -0.1271  0.3339
  191POPC   O1122008   4.992   3.369   6.519 -0.6069 -0.5608 -0.0761
  191POPC    C122009   4.955   3.232   6.545 -0.0271 -0.3183 -0.0658
  191POPC    HA22010   5.045   3.168   6.531 -0.3524 -0.3318 -2.1364
  191POPC    HB22011   4.865   3.191   6.496 -1.0620  0.9887  0.7193
  191POPC    C222012   4.931   3.202   6.702  0.3918  0.2231  0.4646
  191POPC    HS22013   4.824   3.214   6.730  0.4463  0.9034  0.3824
  191POPC   O2122014   5.013   3.288   6.778 -0.5565 -0.1451 -0.5060
  191POPC   C2122015   4.970   3.386   6.853 -0.0706 -0.7249 -0.2239
  191POPC   O2222016   4.855   3.398   6.888 -0.0739  0.4287  0.1308
  191POPC   C2222017   5.090   3.494   6.870 -0.2392 -0.0409 -0.3177
  191POPC   H2R22018   5.125   3.507   6.765  0.1251  0.9780 -0.0751
  191POPC   H2S22019   5.149   3.451   6.953  0.8914  1.2331 -0.4410
  191POPC    C322020   4.962   3.052   6.739 -0.2145  0.4932  0.1825
  191POPC    HX22021   5.060   3.021   6.699  1.4939  0.6643  4.0066
  191POPC    HY22022   4.879   2.993   6.693  1.3528 -1.2233 -0.4863
  191POPC   O3122023   4.976   3.042   6.884  0.1928 -0.4177  0.3780
  191POPC   C3122024   4.967   2.919   6.926  0.5962  0.5762  0.1929
  191POPC   O3222025   4.979   2.825   6.849  0.5971 -0.1448 -0.1580
  191POPC   C3222026   4.974   2.904   7.075 -0.2199  0.0717 -0.1560
  191POPC   H2X22027   4.881   2.860   7.115  0.5096 -1.3097  0.0581
  191POPC   H2Y22028   4.997   3.008   7.107 -0.6056  0.0768  0.0988
  191POPC   C2322029   5.033   3.622   6.937  0.7901  0.5169 -0.1026
  191POPC   H3R22030   4.991   3.591   7.035  0.4414  0.5706 -0.2369
  191POPC   H3S22031   4.951   3.673   6.883  1.0869  1.7151  0.5623
  191POPC   C2422032   5.134   3.731   6.971  0.3323  0.1451  0.3794
  191POPC   H4R22033   5.179   3.758   6.873  0.6385 -0.4522  0.3520
  191POPC   H4S22034   5.210   3.681   7.035  0.6666 -1.7906 -1.4856
  191POPC   C2522035   5.080   3.857   7.041 -0.7909  0.1039 -0.4375
  191POPC   H5R22036   4.973   3.858   7.010 -0.9605 -1.5884  0.0657
  191POPC   H5S22037   5.123   3.951   7.000 -3.9691  1.8071 -0.0377
  191POPC   C2622038   5.091   3.835   7.195  0.2062 -0.2487  0.2282
  191POPC   H6R22039   5.201   3.844   7.207 -0.3438  3.6147  3.4664
  191POPC   H6S22040   5.056   3.733   7.222  0.3393 -0.4792 -0.4582
  191POPC   C2722041   5.035   3.948   7.287 -0.4754 -0.4398 -0.3940
  191POPC   H7R22042   4.928   3.944   7.258  0.0192  2.6495 -3.0030
  191POPC   H7S22043   5.064   4.051   7.257  1.8417 -0.9056  0.1947
  191POPC   C2822044   5.063   3.939   7.440  0.1807 -0.2051 -0.6392
  191POPC   H8R22045   5.026   4.024   7.501  4.1988  0.3095  1.2703
  191POPC   H8S22046   5.174   3.940   7.449  0.0416  0.8051  1.3925
  191POPC   C2922047   5.011   3.814   7.499  0.0149 -0.4267 -0.3003
  191POPC   H9122048   5.056   3.726   7.451  0.3594 -0.8558  0.7922
  191POPC  C21022049   4.915   3.800   7.594 -0.7250 -0.2564 -0.5194
  191POPC  H10122050   4.900   3.699   7.635 -0.3157  0.2222  0.8495
  191POPC  C21122051   4.841   3.910   7.666  0.2023  0.1728 -0.3819
  191POPC  H11R22052   4.733   3.884   7.660  0.9778 -2.6419 -3.2165
  191POPC  H11S22053   4.856   4.009   7.617  1.0638 -2.0305 -4.7308
  191POPC  C21222054   4.877   3.921   7.815  1.1350 -0.0961  0.4893
  191POPC  H12R22055   4.978   3.966   7.826  0.3138  2.9338 -3.3202
  191POPC  H12S22056   4.882   3.818   7.858 -0.0971  0.1733  1.3372
  191POPC  C21322057   4.773   4.010   7.894 -0.3253  0.0651  0.0729
  191POPC  H13R22058   4.676   3.958   7.878 -1.1519  1.6212 -0.0610
  191POPC  H13S22059   4.775   4.112   7.849  0.9767  0.0030 -0.0433
  191POPC  C21422060   4.796   4.015   8.041  0.3280  1.0511  0.1486
  191POPC  H14R22061   4.900   4.042   8.069  1.5708 -2.6883 -0.5077
  191POPC  H14S22062   4.784   3.914   8.085 -0.8433  1.6369  1.2094
  191POPC  C21522063   4.686   4.097   8.098  1.2266  0.0858 -0.1539
  191POPC  H15R22064   4.592   4.044   8.074 -0.3845  3.0729 -0.6435
  191POPC  H15S22065   4.678   4.196   8.046  0.9904  1.1560  1.8745
  191POPC  C21622066   4.697   4.116   8.249  0.7169 -0.5419 -0.1412
  191POPC  H16R22067   4.801   4.110   8.286  1.2634 -1.9181 -1.8124
  191POPC  H16S22068   4.642   4.030   8.293 -2.6004  0.5837 -1.8917
  191POPC  C21722069   4.635   4.242   8.302  0.5248 -0.8478 -0.4531
  191POPC  H17R22070   4.531   4.233   8.265  0.3859  0.9461 -0.5785
  191POPC  H17S22071   4.681   4.332   8.256 -0.4448 -0.2251 -0.2117
  191POPC  C21822072   4.632   4.254   8.458 -0.6047  0.1596 -0.6135
  191POPC  H18R22073   4.593   4.165   8.511  0.4062  1.0244  1.6344
  191POPC  H18S22074   4.591   4.351   8.494  2.7321  1.1505  0.7179
  191POPC  H18T22075   4.738   4.249   8.492 -0.8724  2.1174  0.5959
  191POPC   C3322076   5.087   2.808   7.119  0.4933 -0.0338  0.1116
  191POPC   H3X22077   5.151   2.763   7.040  3.1155 -0.3672  2.3455
  191POPC   H3Y22078   5.045   2.724   7.178  1.9990 -0.5596  0.4702
  191POPC   C3422079   5.188   2.885   7.212  0.0897 -0.7430 -0.4282
  191POPC   H4X22080   5.213   2.976   7.153  0.9186 -0.1558  0.8275
  191POPC   H4Y22081   5.275   2.818   7.228  3.0868  3.5372  2.1291
  191POPC   C3522082   5.129   2.939   7.337  0.3026 -0.4534 -0.5551
  191POPC   H5X22083   5.046   3.011   7.322  0.7099  0.6058  1.9537
  191POPC   H5Y22084   5.205   3.004   7.385 -1.2233  1.8471 -1.1480
  191POPC   C3622085   5.097   2.825   7.436  0.3453  0.5152  1.1236
  191POPC   H6X22086   5.174   2.747   7.418  0.0104  0.0432  1.6776
  191POPC   H6Y22087   5.000   2.775   7.415  2.2624 -1.7597 -2.6906
  191POPC   C3722088   5.113   2.867   7.582 -0.2403 -0.1409 -0.0368
  191POPC   H7X22089   5.057   2.959   7.608 -1.6263 -0.8442 -0.4868
  191POPC   H7Y22090   5.217   2.905   7.591 -0.6594  0.8398  0.7642
  191POPC   C3822091   5.086   2.758   7.675  0.1343 -0.2041 -0.2406
  191POPC   H8X22092   5.171   2.686   7.680  0.2392 -0.1556 -1.3104
  191POPC   H8Y22093   4.997   2.701   7.639 -0.3549 -1.1241  2.2422
  191POPC   C3922094   5.065   2.813   7.816  0.2262 -0.0777 -0.2265
  191POPC   H9X22095   4.968   2.866   7.806  1.5821  2.3307 -1.1132
  191POPC   H9Y22096   5.139   2.888   7.852 -0.0445  0.1915 -0.2273
  191POPC  C31022097   5.031   2.705   7.916  0.3527 -0.2158 -0.1751
  191POPC  H10X22098   5.117   2.635   7.908  0.8367  0.4768 -1.1413
  191POPC  H10Y22099   4.945   2.644   7.881 -0.1857  0.8578 -0.7330
  191POPC  C31122100   5.003   2.761   8.061  0.1986  0.0398 -0.2785
  191POPC  H11X22101   4.912   2.824   8.054  0.7275  0.7602 -0.7607
  191POPC  H11Y22102   5.089   2.826   8.087 -0.6995  0.8111  0.8328
  191POPC  C31222103   4.995   2.653   8.179  0.1740  0.3779  1.0479
  191POPC  H12X22104   5.101   2.620   8.180  0.5292  1.4980  2.6333
  191POPC  H12Y22105   4.929   2.568   8.152 -0.4602  1.8117 -2.1626
  191POPC  C31322106   4.972   2.704   8.317  0.1841 -0.1034  0.7485
  191POPC  H13X22107   4.960   2.619   8.386  1.3952 -0.4827  0.4919
  191POPC  H13Y22108   4.877   2.763   8.316 -0.1223 -0.5760  1.8087
  191POPC  C31422109   5.092   2.788   8.371 -0.5559  0.6877  0.1821
  191POPC  H14X22110   5.075   2.894   8.343 -0.6565 -0.3974 -4.2898
  191POPC  H14Y22111   5.184   2.755   8.318 -2.4721 -0.1474 -2.8016
  191POPC  C31522112   5.117   2.787   8.523 -0.2472  0.1105 -1.4608
  191POPC  H15X22113   5.138   2.687   8.566  0.3052 -0.4048 -2.8950
  191POPC  H15Y22114   5.026   2.830   8.570  1.5824  0.3677  1.9486
  191POPC  C31622115   5.221   2.891   8.578 -0.4737 -0.2348  0.1944
  191POPC  H16X22116   5.242   2.877   8.687 -0.3148 -0.9286  0.0783
  191POPC  H16Y22117   5.196   2.992   8.542  0.4764 -0.5693 -1.4286
  191POPC  H16Z22118   5.321   2.871   8.534 -0.3000  0.4998  0.2569
  192POPC     N22119   4.242   5.622   5.925  0.6926 -0.1155 -0.2795
  192POPC   C1222120   4.129   5.583   6.015  0.0355  0.2478  0.3321
  192POPC  H12A22121   4.131   5.476   6.034  1.4691 -0.6642 -4.3550
  192POPC  H12B22122   4.032   5.605   5.974  0.1762 -2.9422 -1.8807
  192POPC   C1322123   4.374   5.581   5.987 -0.1066 -0.4718 -0.3247
  192POPC  H13A22124   4.364   5.482   6.028  2.3253  0.3952  2.5164
  192POPC  H13B22125   4.456   5.574   5.916 -0.9916  0.5028 -1.4688
  192POPC  H13C22126   4.401   5.620   6.083  0.9522 -2.7411  0.3316
  192POPC   C1422127   4.226   5.562   5.792  0.1864 -0.0801  0.7599
  192POPC  H14A22128   4.128   5.586   5.754  0.4346 -1.6595 -0.9649
  192POPC  H14B22129   4.311   5.599   5.737  1.4730 -0.0773  2.7199
  192POPC  H14C22130   4.233   5.455   5.806 -0.9433 -0.3084 -0.2858
  192POPC   C1522131   4.247   5.772   5.894  0.2026 -0.2231 -0.2897
  192POPC  H15A22132   4.171   5.789   5.819 -0.8067 -1.7251  0.3932
  192POPC  H15B22133   4.334   5.803   5.837  0.6292 -1.2049 -0.1748
  192POPC  H15C22134   4.222   5.819   5.988  0.5483  0.7097 -0.6498
  192POPC   C1122135   4.125   5.646   6.161 -0.3489 -0.0602  0.2471
  192POPC  H11A22136   4.219   5.598   6.197 -0.3517  0.1415  0.5205
  192POPC  H11B22137   4.035   5.620   6.220  0.3803  0.7621  1.7320
  192POPC     P22138   4.036   5.897   6.180 -0.5814 -0.2560 -0.1668
  192POPC   O1322139   3.933   5.878   6.083 -0.4037  0.0962  0.0370
  192POPC   O1422140   4.101   6.027   6.178 -0.2308 -0.1954 -0.1122
  192POPC   O1222141   4.148   5.785   6.158 -0.3202  0.0360  0.5134
  192POPC   O1122142   3.971   5.864   6.326 -0.2994  0.2911  0.0886
  192POPC    C122143   4.039   5.855   6.451  0.6418 -0.2019 -0.3177
  192POPC    HA22144   4.149   5.848   6.443  0.6851  0.6876 -0.4800
  192POPC    HB22145   4.011   5.760   6.502 -0.7990 -1.1697 -2.8364
  192POPC    C222146   4.005   5.985   6.532 -0.2920 -0.8663  0.2695
  192POPC    HS22147   4.033   6.063   6.458  1.3421 -0.4641  1.2878
  192POPC   O2122148   4.090   5.994   6.641  0.0719  0.0735  0.2268
  192POPC   C2122149   4.091   6.109   6.704 -0.0963  0.0225 -0.0880
  192POPC   O2222150   4.031   6.211   6.669 -0.4194  0.0993  0.2396
  192POPC   C2222151   4.161   6.092   6.842 -0.1500 -0.4417 -0.4735
  192POPC   H2R22152   4.248   6.024   6.828  1.3150  1.0676  1.0272
  192POPC   H2S22153   4.088   6.044   6.910  0.3155  1.3335  1.3037
  192POPC    C322154   3.848   5.998   6.557  0.2704  0.0888  0.0770
  192POPC    HX22155   3.804   5.968   6.459  0.5052  0.2408 -0.0730
  192POPC    HY22156   3.819   6.104   6.567  2.1074  0.4325  2.2584
  192POPC   O3122157   3.806   5.916   6.663 -0.4595  0.2436 -0.1137
  192POPC   C3122158   3.684   5.942   6.715 -0.0412  0.2562 -0.1829
  192POPC   O3222159   3.603   6.021   6.676  0.2910 -0.7194  0.3924
  192POPC   C3222160   3.657   5.828   6.826  0.0878 -0.9329  0.2358
  192POPC   H2X22161   3.752   5.805   6.880 -0.7286 -1.4556  1.4583
  192POPC   H2Y22162   3.619   5.735   6.779 -0.9746 -1.0062  1.2295
  192POPC   C2322163   4.195   6.223   6.915 -0.6560  0.1033  0.2136
  192POPC   H3R22164   4.118   6.303   6.902 -1.6735 -0.5815  1.8880
  192POPC   H3S22165   4.286   6.264   6.865 -0.7719  0.8564  0.6052
  192POPC   C2422166   4.218   6.193   7.066 -0.2281 -0.3631  0.5833
  192POPC   H4R22167   4.294   6.113   7.075 -1.3037 -1.2384  2.0411
  192POPC   H4S22168   4.123   6.158   7.112 -0.2345 -1.0348  0.0719
  192POPC   C2522169   4.268   6.318   7.144 -0.2699 -1.0029 -0.4336
  192POPC   H5R22170   4.182   6.388   7.152  0.9304  0.3694  0.9393
  192POPC   H5S22171   4.344   6.375   7.086 -0.5918  1.1119  1.1360
  192POPC   C2622172   4.319   6.276   7.282  0.4079  0.2376 -0.2196
  192POPC   H6R22173   4.369   6.361   7.335  2.3011 -0.2547 -1.1687
  192POPC   H6S22174   4.396   6.195   7.282  2.1033  1.7996 -1.5424
  192POPC   C2722175   4.205   6.230   7.375 -0.0566  0.2256 -0.4178
  192POPC   H7R22176   4.137   6.149   7.340  1.0837 -0.5683 -0.8027
  192POPC   H7S22177   4.147   6.321   7.404  0.6884  0.9940 -1.3245
  192POPC   C2822178   4.261   6.196   7.515 -0.4695 -0.1178 -0.0138
  192POPC   H8R22179   4.308   6.290   7.553 -0.6151 -0.2698  0.5429
  192POPC   H8S22180   4.347   6.127   7.496  0.6692  1.1501  0.3989
  192POPC   C2922181   4.159   6.127   7.608  0.7177 -0.2864  0.0964
  192POPC   H9122182   4.161   6.017   7.612 -3.5449 -0.5454 -1.9823
  192POPC  C21022183   4.085   6.186   7.699  0.5875  1.0582  0.6323
  192POPC  H10122184   4.006   6.138   7.758  1.6923  0.9512  2.0479
  192POPC  C21122185   4.101   6.332   7.711  0.4436 -0.2418  0.2463
  192POPC  H11R22186   4.003   6.370   7.746 -0.0688 -2.1654  0.9996
  192POPC  H11S22187   4.122   6.385   7.616 -1.7959 -2.5421 -1.5991
  192POPC  C21222188   4.193   6.382   7.828  0.2364  0.1701  0.2158
  192POPC  H12R22189   4.220   6.488   7.807 -1.2531  0.2441 -1.4154
  192POPC  H12S22190   4.279   6.311   7.823 -0.3110 -0.4109 -1.0282
  192POPC  C21322191   4.122   6.384   7.968  0.7580 -0.0417  0.1713
  192POPC  H13R22192   4.097   6.276   7.971 -3.0347  0.7468 -0.2155
  192POPC  H13S22193   4.025   6.437   7.965  0.3677 -0.7574 -0.1780
  192POPC  C21422194   4.215   6.434   8.081  0.0829 -0.2035 -0.3828
  192POPC  H14R22195   4.242   6.540   8.064  0.4769 -0.0209  1.2961
  192POPC  H14S22196   4.303   6.366   8.079 -0.0176 -0.3278 -0.5191
  192POPC  C21522197   4.151   6.433   8.222  0.5321  0.0937 -0.0827
  192POPC  H15R22198   4.168   6.330   8.260  2.0058 -0.4044 -2.0009
  192POPC  H15S22199   4.043   6.454   8.206  0.3240 -1.2059 -0.4566
  192POPC  C21622200   4.181   6.538   8.334 -0.6007 -0.0861  0.3223
  192POPC  H16R22201   4.103   6.532   8.412 -0.8710 -0.1463  0.0508
  192POPC  H16S22202   4.184   6.639   8.286  0.3617  0.0416  0.6448
  192POPC  C21722203   4.325   6.520   8.395 -0.2158 -0.2864 -0.4949
  192POPC  H17R22204   4.396   6.551   8.315 -1.0036  0.3601 -0.9464
  192POPC  H17S22205   4.343   6.411   8.412  0.8878 -0.1358 -0.6458
  192POPC  C21822206   4.340   6.591   8.531 -0.0707 -0.8148  0.4502
  192POPC  H18R22207   4.247   6.591   8.591 -0.5801 -0.1439 -0.3248
  192POPC  H18S22208   4.375   6.696   8.516 -0.1485 -0.8140  0.2679
  192POPC  H18T22209   4.416   6.539   8.593  0.6519  0.0824  0.3424
  192POPC   C3322210   3.551   5.888   6.916  0.1437  0.8370 -0.0045
  192POPC   H3X22211   3.464   5.929   6.860  0.8793  1.1007 -0.9776
  192POPC   H3Y22212   3.594   5.968   6.980  0.9353  1.6278 -1.4975
  192POPC   C3422213   3.473   5.787   7.008  0.0220 -0.3234  0.4439
  192POPC   H4X22214   3.538   5.783   7.098 -0.2375 -2.3118  0.5612
  192POPC   H4Y22215   3.466   5.688   6.958 -0.7374 -0.4115  0.7209
  192POPC   C3522216   3.338   5.846   7.047  0.9701 -0.4321 -0.5478
  192POPC   H5X22217   3.260   5.834   6.969  1.1454  0.4832 -0.8743
  192POPC   H5Y22218   3.345   5.957   7.051 -0.0922 -0.4187  1.6771
  192POPC   C3622219   3.280   5.783   7.171 -0.3946 -0.5037  0.2430
  192POPC   H6X22220   3.253   5.677   7.155 -0.5940 -0.2404 -1.1833
  192POPC   H6Y22221   3.185   5.835   7.194 -1.5283 -2.7385  0.7042
  192POPC   C3722222   3.371   5.793   7.299 -0.0335 -0.1903 -0.1698
  192POPC   H7X22223   3.404   5.899   7.304 -0.8421  0.0104  1.1621
  192POPC   H7Y22224   3.465   5.735   7.292  0.9914  1.0294  2.7141
  192POPC   C3822225   3.309   5.745   7.427  0.5216  0.1635  0.1629
  192POPC   H8X22226   3.299   5.634   7.419 -1.1410  0.2940  0.4089
  192POPC   H8Y22227   3.207   5.788   7.427  0.2029 -0.5900 -1.4113
  192POPC   C3922228   3.369   5.777   7.561 -0.1805 -0.3407 -0.5127
  192POPC   H9X22229   3.355   5.886   7.574 -1.6063 -0.4704 -0.8713
  192POPC   H9Y22230   3.479   5.760   7.556 -0.3670 -1.3608 -1.1869
  192POPC  C31022231   3.338   5.696   7.686 -1.2057  0.7568  0.2073
  192POPC  H10X22232   3.379   5.593   7.681  0.0316  1.3108 -1.8446
  192POPC  H10Y22233   3.228   5.680   7.685 -0.9690 -0.9661 -1.9997
  192POPC  C31122234   3.378   5.754   7.815  0.0230 -0.5100  0.0733
  192POPC  H11X22235   3.349   5.859   7.836 -2.0719 -0.9859 -0.3946
  192POPC  H11Y22236   3.488   5.747   7.829  0.5173  1.0399 -2.6429
  192POPC  C31222237   3.304   5.686   7.934 -0.1867  0.0311  0.1420
  192POPC  H12X22238   3.373   5.699   8.020  1.7852 -2.1298 -1.0712
  192POPC  H12Y22239   3.312   5.578   7.911 -3.2858  0.0009 -1.0903
  192POPC  C31322240   3.154   5.735   7.960 -0.6814 -0.7100 -0.1764
  192POPC  H13X22241   3.103   5.723   7.863 -0.3856 -1.9110 -0.1911
  192POPC  H13Y22242   3.154   5.841   7.993 -1.4011 -1.0398  0.9255
  192POPC  C31422243   3.069   5.651   8.056  0.1188  0.3849  0.8676
  192POPC  H14X22244   3.082   5.543   8.034 -2.0984  0.2758 -0.0090
  192POPC  H14Y22245   2.960   5.665   8.039  0.3601  0.9290 -0.2779
  192POPC  C31522246   3.098   5.676   8.204  0.5613  0.8160  0.1504
  192POPC  H15X22247   3.102   5.786   8.222  2.5621  0.7240  0.4297
  192POPC  H15Y22248   3.204   5.651   8.226 -0.1498 -1.5739  0.9579
  192POPC  C31622249   2.997   5.609   8.302  0.2144 -0.1370  0.0130
  192POPC  H16X22250   2.890   5.636   8.288  0.2506  0.4233  0.7928
  192POPC  H16Y22251   3.027   5.635   8.406  1.0250 -2.5736  0.4182
  192POPC  H16Z22252   3.021   5.501   8.294 -2.3317 -1.0074  2.8831
  193SOD    SOD22253   3.951   2.080  13.822 -0.2126  1.2646  0.2411
  194SOD    SOD22254   2.650   4.604   5.681  0.1463 -0.7737 -0.3167
  195SOD    SOD22255   2.814   1.700  14.703  0.0833  0.5165  0.0626
  196SOD    SOD22256   0.839   1.319  16.235 -0.0437  0.3118  0.1578
  197SOD    SOD22257   0.798   0.774   5.752 -0.1824  0.2178 -0.0545
  198SOD    SOD22258   4.540   0.677  13.902  0.0036  0.3044 -0.4533
  199SOD    SOD22259   0.554   3.410   4.606 -0.8091 -0.0787  0.2446
  200SOD    SOD22260   2.308   6.498   0.531  0.6145  0.1156 -0.7706
  201SOD    SOD22261   0.725   6.249   0.687 -0.0860 -0.0295 -0.2040
  202SOD    SOD22262   0.463   5.746  17.184  0.2659  0.1951  0.4952
  203SOD    SOD22263   4.642   0.841   2.465  0.9294  0.6616  0.3487
  204SOD    SOD22264   2.421   4.084   5.794 -0.8590  0.4928  0.5237
  205SOD    SOD22265   4.502   4.444  11.100  0.0130 -0.5856  0.2626
  206SOD    SOD22266   2.522   5.812  16.457 -0.1175  0.1159 -0.4180
  207SOD    SOD22267   6.317   4.453   3.930  0.2796 -0.5961  0.1643
  208SOD    SOD22268   2.775   1.037   4.395 -0.5742 -0.4619 -0.4549
  209SOD    SOD22269   3.104   6.690   5.513  0.1670 -0.1798  0.1805
  210SOD    SOD22270   6.083   2.458  11.286 -0.0428 -1.0140  0.0122
  211SOD    SOD22271   1.941   3.308   5.418  0.0636 -0.0062 -0.5608
  212SOD    SOD22272   5.062   6.451  15.697 -0.4712 -0.0338 -0.4435
  213SOD    SOD22273   0.737   2.522  11.635 -0.1339  0.0107  0.3363
  214SOD    SOD22274   4.502   2.953   3.128 -0.7205  0.3733  0.3823
  215SOD    SOD22275   1.967   6.665   5.049  0.3912 -0.5150 -0.5938
  216SOD    SOD22276   0.684   2.436   1.786 -0.0938 -0.1623  0.4350
  217SOD    SOD22277   0.719   4.922  12.155 -0.4032  0.3011  0.3268
  218SOD    SOD22278   3.789   4.739  16.677 -0.0977 -0.3812 -0.3287
  219SOD    SOD22279   0.468   1.529  14.582  0.3852 -0.7791  0.1414
  220SOD    SOD22280   0.591   2.159   0.985 -0.2969 -0.2966 -0.1697
  221SOD    SOD22281   0.881   5.351   2.606  0.0850 -0.1925 -0.1381
  222SOD    SOD22282   1.755   6.362  11.382 -0.7190 -0.3452  0.7905
  223SOD    SOD22283   3.083   5.801   0.107 -0.2148 -0.3751 -0.1781
  224SOD    SOD22284   4.439   4.293   4.624 -0.5977 -0.1494  0.3694
  225SOD    SOD22285   3.709   3.422  13.997 -0.4564 -0.1885 -0.4148
  226SOD    SOD22286   3.568   3.292   0.517 -0.2085 -0.2701 -0.0333
  227SOD    SOD22287   3.476   0.748   5.280 -0.2237 -0.3389  0.1341
  228SOD    SOD22288   2.105   6.644  11.183 -0.4023  0.0852 -0.1539
  229SOD    SOD22289   3.929   0.762  16.706  0.2982 -0.0862  0.4883
  230SOD    SOD22290   1.908   2.758  13.213  0.2782  0.4178  0.0438
  231SOD    SOD22291   2.018   6.504  13.281  0.1842  0.6912 -0.5717
  232SOD    SOD22292   4.473   2.378   6.100  0.3086  0.1826 -0.0628
  233SOD    SOD22293   5.740   5.236  12.616 -0.1779  0.5788 -0.1882
  234SOD    SOD22294   4.166   3.073  13.338  0.4360 -0.5137  0.1261
  235SOD    SOD22295   2.657   1.487   1.510  0.6303  0.4579 -0.1591
  236SOD    SOD22296   2.547   4.675  11.404 -0.3588 -0.1775 -0.8440
  237SOD    SOD22297   3.399   1.644  15.757 -0.5395 -0.2590  0.0498
  238SOD    SOD22298   3.903   1.475   2.065 -0.0938 -0.2597  0.0023
  239SOD    SOD22299   4.950   1.638   3.861  0.2704  0.7465  0.0242
  240SOD    SOD22300   6.444   4.946   0.448 -0.2976 -0.3138  0.0124
  241SOD    SOD22301   0.975   1.191  14.184 -0.3189 -0.2538 -0.1421
  242SOD    SOD22302   2.808   3.596   5.606 -0.1022 -0.0480  0.7721
  243SOD    SOD22303   1.737   1.253   3.574 -0.1751  0.1646  0.2380
  244SOD    SOD22304   5.614   3.951   6.160  0.8198  0.1180  0.7350
  245SOD    SOD22305   5.514   6.412   3.510 -0.0199  0.1936  0.3416
  246SOD    SOD22306   4.121   3.951   5.486  0.3474  0.7388  0.2503
  247SOD    SOD22307   0.407   4.507   1.077 -0.1034 -0.5202 -0.1108
  248SOD    SOD22308   2.447   2.313   2.702  0.0082  0.1276 -0.2343
  249SOD    SOD22309   0.203   6.074   2.594 -0.3000  0.0801 -0.1388
  250SOD    SOD22310   0.342   0.477  16.569 -0.2592 -0.2112 -0.0918
  251SOD    SOD22311   6.500   4.783  16.340  0.3590 -0.1099  0.0722
  252SOD    SOD22312   4.874   0.656   6.408 -0.4993  0.6076  0.3895
  253SOD    SOD22313   5.334   1.527  12.422  0.3963  0.2797 -0.0244
  254SOD    SOD22314   1.967   0.437  16.179  0.3945  0.0106 -0.1402
  255SOD    SOD22315   2.330   4.743  12.194  0.2021  0.1697  0.3892
  256SOD    SOD22316   3.142   5.936   3.460  0.0750  0.0963  0.0205
  257SOD    SOD22317   4.532   4.956   5.474  0.6065  0.1376  0.0733
  258SOD    SOD22318   4.492   0.137   2.136  0.0360  0.0527 -0.7919
  259SOD    SOD22319   5.005   1.491  10.881 -0.6299 -0.1306  0.1415
  260SOD    SOD22320   2.530   1.828  11.264 -0.3397 -0.1418 -0.3287
  261SOD    SOD22321   3.349   6.781  13.862  0.9237  0.3484 -0.2942
  262SOD    SOD22322   4.336   1.517   3.584  0.1023 -0.3181 -0.4222
  263SOD    SOD22323   5.880   3.393  11.486 -0.3305  0.2927 -0.5312
  264SOD    SOD22324   4.898   5.609   4.787 -0.1897  0.0524  0.0047
  265SOD    SOD22325   4.890   0.668   4.975  0.3748 -0.0130 -0.0636
  266SOD    SOD22326   0.703   2.133  10.757 -0.6330 -0.2662 -0.0814
  267SOD    SOD22327   5.272   4.868  10.386 -0.4743  0.2745 -0.0275
  268SOD    SOD22328   4.005   0.197  15.156 -0.1532 -0.0955  0.0181
  269SOD    SOD22329   2.049   1.621   6.419  0.2296  0.2226 -0.0884
  270CLA    CLA22330   4.379   3.975   5.135  0.1969 -0.0736  0.3458
  271CLA    CLA22331   1.380   1.441   4.724 -0.0333 -0.0594 -0.2423
  272CLA    CLA22332   2.939   3.493   0.485  0.7561 -0.2245 -0.1062
  273CLA    CLA22333   0.753   6.290  16.717 -0.1382 -0.1833 -0.2781
  274CLA    CLA22334   4.277   1.660  12.682  0.1544  0.0719  0.1520
  275CLA    CLA22335   5.009   4.745   3.223 -0.1256  0.3882  0.0596
  276CLA    CLA22336   1.110   6.160   0.895 -0.4562 -0.1270  0.1319
  277CLA    CLA22337   5.491   5.211  16.846  0.1502 -0.3763 -0.1346
  278CLA    CLA22338   2.718   6.517  15.403 -0.2200  0.1496  0.4818
  279CLA    CLA22339   0.154   3.558   5.591 -0.0857  0.0945  0.0499
  280CLA    CLA22340   1.903   1.372  15.605  0.3292  0.0108  0.5577
  281CLA    CLA22341   4.232   1.774   1.579 -0.0414 -0.5448  0.3240
  282CLA    CLA22342   3.626   5.557   3.374 -0.0361  0.0740  0.0861
  283CLA    CLA22343   4.284   0.529  13.452  0.0813  0.2583  0.2844
  284CLA    CLA22344   3.038   6.101  16.183  0.0270  0.1505  0.2356
  285CLA    CLA22345   1.039   2.381   0.896  0.4089 -0.2198 -0.0085
  286CLA    CLA22346   5.694   4.213   3.291  0.3095  0.7280 -0.3367
  287CLA    CLA22347   4.995   6.626   1.333  0.1161  0.2994 -0.0463
  288CLA    CLA22348   3.068   3.699   5.555 -0.6915 -0.0996  0.0252
  289CLA    CLA22349   0.065   2.468  15.499  0.0090 -0.4428 -0.3601
  290CLA    CLA22350   2.486   6.119  17.129 -0.1666 -0.6604 -0.3759
  291CLA    CLA22351   2.351   2.920  17.090 -0.0885  0.1654 -0.2862
  292CLA    CLA22352   2.620   5.812   4.834 -0.0843  0.2008  0.4400
  293CLA    CLA22353   6.173   5.098  13.654 -0.1158 -0.2409  0.0822
  294CLA    CLA22354   1.193   5.514   0.533 -0.3140 -0.0121  0.7631
  295CLA    CLA22355   6.029   6.569   3.591 -0.0513 -0.1837 -0.3295
  296CLA    CLA22356   0.560   0.062  12.390 -0.1690  0.0179  0.0210
  297CLA    CLA22357   5.282   0.263  14.441 -0.6460  0.1528  0.3178
  298CLA    CLA22358   3.348   0.278   2.977  0.2012  0.3025  0.0486
  299CLA    CLA22359   6.333   3.769   3.193 -0.0893  0.4092  0.3153
  300CLA    CLA22360   4.544   5.447   3.017  0.2763  0.2036 -0.0552
  301CLA    CLA22361   4.550   1.442  14.438 -0.1245 -0.4953 -0.0431
  302CLA    CLA22362   4.893   6.764   4.849  0.0702 -0.1228  0.4600
  303CLA    CLA22363   5.950   3.206  16.025  0.0329  0.1840 -0.2347
  304CLA    CLA22364   2.532   1.360  14.684  0.0083 -0.3345  0.2294
  305CLA    CLA22365   5.394   5.292   0.870 -0.1974  0.1584 -0.0052
  306CLA    CLA22366   6.283   6.342   5.730  0.0954 -0.0760  0.3249
  307CLA    CLA22367   1.316   3.197  14.767 -0.1666  0.2251  0.1049
  308CLA    CLA22368   0.421   3.087  11.989  0.5535 -0.5025 -0.2567
  309CLA    CLA22369   3.424   4.036   0.555  0.4411 -0.6515 -0.5715
  310CLA    CLA22370   2.392   0.211   0.492  0.0474 -0.0710 -0.1011
  311CLA    CLA22371   1.973   1.197  17.099  0.4777 -0.3814  0.3128
  312CLA    CLA22372   6.480   0.951   5.104 -0.6289 -0.2997 -0.0700
  313CLA    CLA22373   5.800   5.794   1.591  0.1012  0.0993 -0.4007
  314CLA    CLA22374   4.079   0.289  17.005  0.1568  0.4417  0.1399
  315CLA    CLA22375   4.631   5.623  12.305 -0.4167 -0.1601  0.0869
  316CLA    CLA22376   2.490   0.930   3.952 -0.3258 -0.1121  0.2142
  317CLA    CLA22377   5.091   2.881  12.789 -0.5318  0.0057  0.1669
  318CLA    CLA22378   1.731   5.572  12.059  0.0040  0.5991 -0.6281
  319CLA    CLA22379   4.140   5.394  14.959  0.4913  0.1679  0.1026
  320CLA    CLA22380   0.642   1.217   1.487 -0.1125  0.4596 -0.7487
  321CLA    CLA22381   0.511   0.810  17.095  0.0236  0.0672  0.1929
  322CLA    CLA22382   3.346   6.247   3.658 -0.4996  0.1251 -0.0973
  323TIP3   OH222383   1.959   2.564  13.339 -0.6934 -0.1608 -0.3245
  323TIP3    H122384   1.926   2.474  13.331 -1.3017 -0.0029  0.3015
  323TIP3    H222385   2.020   2.561  13.412 -1.5596  0.1617  0.4245
  324TIP3   OH222386   1.763   3.448  16.572  0.4759 -0.1922 -0.0881
  324TIP3    H122387   1.729   3.452  16.482 -0.6811 -2.2975  0.2295
  324TIP3    H222388   1.778   3.540  16.596  0.4317  0.4172 -2.2871
  325TIP3   OH222389   0.880   6.709   0.627  0.3767  0.4348  0.1575
  325TIP3    H122390   0.884   6.652   0.550 -0.7058  0.3593  0.1512
  325TIP3    H222391   0.789   6.738   0.630  0.3006  0.0544  1.7033
  326TIP3   OH222392   2.528   6.491  14.235 -0.1872  0.3850  0.5400
  326TIP3    H122393   2.570   6.495  14.321  2.6286 -0.3505 -0.7464
  326TIP3    H222394   2.601   6.484  14.173 -2.1785  0.5032 -1.8899
  327TIP3   OH222395   2.840   1.801   2.077  0.3537 -0.1602 -0.1748
  327TIP3    H122396   2.752   1.827   2.048  0.5492  0.4058 -0.2673
  327TIP3    H222397   2.885   1.884   2.094  0.2260 -0.4673  1.7823
  328TIP3   OH222398   1.587   2.269  15.354 -0.1526 -0.1018  0.1546
  328TIP3    H122399   1.501   2.232  15.373 -0.0399 -0.3455  0.1856
  328TIP3    H222400   1.623   2.292  15.439  0.5133 -1.5480  0.2834
  329TIP3   OH222401   5.674   2.605  11.876  0.1944 -0.2930 -0.0340
  329TIP3    H122402   5.678   2.552  11.956 -1.8663 -0.1567  0.1887
  329TIP3    H222403   5.606   2.563  11.823  1.4947 -0.3269 -1.6951
  330TIP3   OH222404   5.599   3.262  12.541 -0.0289 -0.1566  0.4889
  330TIP3    H122405   5.545   3.184  12.554 -0.5411  0.1160  0.0257
  330TIP3    H222406   5.654   3.267  12.619 -0.5836 -0.5073  0.9063
  331TIP3   OH222407   4.531   6.346  10.846 -0.5229 -0.3713  0.2151
  331TIP3    H122408   4.592   6.303  10.785 -0.4465 -0.0083  0.0295
  331TIP3    H222409   4.498   6.421  10.796  0.0892  0.3459  0.8701
  332TIP3   OH222410   0.967   5.205  11.658  0.6187 -0.0518  0.0911
  332TIP3    H122411   1.012   5.207  11.574 -1.0192  2.3176 -0.7762
  332TIP3    H222412   0.912   5.127  11.654  3.1320 -1.9164  0.4174
  333TIP3   OH222413   1.336   1.837   0.399  0.0147  0.4787  0.2959
  333TIP3    H122414   1.247   1.815   0.426  0.4117 -1.5860 -0.0041
  333TIP3    H222415   1.390   1.810   0.473  0.5521  0.0842 -0.2414
  334TIP3   OH222416   4.982   2.699   3.842 -0.0154 -0.3968  0.3574
  334TIP3    H122417   4.896   2.738   3.833 -0.6573 -1.9724 -0.6734
  334TIP3    H222418   4.974   2.614   3.798  1.9707 -0.6824  0.5009
  335TIP3   OH222419   3.080   3.255   5.175  0.2072  0.5606  0.5127
  335TIP3    H122420   3.145   3.321   5.150  0.5631  0.7182  1.8370
  335TIP3    H222421   3.094   3.183   5.114  1.8878  0.4372  1.0237
  336TIP3   OH222422   0.501   5.809   5.559  0.0913 -0.0534 -0.1070
  336TIP3    H122423   0.529   5.900   5.550  1.4111 -0.2673  1.4633
  336TIP3    H222424   0.447   5.807   5.638 -0.1810 -0.5705 -0.2995
  337TIP3   OH222425   0.148   1.198  16.299  0.9276 -0.2493 -0.3888
  337TIP3    H122426   0.082   1.129  16.299  0.8960 -0.2205  0.2726
  337TIP3    H222427   0.181   1.199  16.209  0.3556 -0.5753 -0.6093
  338TIP3   OH222428   5.747   5.687   3.519 -0.6124  0.1249 -0.4345
  338TIP3    H122429   5.670   5.743   3.526 -1.0753 -0.6577  0.8585
  338TIP3    H222430   5.741   5.648   3.432 -2.3252 -0.8524  0.0990
  339TIP3   OH222431   0.523   1.953  15.589  0.2852 -0.4893 -0.4475
  339TIP3    H122432   0.599   1.935  15.644 -0.4896 -0.8548  0.5213
  339TIP3    H222433   0.483   2.031  15.626 -0.9762 -1.4713  0.3329
  340TIP3   OH222434   4.999   1.316   3.573  0.1086 -0.2704  0.4073
  340TIP3    H122435   5.029   1.365   3.496 -2.4471 -0.0629 -0.5153
  340TIP3    H222436   5.068   1.253   3.590  0.8919 -0.0613 -1.8343
  341TIP3   OH222437   5.046   0.885   3.457 -0.2803  0.0423  0.1241
  341TIP3    H122438   5.087   0.966   3.428  0.9651  0.1127  1.9740
  341TIP3    H222439   4.975   0.913   3.515  0.0086 -0.1815  0.5896
  342TIP3   OH222440   0.500   0.538   5.297  0.4665 -0.2121 -0.2666
  342TIP3    H122441   0.544   0.604   5.244 -0.1123  0.3158 -0.1035
  342TIP3    H222442   0.407   0.563   5.295  0.4100 -0.2973  0.8201
  343TIP3   OH222443   1.735   5.471   2.531 -0.1534 -0.4656 -0.0045
  343TIP3    H122444   1.671   5.401   2.519 -0.3494 -0.2931  0.0394
  343TIP3    H222445   1.789   5.469   2.452  0.0841 -0.9177  0.1671
  344TIP3   OH222446   6.675   1.639  16.753  0.1084  0.2764 -0.1011
  344TIP3    H122447   6.669   1.544  16.749 -0.6025  0.3379 -0.4074
  344TIP3    H222448   6.738   1.656  16.823  0.0625 -0.4119  0.1046
  345TIP3   OH222449   1.270   5.893   5.178  0.1520  0.3839 -0.2298
  345TIP3    H122450   1.307   5.805   5.172 -0.1667  0.3230 -1.3178
  345TIP3    H222451   1.183   5.886   5.139 -0.5247  0.8205  1.1547
  346TIP3   OH222452   4.038   6.271   1.296  0.6006 -0.0107  0.0139
  346TIP3    H122453   4.067   6.215   1.369  1.2645 -0.1583 -0.3599
  346TIP3    H222454   4.101   6.253   1.227  0.9494  1.3905 -0.0317
  347TIP3   OH222455   5.424   4.068   1.248  0.1930  0.7607  0.1318
  347TIP3    H122456   5.372   4.091   1.325 -0.1291 -0.1609  0.1978
  347TIP3    H222457   5.511   4.047   1.283  0.2404  1.0236  0.1697
  348TIP3   OH222458   2.954   5.616  11.822 -0.4689 -0.2367  0.1276
  348TIP3    H122459   3.010   5.635  11.747  0.0600 -1.3488  0.2339
  348TIP3    H222460   2.909   5.699  11.840 -0.0572  0.2282 -0.9564
  349TIP3   OH222461   0.517   1.902   3.517  0.0918  0.4102 -0.0514
  349TIP3    H122462   0.530   1.944   3.602  0.2315 -0.3303  0.2950
  349TIP3    H222463   0.428   1.867   3.520  0.9283 -1.7252  0.7208
  350TIP3   OH222464   0.104   2.888   1.741  0.5536 -0.3754 -0.7697
  350TIP3    H122465   0.196   2.864   1.731  1.1704  1.6290 -0.1997
  350TIP3    H222466   0.091   2.958   1.678 -1.1689 -2.0438 -2.3247
  351TIP3   OH222467   0.926   0.621   5.874 -0.0697 -0.4564 -0.1763
  351TIP3    H122468   0.887   0.534   5.871 -0.8366 -0.0933 -1.1060
  351TIP3    H222469   0.957   0.631   5.964 -1.7690 -0.9130  0.4739
  352TIP3   OH222470   2.358   3.889  15.235 -0.1665  0.9135  0.0928
  352TIP3    H122471   2.304   3.825  15.189  1.3302 -1.0380  0.9940
  352TIP3    H222472   2.341   3.872  15.328  0.3300  1.7474  0.3382
  353TIP3   OH222473   4.000   0.063   2.680 -0.3198  0.2064  0.6026
  353TIP3    H122474   4.064   0.049   2.750 -0.4267  1.6254  1.0031
  353TIP3    H222475   4.022  -0.002   2.614 -0.0654 -1.0084  1.8560
  354TIP3   OH222476   1.390   6.192   1.312  0.4084  0.1911  0.3128
  354TIP3    H122477   1.481   6.219   1.305  0.5945 -0.6307 -0.5483
  354TIP3    H222478   1.384   6.112   1.259 -0.9160  0.5059 -0.0443
  355TIP3   OH222479   1.752   1.351  14.234  0.1529 -0.6520  0.3822
  355TIP3    H122480   1.684   1.389  14.179  0.3909  0.6428  0.9572
  355TIP3    H222481   1.705   1.301  14.301 -0.2849  1.0181  1.3446
  356TIP3   OH222482   6.086   5.850   2.722 -0.7839  0.6372  0.4784
  356TIP3    H122483   6.043   5.896   2.794  0.8266  2.1444  0.5064
  356TIP3    H222484   6.122   5.919   2.667  0.6193 -0.5577 -0.1445
  357TIP3   OH222485   2.341   6.209  13.656  0.2382  0.5215  0.3791
  357TIP3    H122486   2.392   6.216  13.736  0.3757  0.1705  0.3212
  357TIP3    H222487   2.326   6.115  13.644  1.9417  0.4082 -1.0847
  358TIP3   OH222488   2.705   4.301  14.780  0.1700 -0.5478  0.5542
  358TIP3    H122489   2.673   4.385  14.746 -2.8132 -2.3071 -1.2669
  358TIP3    H222490   2.707   4.312  14.875 -2.0192  1.0237  0.4668
  359TIP3   OH222491   5.220   3.533  12.556  0.1087  0.6036 -0.3765
  359TIP3    H122492   5.307   3.558  12.524  0.1569  1.2611  0.2634
  359TIP3    H222493   5.229   3.534  12.651 -0.2857 -0.4507 -0.3269
  360TIP3   OH222494   1.033   6.289  15.324 -0.2898  0.4908 -0.1148
  360TIP3    H122495   1.112   6.342  15.329  0.4882 -0.6554 -0.1097
  360TIP3    H222496   1.052   6.212  15.378 -1.7688  0.6547  0.6767
  361TIP3   OH222497   1.003   3.177  12.200  0.2730  0.3428 -0.2124
  361TIP3    H122498   0.940   3.194  12.130  1.2053 -0.5284 -1.2717
  361TIP3    H222499   0.957   3.204  12.280 -1.1281  0.5014 -1.0501
  362TIP3   OH222500   4.805   4.101  15.737 -0.1278  0.0237 -0.2656
  362TIP3    H122501   4.849   4.066  15.814 -1.3497 -1.0774 -0.0361
  362TIP3    H222502   4.845   4.055  15.663  2.9300  3.0207 -0.5714
  363TIP3   OH222503   4.248   0.404  12.283 -0.3529 -0.4291 -0.2027
  363TIP3    H122504   4.181   0.407  12.215  0.4226  0.5058 -0.9448
  363TIP3    H222505   4.203   0.431  12.363 -1.0164 -0.5044 -0.5487
  364TIP3   OH222506   2.422   3.069  16.456 -0.3898 -0.9546 -0.4253
  364TIP3    H122507   2.369   2.990  16.449 -0.6972 -0.5900 -2.4426
  364TIP3    H222508   2.363   3.140  16.432  0.8329 -0.4821 -2.0952
  365TIP3   OH222509   1.729   3.289   0.307  0.1123  0.3296  0.2068
  365TIP3    H122510   1.717   3.297   0.401 -1.4965 -1.5636  0.2048
  365TIP3    H222511   1.782   3.210   0.296  1.4339  1.2822 -0.4365
  366TIP3   OH222512   1.558   4.263  14.635  0.0221 -0.2811  0.2186
  366TIP3    H122513   1.605   4.346  14.641 -0.1795  0.0787 -2.5932
  366TIP3    H222514   1.622   4.201  14.600 -0.4410 -0.7761  0.2425
  367TIP3   OH222515   1.907   4.380  14.424  0.1507  0.3114 -0.0127
  367TIP3    H122516   1.982   4.424  14.466 -0.2334 -0.1885  1.2156
  367TIP3    H222517   1.893   4.301  14.476  0.0330 -0.6414 -1.4522
  368TIP3   OH222518   2.153   5.641  15.808 -0.5979 -0.2035 -0.1395
  368TIP3    H122519   2.110   5.686  15.735  0.4066 -0.1554 -0.7256
  368TIP3    H222520   2.132   5.549  15.795 -0.2869 -0.2137 -0.5908
  369TIP3   OH222521   4.481   3.940  15.406  0.0078 -0.2445 -0.0952
  369TIP3    H122522   4.390   3.927  15.379 -0.4261 -1.9840  2.0348
  369TIP3    H222523   4.513   4.009  15.349 -2.3969 -0.1836 -1.4562
  370TIP3   OH222524   3.957   0.722  12.573  0.1507  0.5466 -0.5920
  370TIP3    H122525   3.910   0.639  12.575 -1.7628  1.5597 -1.8185
  370TIP3    H222526   3.974   0.738  12.480  1.0593  1.2178 -0.3154
  371TIP3   OH222527   2.652   1.650  11.229 -0.1737 -0.0338  0.1556
  371TIP3    H122528   2.733   1.602  11.208 -0.4430 -0.3576 -0.1368
  371TIP3    H222529   2.600   1.587  11.279 -0.2594  0.1688  0.3212
  372TIP3   OH222530   3.940   3.306  16.201  0.0354  0.0029 -0.5266
  372TIP3    H122531   3.852   3.296  16.236  0.7529 -2.4212  0.6817
  372TIP3    H222532   3.980   3.373  16.258 -1.2476  1.7236 -1.6033
  373TIP3   OH222533   3.328   1.532   3.630 -0.0043  0.0825 -0.2985
  373TIP3    H122534   3.393   1.554   3.697  1.7291 -1.9793 -1.2469
  373TIP3    H222535   3.378   1.532   3.548 -2.2696  3.5536 -1.8173
  374TIP3   OH222536   1.303   3.810   0.846  0.2682  0.2102  0.0554
  374TIP3    H122537   1.373   3.765   0.799  1.5050  1.2396  0.8714
  374TIP3    H222538   1.349   3.870   0.905 -1.2700 -0.3189  1.8287
  375TIP3   OH222539   3.487   5.854  11.291 -0.2956 -0.1976 -0.4170
  375TIP3    H122540   3.474   5.874  11.199  1.2709  0.9130 -0.4269
  375TIP3    H222541   3.477   5.938  11.336  1.7908 -0.1650  0.0684
  376TIP3   OH222542   3.694   2.754  15.329  0.4901  0.3694  0.0953
  376TIP3    H122543   3.634   2.689  15.291  0.9011  0.3631 -0.5566
  376TIP3    H222544   3.652   2.838  15.311 -0.1477  0.2742  1.1314
  377TIP3   OH222545   4.362   2.492   2.923 -0.0038  0.3650  0.1276
  377TIP3    H122546   4.349   2.404   2.889 -1.4599  0.7951 -0.4522
  377TIP3    H222547   4.455   2.510   2.908  0.7007 -1.6923  1.7742
  378TIP3   OH222548   6.274   4.390  14.605  0.1627  0.1111  0.0682
  378TIP3    H122549   6.217   4.429  14.540  1.0034  1.5361  0.1739
  378TIP3    H222550   6.347   4.354  14.555  0.6045  0.8438  0.1785
  379TIP3   OH222551   6.750   2.450  13.955  0.1370 -0.0603 -0.3248
  379TIP3    H122552   6.736   2.376  14.014  2.2586  2.4632  3.5282
  379TIP3    H222553   6.838   2.436  13.919  1.1282  1.2543  1.5196
  380TIP3   OH222554   3.247   4.668   5.258 -0.2666 -0.6820 -0.4086
  380TIP3    H122555   3.196   4.703   5.331  0.6049  1.3161 -0.7492
  380TIP3    H222556   3.311   4.610   5.300 -1.7800 -2.0319  0.1332
  381TIP3   OH222557   3.362   3.183   0.021 -0.3696  0.0836  0.3792
  381TIP3    H122558   3.305   3.251   0.057 -2.4299 -1.5884  0.3540
  381TIP3    H222559   3.312   3.145  -0.051  1.3886 -0.4375 -0.6058
  382TIP3   OH222560   1.803   0.832   2.904  0.0079  0.3618 -0.3802
  382TIP3    H122561   1.806   0.927   2.899 -0.6899  0.3903 -0.2077
  382TIP3    H222562   1.733   0.807   2.844  1.4371 -0.1599 -1.8977
  383TIP3   OH222563   6.690   3.519  16.579  0.6592 -0.0677 -0.0828
  383TIP3    H122564   6.762   3.515  16.516  0.8124 -4.1594  0.2204
  383TIP3    H222565   6.734   3.514  16.664  0.1518 -0.3902  0.1607
  384TIP3   OH222566   3.225   5.346  10.785  0.0114  0.1569 -0.1205
  384TIP3    H122567   3.257   5.372  10.698  0.6599 -0.2042  0.0062
  384TIP3    H222568   3.276   5.268  10.807 -1.5856 -0.9603 -0.2973
  385TIP3   OH222569   0.365   5.693   0.454 -0.0308 -0.0246 -0.5969
  385TIP3    H122570   0.436   5.678   0.517 -1.3351 -1.7583  0.4767
  385TIP3    H222571   0.325   5.775   0.483  1.1992  0.7214 -0.9311
  386TIP3   OH222572   0.161   5.261  12.554  0.3526 -0.5601 -0.0393
  386TIP3    H122573   0.104   5.257  12.477  0.2676 -0.1155 -0.0036
  386TIP3    H222574   0.249   5.241  12.521  0.0207 -2.3111  0.0868
  387TIP3   OH222575   2.357   6.556  12.932  0.3653  0.0252  0.4567
  387TIP3    H122576   2.386   6.645  12.914 -0.0845  0.3262  1.1903
  387TIP3    H222577   2.280   6.544  12.875  0.2509  0.2112  0.5696
  388TIP3   OH222578   1.727   1.315  13.272  0.7011 -0.3652 -0.2070
  388TIP3    H122579   1.682   1.369  13.208 -0.1043 -0.8211 -0.0413
  388TIP3    H222580   1.772   1.248  13.220 -0.8365 -1.3951 -0.2704
  389TIP3   OH222581   0.481   3.341   6.504  0.0260  0.0208 -0.2613
  389TIP3    H122582   0.407   3.362   6.447  0.3997 -0.0211 -0.7697
  389TIP3    H222583   0.442   3.291   6.576 -0.5649  0.7476 -0.0704
  390TIP3   OH222584   5.743   5.817   6.061  0.5290  0.0632 -0.3097
  390TIP3    H122585   5.703   5.897   6.026  0.3281 -0.4674 -1.3157
  390TIP3    H222586   5.833   5.820   6.030 -0.1242 -1.2979 -2.4332
  391TIP3   OH222587   0.865   5.858  11.744  0.7203 -0.1001 -0.2194
  391TIP3    H122588   0.792   5.872  11.684 -0.1781 -2.0738  0.3903
  391TIP3    H222589   0.908   5.943  11.749 -1.1314  0.9161 -1.1073
  392TIP3   OH222590   3.488   3.354  14.405 -0.3203 -0.6001  0.1856
  392TIP3    H122591   3.459   3.347  14.314 -1.5155  1.5896  0.3612
  392TIP3    H222592   3.524   3.443  14.411 -0.9257 -0.4720  2.0327
  393TIP3   OH222593   2.359   2.388   1.673  0.0647 -0.5821  0.3054
  393TIP3    H122594   2.380   2.303   1.714  0.6490 -0.6827 -0.1817
  393TIP3    H222595   2.379   2.452   1.740 -0.0054 -0.8131  0.5478
  394TIP3   OH222596   1.272   1.194  16.927 -0.1640 -0.4044 -0.4808
  394TIP3    H122597   1.211   1.227  16.993 -1.1689 -1.1356 -1.0267
  394TIP3    H222598   1.333   1.266  16.912  1.1174 -0.8380  2.4857
  395TIP3   OH222599   2.891   0.181   5.783  0.2160 -0.7992  0.4565
  395TIP3    H122600   2.889   0.116   5.714 -1.5757 -0.5379  0.2410
  395TIP3    H222601   2.825   0.246   5.757  0.7260  0.1768  1.5509
  396TIP3   OH222602   0.828   4.214   0.763  0.0695 -0.7418 -0.1229
  396TIP3    H122603   0.873   4.239   0.683  0.1738  2.4368  0.8599
  396TIP3    H222604   0.769   4.144   0.736 -1.6571  1.8409 -3.5400
  397TIP3   OH222605   1.173   2.656   3.685  0.0187  0.0798  0.1104
  397TIP3    H122606   1.215   2.574   3.712  0.1341  0.2816  0.5414
  397TIP3    H222607   1.091   2.629   3.646  0.8944 -0.3785 -1.4565
  398TIP3   OH222608   2.835   6.467  16.579 -0.0182  0.1782 -0.4133
  398TIP3    H122609   2.851   6.537  16.516 -0.3452  1.5464  0.9715
  398TIP3    H222610   2.748   6.434  16.557 -0.3741  1.0385 -0.3343
  399TIP3   OH222611   1.650   3.558  15.258  0.0333 -0.2440 -0.0956
  399TIP3    H122612   1.660   3.465  15.279  0.5752 -0.3434 -0.8127
  399TIP3    H222613   1.571   3.562  15.204 -0.5278 -0.1664  0.7160
  400TIP3   OH222614   4.175   0.102   2.055 -0.1658 -0.1151 -0.2999
  400TIP3    H122615   4.175   0.028   1.995  0.5430  0.1084 -0.5789
  400TIP3    H222616   4.083   0.112   2.081 -0.3760 -0.6194 -0.8435
  401TIP3   OH222617   2.282   0.408  12.916  0.0275 -0.3140 -0.0159
  401TIP3    H122618   2.377   0.414  12.910 -0.0216  1.0954  0.4594
  401TIP3    H222619   2.253   0.499  12.927 -1.1806 -0.9490  2.4270
  402TIP3   OH222620   5.885   6.316   3.844 -0.3239 -0.1844  0.1636
  402TIP3    H122621   5.793   6.323   3.868 -0.0001  0.0912  1.3903
  402TIP3    H222622   5.910   6.405   3.818 -0.0930  0.0119  1.0385
  403TIP3   OH222623   0.857   0.915  15.917  0.1932  0.0239 -0.7002
  403TIP3    H122624   0.828   0.824  15.917 -0.7469  0.3053  1.2968
  403TIP3    H222625   0.790   0.962  15.966  2.4002  1.2061  1.2980
  404TIP3   OH222626   0.629   6.211   6.558 -0.2406  0.2441  0.3416
  404TIP3    H122627   0.536   6.231   6.569 -1.0087 -1.1628 -2.8919
  404TIP3    H222628   0.664   6.283   6.506 -0.4400 -1.1078 -1.7204
  405TIP3   OH222629   1.506   0.801   5.448 -0.1251  0.0150  0.0919
  405TIP3    H122630   1.470   0.725   5.493 -0.8188  0.7175  0.7275
  405TIP3    H222631   1.431   0.856   5.429  0.1868 -0.1289 -1.6861
  406TIP3   OH222632   5.739   1.887   3.359 -0.0139 -0.4170 -0.3182
  406TIP3    H122633   5.782   1.802   3.355 -0.8985 -0.9089  0.5587
  406TIP3    H222634   5.810   1.949   3.377  0.6142 -0.9634 -0.8716
  407TIP3   OH222635   6.758   4.329   5.535 -0.0360 -0.0825  0.0361
  407TIP3    H122636   6.805   4.412   5.534 -0.7699  0.3590  1.7861
  407TIP3    H222637   6.683   4.342   5.477  0.2348  0.2420 -0.2411
  408TIP3   OH222638   2.896   3.128   1.799  0.2158 -0.4446  0.0113
  408TIP3    H122639   2.887   3.216   1.836 -1.5335 -0.8799  0.7030
  408TIP3    H222640   2.914   3.072   1.875  1.2774 -0.6971 -0.4198
  409TIP3   OH222641   2.661   4.516  13.219  0.0549  0.3058 -0.1116
  409TIP3    H122642   2.581   4.568  13.221  0.2886  0.5940  1.9822
  409TIP3    H222643   2.681   4.509  13.125 -2.2735  0.4115 -0.6504
  410TIP3   OH222644   1.476   2.374   5.421  0.1539 -0.1585  0.1935
  410TIP3    H122645   1.416   2.448   5.432 -0.8925 -0.7564 -1.4207
  410TIP3    H222646   1.562   2.410   5.442 -0.2676  1.6810 -1.1009
  411TIP3   OH222647   6.075   5.346   3.861  0.3650  0.2539  0.1023
  411TIP3    H122648   6.003   5.383   3.811  0.2001 -0.4626 -0.2008
  411TIP3    H222649   6.034   5.277   3.915  0.8035 -0.1067 -0.0169
  412TIP3   OH222650   2.075   6.289  13.616  0.2991  0.2192 -0.0846
  412TIP3    H122651   2.165   6.260  13.632  0.5043 -0.3797 -2.0987
  412TIP3    H222652   2.083   6.377  13.580  0.1526 -0.0787 -0.8818
  413TIP3   OH222653   2.818   6.019   0.780 -0.0175 -0.5996  0.0237
  413TIP3    H122654   2.866   6.096   0.749  0.9165 -1.2763 -0.2340
  413TIP3    H222655   2.804   5.967   0.701  0.9169 -1.5381  0.4599
  414TIP3   OH222656   4.877   0.553  16.338  0.0259  0.3753  0.2448
  414TIP3    H122657   4.814   0.499  16.290  0.3905 -0.1283  0.3247
  414TIP3    H222658   4.830   0.635  16.355 -0.3178  0.3298 -0.4352
  415TIP3   OH222659   2.724   3.809  13.513 -0.1464 -0.0480 -0.2665
  415TIP3    H122660   2.641   3.854  13.496  0.3084  0.4461 -1.2450
  415TIP3    H222661   2.753   3.781  13.427  1.5194  1.2365 -0.1353
  416TIP3   OH222662   6.667   3.643   0.110 -0.0721  0.4727 -0.2674
  416TIP3    H122663   6.588   3.606   0.149 -0.2446  1.0602 -0.0590
  416TIP3    H222664   6.644   3.658   0.018  0.0872 -0.1914 -0.4221
  417TIP3   OH222665   5.118   0.981   0.280  0.3596 -0.3744  0.3105
  417TIP3    H122666   5.126   0.888   0.257  1.3011  0.6662 -3.9394
  417TIP3    H222667   5.031   1.006   0.249 -0.1772  0.0434  2.0826
  418TIP3   OH222668   0.578   1.751   3.931  0.1665  0.0977  0.1619
  418TIP3    H122669   0.594   1.825   3.990  0.4640 -0.1934  0.4497
  418TIP3    H222670   0.482   1.748   3.923  0.1475  0.4532  0.2253
  419TIP3   OH222671   4.457   4.565   3.185 -0.6115  0.6992 -0.0887
  419TIP3    H122672   4.391   4.607   3.130  0.0514  2.5963  0.5441
  419TIP3    H222673   4.407   4.524   3.256 -1.2743  0.2745 -0.7992
  420TIP3   OH222674   6.187   4.167   4.347  0.7373  0.4399 -0.0096
  420TIP3    H122675   6.278   4.165   4.377  0.6654 -0.3026  0.1798
  420TIP3    H222676   6.192   4.155   4.252  0.7596 -1.3350  0.1955
  421TIP3   OH222677   0.410   3.221  14.897 -0.1338  0.3197  0.2773
  421TIP3    H122678   0.498   3.256  14.884  0.2360  0.0260  1.9531
  421TIP3    H222679   0.420   3.126  14.887 -0.4528  0.3583 -0.4878
  422TIP3   OH222680   3.432   3.866  15.725 -0.0412  0.0670  0.0766
  422TIP3    H122681   3.502   3.926  15.698 -0.0697 -0.5275 -1.3928
  422TIP3    H222682   3.354   3.920  15.727 -0.6407 -0.4724 -4.2102
  423TIP3   OH222683   1.303   1.016   5.746 -0.2829 -0.0266  0.3744
  423TIP3    H122684   1.385   0.969   5.764  0.5321  1.2065 -0.0110
  423TIP3    H222685   1.316   1.102   5.787 -1.5571  0.0387  0.6565
  424TIP3   OH222686   2.117   5.898   5.009  0.2375  0.1965  0.6189
  424TIP3    H122687   2.190   5.865   5.062 -0.1146 -0.2863  0.7964
  424TIP3    H222688   2.109   5.835   4.937  0.7248  0.8570 -0.0231
  425TIP3   OH222689   2.647   2.742   0.507 -0.1102  0.1193  0.2868
  425TIP3    H122690   2.577   2.717   0.446 -0.6165 -1.5540  1.5286
  425TIP3    H222691   2.719   2.770   0.450 -1.0441 -0.1213 -1.0505
  426TIP3   OH222692   6.736   3.216   0.481 -0.2145  0.0455  0.0666
  426TIP3    H122693   6.672   3.156   0.518  0.0235 -0.1113  0.2209
  426TIP3    H222694   6.768   3.173   0.402  1.4012 -0.9237  1.2173
  427TIP3   OH222695   5.519   3.910   5.720  0.2264 -0.5661 -0.3563
  427TIP3    H122696   5.497   3.868   5.804 -1.5002 -0.0561 -0.5212
  427TIP3    H222697   5.551   3.839   5.665 -0.9259 -1.3579 -0.0322
  428TIP3   OH222698   6.363   2.733  16.920  0.0034 -0.0060  0.0605
  428TIP3    H122699   6.390   2.652  16.877  1.2116 -0.8916  2.3743
  428TIP3    H222700   6.291   2.708  16.977  1.4772  0.1407  2.0710
  429TIP3   OH222701   0.195   5.727  10.944  0.0462  0.1929  0.8549
  429TIP3    H122702   0.157   5.810  10.913  1.3372  1.0497  1.4887
  429TIP3    H222703   0.223   5.682  10.864 -0.9910  0.2033  0.4840
  430TIP3   OH222704   6.571   3.898   6.500  0.6152 -0.1124  0.5114
  430TIP3    H122705   6.648   3.842   6.512  0.5528 -0.4683 -0.7238
  430TIP3    H222706   6.600   3.964   6.437  0.3949  0.6983  1.2479
  431TIP3   OH222707   3.929   1.843   1.664  0.2698 -0.0741 -0.0268
  431TIP3    H122708   4.016   1.845   1.625  0.0228 -0.6847 -0.6120
  431TIP3    H222709   3.900   1.752   1.654 -1.0181  0.4352 -1.1447
  432TIP3   OH222710   6.664   1.919   9.853 -0.3943  0.0781  0.1874
  432TIP3    H122711   6.640   1.999   9.900  0.6002 -1.1039  2.8663
  432TIP3    H222712   6.758   1.912   9.865 -0.5115 -1.6158  0.2421
  433TIP3   OH222713   2.421   5.982  15.591 -0.0383  0.4785  0.0897
  433TIP3    H122714   2.417   5.908  15.651 -0.1507  1.9087  1.8772
  433TIP3    H222715   2.509   6.018  15.603  0.1208  0.4827 -0.9996
  434TIP3   OH222716   3.164   1.487  13.022  0.0822 -0.5493  0.7251
  434TIP3    H122717   3.185   1.503  13.114 -1.0710  0.8365  0.7640
  434TIP3    H222718   3.222   1.547  12.974 -3.0926  2.7171  0.8012
  435TIP3   OH222719   6.412   4.217  10.866  0.5683  0.3567  0.1762
  435TIP3    H122720   6.443   4.164  10.792 -0.2325 -0.0246  0.1084
  435TIP3    H222721   6.365   4.155  10.921 -0.7108  1.0670 -0.0967
  436TIP3   OH222722   0.726   3.839   6.153  0.1577  0.4704 -0.1295
  436TIP3    H122723   0.729   3.881   6.239  1.3334  0.7585 -0.3017
  436TIP3    H222724   0.759   3.751   6.169 -0.1785  0.3351 -0.1814
  437TIP3   OH222725   5.127   0.026  15.725 -0.0566 -0.3384  0.4053
  437TIP3    H122726   5.108   0.091  15.792  0.9339 -2.6488  3.0358
  437TIP3    H222727   5.222   0.024  15.720 -0.1227 -0.2597 -1.0130
  438TIP3   OH222728   1.160   3.932   3.237  0.4843  0.0004 -0.3366
  438TIP3    H122729   1.076   3.919   3.194 -0.7041  0.6262  1.7237
  438TIP3    H222730   1.191   4.016   3.205  1.1115 -0.9362 -2.3001
  439TIP3   OH222731   3.003   2.237   5.401  0.0261 -0.5685  0.8953
  439TIP3    H122732   3.090   2.198   5.410 -0.1786 -0.4671  3.9945
  439TIP3    H222733   3.016   2.330   5.421 -0.9336 -0.7488  2.4946
  440TIP3   OH222734   0.265   1.305   5.073 -0.2603 -0.3836  0.0557
  440TIP3    H122735   0.349   1.339   5.104 -1.0624  2.7409 -1.0419
  440TIP3    H222736   0.210   1.303   5.151 -0.6174  2.2595 -0.0885
  441TIP3   OH222737   0.662   2.889   6.038 -0.2241  0.2098  0.0619
  441TIP3    H122738   0.633   2.911   6.126  1.4584  0.8160  0.4896
  441TIP3    H222739   0.741   2.941   6.025 -0.0651 -0.3949 -1.5465
  442TIP3   OH222740   3.553   5.651  14.131 -0.0130 -0.4862  0.1509
  442TIP3    H122741   3.570   5.745  14.126  0.7436 -0.5576  1.2757
  442TIP3    H222742   3.535   5.625  14.041  0.1328  0.6689 -0.2157
  443TIP3   OH222743   2.828   1.383   2.782 -0.0908 -0.0210  0.5569
  443TIP3    H122744   2.760   1.415   2.842 -0.3268  1.1858 -0.3445
  443TIP3    H222745   2.876   1.317   2.833 -0.3361  0.9313  2.0428
  444TIP3   OH222746   1.188   6.066  14.474 -0.2232 -0.4817  0.3273
  444TIP3    H122747   1.227   6.068  14.561 -0.0416  0.7676  0.2324
  444TIP3    H222748   1.237   5.999  14.427  2.1177  1.3153  0.0931
  445TIP3   OH222749   4.482   1.874   5.848  0.0375 -0.0147  0.0885
  445TIP3    H122750   4.404   1.897   5.899  0.2432 -2.1822  1.4441
  445TIP3    H222751   4.555   1.910   5.899 -0.0397  2.2426 -1.3123
  446TIP3   OH222752   4.226   3.378  10.981 -0.1220  0.7955 -0.0442
  446TIP3    H122753   4.295   3.445  10.979 -0.3871  1.1149  1.0327
  446TIP3    H222754   4.273   3.296  10.993  0.0676  1.0343  0.9037
  447TIP3   OH222755   3.824   2.594   4.720  0.5158  0.5642 -0.4600
  447TIP3    H122756   3.749   2.640   4.759  0.2991  0.6717 -0.9978
  447TIP3    H222757   3.897   2.613   4.779 -0.4367 -1.7571  1.5907
  448TIP3   OH222758   0.789   5.535  16.621 -0.5127 -0.1419  0.0446
  448TIP3    H122759   0.775   5.469  16.552 -2.3417  0.7823 -0.5044
  448TIP3    H222760   0.713   5.592  16.615 -0.4728  0.2317  2.5546
  449TIP3   OH222761   1.170   5.290   1.531  0.1598 -0.0443 -0.0838
  449TIP3    H122762   1.222   5.259   1.457  1.2994  1.2554  0.1473
  449TIP3    H222763   1.079   5.283   1.501  0.6150  0.7905 -1.7535
  450TIP3   OH222764   0.828   0.935   0.524  0.0400  0.2683  0.3530
  450TIP3    H122765   0.793   0.974   0.444 -0.1446 -1.6177 -0.5386
  450TIP3    H222766   0.883   1.003   0.562 -1.6541  1.9758 -0.1850
  451TIP3   OH222767   6.120   4.846  17.143 -0.0335  0.0629  0.2043
  451TIP3    H122768   6.125   4.930  17.096  1.9568 -1.5908 -2.7128
  451TIP3    H222769   6.201   4.842  17.194 -0.6004  0.3443  1.1352
  452TIP3   OH222770   0.801   5.933   5.325  0.2447 -0.2784 -0.3718
  452TIP3    H122771   0.891   5.929   5.358  0.0074 -0.2850  0.2750
  452TIP3    H222772   0.764   5.848   5.348  0.2355 -0.4789 -1.1131
  453TIP3   OH222773   0.038   3.854  15.866  0.4129 -0.0325  0.5152
  453TIP3    H122774   0.016   3.804  15.787 -0.2969 -1.2132  1.4384
  453TIP3    H222775   0.006   3.943  15.847 -2.4052 -0.9784  0.5797
  454TIP3   OH222776   4.812   6.332  16.913  0.0970 -0.3949 -0.0569
  454TIP3    H122777   4.884   6.275  16.884  0.4747  0.4597 -0.8242
  454TIP3    H222778   4.835   6.356  17.003 -1.4384 -3.6505  1.2867
  455TIP3   OH222779   6.699   2.974   1.056 -0.0478 -0.4612  0.1280
  455TIP3    H122780   6.637   3.021   1.001 -0.4315 -0.9917  0.1049
  455TIP3    H222781   6.785   3.004   1.026 -0.3077  1.5938  1.3121
  456TIP3   OH222782   4.942   6.106   0.939 -0.5942 -0.0758  0.0614
  456TIP3    H122783   5.010   6.114   1.005  0.7175  0.5244 -1.3356
  456TIP3    H222784   4.960   6.177   0.877 -0.1068 -2.2773 -2.4273
  457TIP3   OH222785   3.524   5.380  12.269  0.6893 -0.3091  0.4541
  457TIP3    H122786   3.460   5.409  12.333  0.9809 -0.0538  0.6291
  457TIP3    H222787   3.606   5.422  12.296  1.4869 -2.5609  1.6513
  458TIP3   OH222788   1.963   3.765   5.617 -0.1886 -0.3203  0.3499
  458TIP3    H122789   2.014   3.731   5.690  0.0049  1.6738  1.1860
  458TIP3    H222790   1.879   3.719   5.621  1.0259 -2.6380 -0.2208
  459TIP3   OH222791   3.230   1.008   2.389 -0.0986  0.1013 -0.8197
  459TIP3    H122792   3.250   1.088   2.438  1.3049 -0.8672  0.1958
  459TIP3    H222793   3.278   1.019   2.306 -0.1722  0.4376 -0.8215
  460TIP3   OH222794   1.590   2.813  12.044  0.1910 -0.5189 -0.2179
  460TIP3    H122795   1.565   2.734  12.092 -0.0628  0.1732  0.7960
  460TIP3    H222796   1.683   2.802  12.027  0.4302 -0.4827  1.0052
  461TIP3   OH222797   0.461   3.509   4.798  1.1696  0.4696 -0.5159
  461TIP3    H122798   0.473   3.587   4.851  0.6811  0.7912 -0.8760
  461TIP3    H222799   0.379   3.471   4.829  1.7101 -0.2374  0.0747
  462TIP3   OH222800   6.119   0.439   4.973  0.2066 -0.3004 -0.2312
  462TIP3    H122801   6.188   0.504   4.958 -1.0330  0.9026 -0.9232
  462TIP3    H222802   6.064   0.479   5.040 -0.4579 -0.7262 -0.5268
  463TIP3   OH222803   6.140   6.554  17.078  0.6461 -0.0114  0.1016
  463TIP3    H122804   6.213   6.537  17.018  1.0920 -0.6426  0.8253
  463TIP3    H222805   6.171   6.625  17.134 -0.1852  1.3522 -1.1195
  464TIP3   OH222806   4.485   1.990   4.454  0.7101 -0.3165  0.0336
  464TIP3    H122807   4.486   1.895   4.464  0.4798 -0.5505 -1.9070
  464TIP3    H222808   4.411   2.020   4.507  0.3964 -1.2909  0.1514
  465TIP3   OH222809   6.335   1.247   6.617  0.3895 -0.8905 -0.2083
  465TIP3    H122810   6.383   1.167   6.598 -0.4329 -1.9132  1.8780
  465TIP3    H222811   6.402   1.315   6.624  1.3052 -1.8740  0.5110
  466TIP3   OH222812   3.497   0.002   3.141 -0.8254  0.0314 -0.2289
  466TIP3    H122813   3.497   0.086   3.095  0.4016  0.4981  0.5959
  466TIP3    H222814   3.536   0.021   3.226  2.5221 -1.9885 -1.2090
  467TIP3   OH222815   0.200   3.343   4.790 -0.1293  0.0843 -0.3925
  467TIP3    H122816   0.150   3.423   4.806 -0.0329  0.0262  0.1943
  467TIP3    H222817   0.196   3.296   4.873 -1.4996 -1.2483 -1.1888
  468TIP3   OH222818   1.880   5.407   5.369 -0.0325 -0.0490 -0.1263
  468TIP3    H122819   1.792   5.425   5.402  0.9680  0.3222  2.4449
  468TIP3    H222820   1.915   5.494   5.349  0.3640 -0.0655  0.4983
  469TIP3   OH222821   6.493   6.405   6.010 -0.4342 -0.0920  0.2060
  469TIP3    H122822   6.580   6.410   5.970 -0.2484 -4.2058 -0.0734
  469TIP3    H222823   6.434   6.393   5.936 -1.0192  0.4829  0.5759
  470TIP3   OH222824   1.642   0.348   5.554  0.3378 -0.3596 -0.5702
  470TIP3    H122825   1.644   0.254   5.537  0.0193 -0.5453  0.3786
  470TIP3    H222826   1.550   0.367   5.572  1.0525 -0.8348  4.3579
  471TIP3   OH222827   3.377   3.060  13.950 -0.0278 -0.3598 -0.6642
  471TIP3    H122828   3.408   3.088  14.036  0.4509 -0.8000 -0.6886
  471TIP3    H222829   3.287   3.031  13.965 -0.1665  0.1947 -0.4422
  472TIP3   OH222830   1.193   6.397   3.482  0.5139 -0.2810 -0.3844
  472TIP3    H122831   1.151   6.480   3.458  2.2966  1.2643  1.6513
  472TIP3    H222832   1.214   6.356   3.398 -2.0110  0.4392 -1.4316
  473TIP3   OH222833   1.229   5.211   2.640 -0.4949  0.3351 -0.3223
  473TIP3    H122834   1.214   5.303   2.665 -1.4464  0.0690  0.1239
  473TIP3    H222835   1.225   5.212   2.544  1.0908  1.0136 -0.4014
  474TIP3   OH222836   6.027   3.666  11.238 -0.7857  0.3293 -0.1224
  474TIP3    H122837   5.990   3.633  11.156 -0.9334 -0.4963  0.2758
  474TIP3    H222838   5.969   3.739  11.262 -2.0076 -0.7790  0.3527
  475TIP3   OH222839   5.680   2.328   3.397 -0.1581 -0.4972  0.5142
  475TIP3    H122840   5.738   2.394   3.434 -0.4166 -1.7055  3.1766
  475TIP3    H222841   5.738   2.266   3.352  0.1214  1.2259 -1.5713
  476TIP3   OH222842   6.157   5.370  13.793  0.2827  0.3557  0.0796
  476TIP3    H122843   6.143   5.281  13.760  0.0870  0.3465  0.1871
  476TIP3    H222844   6.080   5.388  13.848  0.5535  0.4086  0.4439
  477TIP3   OH222845   0.667   1.408   3.302 -0.5037 -0.1165  0.1288
  477TIP3    H122846   0.623   1.469   3.243 -0.5793 -1.1961 -0.9428
  477TIP3    H222847   0.760   1.427   3.293 -0.4536 -0.8951 -1.0344
  478TIP3   OH222848   3.663   5.504  13.899  0.0505 -0.0874  0.0824
  478TIP3    H122849   3.618   5.564  13.840 -0.6183 -1.4915 -0.8581
  478TIP3    H222850   3.635   5.417  13.872  2.4254 -0.9502  0.2402
  479TIP3   OH222851   3.170   3.424  11.165 -0.0580  0.0844 -0.2919
  479TIP3    H122852   3.096   3.480  11.187  0.3248  1.2538 -1.9068
  479TIP3    H222853   3.247   3.480  11.181  0.4641 -0.9250  0.8182
  480TIP3   OH222854   1.533   6.444  13.987 -0.1485 -0.1244  0.4444
  480TIP3    H122855   1.446   6.407  14.001 -1.1572  1.0677 -2.3341
  480TIP3    H222856   1.530   6.530  14.030 -0.5305  0.1357 -0.0961
  481TIP3   OH222857   0.154   4.304   1.751 -0.0925 -0.6657  0.1409
  481TIP3    H122858   0.123   4.344   1.832 -0.6277 -0.7079 -0.0448
  481TIP3    H222859   0.188   4.219   1.778  0.0785 -0.5269  0.3740
  482TIP3   OH222860   3.541   1.573  11.563  0.4069 -0.5432  0.7097
  482TIP3    H122861   3.596   1.635  11.611  1.3318  0.1829 -1.2190
  482TIP3    H222862   3.516   1.621  11.483 -1.7458 -1.4288  0.8323
  483TIP3   OH222863   2.000   0.063  12.638  0.8510  0.3018  0.4566
  483TIP3    H122864   1.925   0.042  12.694 -0.7447  1.0824 -1.3538
  483TIP3    H222865   2.000   0.158  12.631 -0.1448  0.1270 -2.4187
  484TIP3   OH222866   2.419   1.764  13.029  0.0339  0.1258 -0.3417
  484TIP3    H122867   2.413   1.799  12.940  0.0183  0.9856 -0.0049
  484TIP3    H222868   2.418   1.841  13.086 -0.0143 -0.4186  0.4103
  485TIP3   OH222869   1.076   2.963   5.134 -0.3407  0.4495  0.0029
  485TIP3    H122870   1.067   2.870   5.113  1.4271  0.7433 -2.1903
  485TIP3    H222871   0.989   2.999   5.120 -0.8384 -0.6963  0.0522
  486TIP3   OH222872   2.620   5.448  12.988 -0.2028 -0.0340  0.2786
  486TIP3    H122873   2.692   5.418  12.932 -0.2701 -0.8875  0.6373
  486TIP3    H222874   2.622   5.543  12.982  2.1494  0.0396  1.7628
  487TIP3   OH222875   5.526   1.605  16.416  0.8071 -0.0722 -0.2893
  487TIP3    H122876   5.521   1.663  16.340 -1.0716 -0.2148 -0.2890
  487TIP3    H222877   5.536   1.664  16.490  1.8348  0.1067 -0.5652
  488TIP3   OH222878   4.359   2.676   2.020 -0.0392  0.0037  0.2457
  488TIP3    H122879   4.403   2.706   1.941  1.3994  2.2380  1.8337
  488TIP3    H222880   4.273   2.646   1.990 -0.0716  2.1657 -1.9888
  489TIP3   OH222881   4.486   0.381  10.485  0.1153  0.2601 -0.2287
  489TIP3    H122882   4.395   0.406  10.470  0.0378  0.7369  0.9669
  489TIP3    H222883   4.483   0.286  10.501 -0.1730  0.2685 -0.2346
  490TIP3   OH222884   4.904   5.035  14.688  0.0982  0.3071  0.0406
  490TIP3    H122885   4.858   5.098  14.633  2.5576  0.8649 -1.4851
  490TIP3    H222886   4.964   5.089  14.740 -0.5346 -0.4445  1.5709
  491TIP3   OH222887   1.189   4.429   3.104 -0.0757 -0.4460 -0.1849
  491TIP3    H122888   1.204   4.520   3.130 -0.3697 -0.4346 -0.0659
  491TIP3    H222889   1.259   4.411   3.041  0.5634 -0.4430  0.5164
  492TIP3   OH222890   1.214   4.908  14.042 -0.3810  0.4605 -0.9183
  492TIP3    H122891   1.293   4.922  13.990  0.4229  0.6356  0.3325
  492TIP3    H222892   1.214   4.979  14.106 -2.3887  1.3857 -1.9001
  493TIP3   OH222893   1.079   5.741  14.200 -0.1847 -0.0973 -0.0030
  493TIP3    H122894   1.026   5.737  14.121 -0.0205  0.2017 -0.1296
  493TIP3    H222895   1.094   5.650  14.224 -0.7719 -0.1798  0.0449
  494TIP3   OH222896   3.661   0.786   6.296 -0.0398 -0.2327 -0.3403
  494TIP3    H122897   3.699   0.859   6.346 -1.2197  0.4713 -0.4651
  494TIP3    H222898   3.687   0.708   6.345 -0.6471  0.4161  1.0449
  495TIP3   OH222899   6.667   5.276   2.939  0.3633 -0.0052  0.2498
  495TIP3    H122900   6.648   5.184   2.919 -0.9978 -0.0992  1.9432
  495TIP3    H222901   6.708   5.309   2.859 -2.9442 -0.9513 -1.9307
  496TIP3   OH222902   3.815   1.380   5.174 -0.1175  0.2580 -0.0949
  496TIP3    H122903   3.799   1.293   5.138  2.7423 -0.5271  0.4315
  496TIP3    H222904   3.838   1.364   5.266 -1.9345  1.7909  0.6708
  497TIP3   OH222905   1.758   0.958   0.594  0.2535 -0.6357  0.0578
  497TIP3    H122906   1.813   0.879   0.596 -0.7230 -1.3582 -0.9462
  497TIP3    H222907   1.767   0.991   0.505 -1.2957 -1.0189 -0.2398
  498TIP3   OH222908   1.314   5.472   5.371 -0.3133  0.2759 -0.1559
  498TIP3    H122909   1.220   5.488   5.380 -0.3326  1.6183 -2.2433
  498TIP3    H222910   1.320   5.396   5.312 -0.0932  0.0650  0.1364
  499TIP3   OH222911   2.572   6.337  10.967  0.3897 -0.0450  0.0304
  499TIP3    H122912   2.535   6.407  10.912  2.2703 -0.3240 -1.6253
  499TIP3    H222913   2.566   6.258  10.913 -0.1887 -0.8524  1.2616
  500TIP3   OH222914   1.203   4.475  16.844 -0.0681 -0.7287  0.0553
  500TIP3    H122915   1.185   4.447  16.754  1.4819  0.1602 -0.5616
  500TIP3    H222916   1.280   4.424  16.869  0.0300 -0.3335  0.5621
  501TIP3   OH222917   5.339   4.156  14.715  0.6223  0.4283 -0.3206
  501TIP3    H122918   5.254   4.127  14.683  0.0054  0.2749  1.3958
  501TIP3    H222919   5.376   4.206  14.643  0.2749 -1.8180 -2.1007
  502TIP3   OH222920   5.678   4.143  15.620  0.0323  0.7512  0.0474
  502TIP3    H122921   5.739   4.154  15.547  1.7613 -1.5820  1.0770
  502TIP3    H222922   5.648   4.232  15.639  2.0909  1.8037 -1.3475
  503TIP3   OH222923   1.162   6.494   2.481  0.0441 -0.5154  0.5839
  503TIP3    H122924   1.144   6.587   2.495  2.1248 -0.2775  1.7879
  503TIP3    H222925   1.227   6.472   2.546 -0.1210 -2.7404  0.0213
  504TIP3   OH222926   3.634   5.920  14.697 -0.2139 -0.1679 -0.0705
  504TIP3    H122927   3.601   5.876  14.619 -1.2347 -1.8003  1.2343
  504TIP3    H222928   3.558   5.965  14.733  0.3767  1.0258 -0.3085
  505TIP3   OH222929   5.652   1.878  16.121  0.2001  0.3760 -0.3617
  505TIP3    H122930   5.704   1.806  16.155  1.1733  1.9865  1.6343
  505TIP3    H222931   5.694   1.957  16.155 -1.2951  1.8668 -1.8639
  506TIP3   OH222932   0.025   1.721   2.832  0.1690  0.3837  0.3466
  506TIP3    H122933  -0.025   1.713   2.751 -0.0004 -0.0199  0.4912
  506TIP3    H222934  -0.017   1.792   2.880  0.4253  0.7935 -0.0334
  507TIP3   OH222935   6.107   4.971   5.612  0.0903 -0.1112  0.6805
  507TIP3    H122936   6.188   4.959   5.661  0.9163 -0.4161 -0.7183
  507TIP3    H222937   6.136   4.981   5.521 -1.3026  1.7635  0.4097
  508TIP3   OH222938   1.628   2.708  16.527  0.4694 -0.7003  0.4993
  508TIP3    H122939   1.671   2.712  16.442  0.2944 -0.7765  0.4090
  508TIP3    H222940   1.643   2.619  16.558  0.9399 -0.5298  0.7617
  509TIP3   OH222941   5.742   1.639  14.989 -0.0368  0.0037  0.0031
  509TIP3    H122942   5.807   1.676  14.930 -1.1181  0.4213 -0.9373
  509TIP3    H222943   5.757   1.544  14.985  1.4593  0.1973  0.9166
  510TIP3   OH222944   2.315   5.310  11.113  0.4225 -0.3202  0.6063
  510TIP3    H122945   2.226   5.303  11.078  0.2947  0.1984  0.8251
  510TIP3    H222946   2.367   5.252  11.058  0.1407  0.1708 -0.1812
  511TIP3   OH222947   1.469   4.862  11.257  0.2408 -0.2448  0.2942
  511TIP3    H122948   1.452   4.802  11.329 -0.8265 -2.3199 -1.6290
  511TIP3    H222949   1.390   4.916  11.251 -0.4522 -1.3344 -0.5002
  512TIP3   OH222950   4.526   5.696  16.688  0.2150 -0.1375  0.0254
  512TIP3    H122951   4.524   5.641  16.767 -0.3338  0.7961  0.6737
  512TIP3    H222952   4.557   5.781  16.720  0.2359  0.1711 -0.8179
  513TIP3   OH222953   3.358   3.062   1.783 -0.4160 -0.0296  0.4050
  513TIP3    H122954   3.269   3.052   1.750 -0.6831  0.3003  0.9988
  513TIP3    H222955   3.370   3.157   1.789  0.1198 -0.0656 -0.0471
  514TIP3   OH222956   5.060   2.729  12.331  0.4094  0.0321  0.7350
  514TIP3    H122957   5.003   2.806  12.327  0.2130 -0.1035  0.9230
  514TIP3    H222958   5.094   2.720  12.243 -0.1668 -0.1155  0.5248
  515TIP3   OH222959   0.433   4.646   1.940  0.3033 -0.3513 -0.2742
  515TIP3    H122960   0.482   4.660   1.859  0.2497  0.0669 -0.2346
  515TIP3    H222961   0.358   4.593   1.914 -0.0547  0.3167 -0.6147
  516TIP3   OH222962   1.204   2.240   5.370  0.4569  0.2162  0.2984
  516TIP3    H122963   1.239   2.277   5.452  0.6034  0.2947  0.1999
  516TIP3    H222964   1.140   2.174   5.399 -1.4919  2.1247  0.5014
  517TIP3   OH222965   4.500   1.237   5.021 -0.0923 -0.3695  0.2800
  517TIP3    H122966   4.500   1.180   4.944 -0.4874 -1.1382  0.8553
  517TIP3    H222967   4.409   1.266   5.029 -0.3346 -1.4066  1.2927
  518TIP3   OH222968   2.709   2.484   1.990  0.4823  0.2270  0.5123
  518TIP3    H122969   2.747   2.554   2.044  1.6014 -0.0215  0.0638
  518TIP3    H222970   2.782   2.455   1.935 -0.4120 -0.1778 -0.4526
  519TIP3   OH222971   1.933   3.172  17.061 -0.0366 -0.0220 -0.1486
  519TIP3    H122972   1.970   3.087  17.085  0.3836  0.4729  0.9564
  519TIP3    H222973   1.942   3.226  17.139 -2.6391  0.2742 -0.0110
  520TIP3   OH222974   1.433   4.233   5.779  0.3465  0.2568  0.0790
  520TIP3    H122975   1.430   4.150   5.730 -0.8976  0.3315  0.0158
  520TIP3    H222976   1.509   4.223   5.837  2.4143  0.5336 -2.4848
  521TIP3   OH222977   5.019   4.397  17.024 -0.6432  0.1583 -0.4723
  521TIP3    H122978   4.972   4.429  17.101 -1.1678  0.2882 -0.8478
  521TIP3    H222979   5.092   4.458  17.014 -1.3837  0.9883 -0.9203
  522TIP3   OH222980   2.766   2.753   4.185 -0.4809 -0.0732  0.1500
  522TIP3    H122981   2.757   2.845   4.162 -0.6291 -0.3111 -0.7752
  522TIP3    H222982   2.830   2.718   4.122 -0.6792 -0.6713  0.2750
  523TIP3   OH222983   1.172   3.729  14.515  0.0793  0.6915 -0.2052
  523TIP3    H122984   1.219   3.805  14.549  1.3998 -0.3365  0.3257
  523TIP3    H222985   1.082   3.740  14.547  0.7679  0.9113  1.7493
  524TIP3   OH222986   5.635   0.301   1.550  0.0969  0.4423 -0.2657
  524TIP3    H122987   5.599   0.321   1.464  0.1967  0.3698 -0.3247
  524TIP3    H222988   5.579   0.230   1.583 -0.4478  1.0243  0.0748
  525TIP3   OH222989   0.676   2.491  13.891  0.0727  0.1796  0.0261
  525TIP3    H122990   0.642   2.477  13.802 -1.3008 -1.2996  0.7501
  525TIP3    H222991   0.770   2.478  13.883 -0.1657 -1.0618 -1.0081
  526TIP3   OH222992   2.519   4.279  15.991 -0.6946 -0.3220 -0.2120
  526TIP3    H122993   2.504   4.370  16.017  0.4720 -0.3229  0.4717
  526TIP3    H222994   2.431   4.245  15.972 -1.3829  0.2531  1.8534
  527TIP3   OH222995   3.493   5.957   2.697 -0.2587  0.1475 -0.1659
  527TIP3    H122996   3.570   6.008   2.718  0.1258 -0.1006 -0.9504
  527TIP3    H222997   3.424   6.022   2.683  0.3300  0.4916 -1.5899
  528TIP3   OH222998   6.157   6.480  12.961  0.0825 -0.4099 -0.5332
  528TIP3    H122999   6.107   6.520  12.889 -0.1195  1.2600  0.5313
  528TIP3    H223000   6.248   6.486  12.933  0.3056  3.1722  0.7141
  529TIP3   OH223001   3.640   5.666   1.364  0.0683 -0.0973  0.1587
  529TIP3    H123002   3.610   5.756   1.378  0.1910 -0.3101  1.8651
  529TIP3    H223003   3.576   5.629   1.303 -0.5494  0.8458  0.2228
  530TIP3   OH223004   3.543   1.942   3.674  0.3453 -1.1350 -0.0860
  530TIP3    H123005   3.492   1.990   3.739 -1.5223 -1.4908 -1.2591
  530TIP3    H223006   3.629   1.984   3.675 -0.0300 -0.3629  1.7335
  531TIP3   OH223007   0.578   2.518   0.688 -0.0021  0.4053  0.4441
  531TIP3    H123008   0.600   2.528   0.596  1.1896 -1.1631  0.5487
  531TIP3    H223009   0.642   2.572   0.734  1.9510 -1.9194  0.5681
  532TIP3   OH223010   4.703   0.414   0.169 -0.1554 -0.0443 -0.5429
  532TIP3    H123011   4.686   0.492   0.221  1.5063 -0.4814  0.7228
  532TIP3    H223012   4.737   0.350   0.233  2.4374 -0.4192 -2.2146
  533TIP3   OH223013   0.320   3.050  15.151 -0.2839 -0.5028 -0.1079
  533TIP3    H123014   0.370   3.128  15.174 -0.5707 -0.1599 -0.6495
  533TIP3    H223015   0.331   3.041  15.056 -1.6683 -0.1333 -0.3103
  534TIP3   OH223016   4.456   4.121  14.070 -0.1028 -0.0142  0.0555
  534TIP3    H123017   4.451   4.214  14.048  0.1296 -0.3547 -1.5831
  534TIP3    H223018   4.528   4.114  14.133  1.9830  0.5669 -2.1572
  535TIP3   OH223019   0.333   2.879   1.338 -0.2353  0.0022 -0.3538
  535TIP3    H123020   0.269   2.933   1.291 -2.0612 -2.1251 -0.3860
  535TIP3    H223021   0.373   2.939   1.401 -0.8437  1.8487 -1.6572
  536TIP3   OH223022   6.666   0.145   0.723  0.0544 -0.4566 -0.0662
  536TIP3    H123023   6.753   0.170   0.691  0.0926 -1.0017 -0.3995
  536TIP3    H223024   6.609   0.156   0.647 -0.5732  1.9049  0.6889
  537TIP3   OH223025   0.685   3.348  10.611 -0.1083  0.2973 -0.3315
  537TIP3    H123026   0.615   3.318  10.552  1.0202  0.0703 -1.5762
  537TIP3    H223027   0.749   3.277  10.611  0.4866  0.8262  0.1881
  538TIP3   OH223028   5.445   3.519   3.543 -0.3698 -0.1064 -0.1651
  538TIP3    H123029   5.514   3.484   3.487 -2.1668 -0.5765 -2.1401
  538TIP3    H223030   5.374   3.456   3.535 -3.0297  3.0051 -2.4262
  539TIP3   OH223031   1.996   3.420   6.377 -0.1669  0.0789  0.0275
  539TIP3    H123032   1.912   3.465   6.388  0.3233  0.7642  1.0524
  539TIP3    H223033   1.973   3.328   6.367 -0.9438 -0.0110  2.3420
  540TIP3   OH223034   0.981   5.017   6.472  0.8427  0.2179  0.4896
  540TIP3    H123035   1.010   4.969   6.549 -0.3287 -1.6686 -0.2052
  540TIP3    H223036   0.916   4.960   6.431  0.4815  1.7657 -1.1667
  541TIP3   OH223037   2.733   4.032  12.023  0.3463  0.4903  0.3535
  541TIP3    H123038   2.824   4.003  12.015  0.4481  0.5897  1.1618
  541TIP3    H223039   2.738   4.127  12.021  0.1505  0.4775 -0.7813
  542TIP3   OH223040   2.818   2.138  11.492  0.2671  0.9472  0.4197
  542TIP3    H123041   2.890   2.094  11.447  0.2286  1.7876 -0.4822
  542TIP3    H223042   2.740   2.092  11.462  0.3384  0.7096  0.5926
  543TIP3   OH223043   2.156   6.692  12.205 -0.3148 -0.2220 -0.2626
  543TIP3    H123044   2.093   6.666  12.273  0.7123 -1.7713  0.1287
  543TIP3    H223045   2.240   6.696  12.251  0.2661 -0.5369 -1.2763
  544TIP3   OH223046   5.669   3.542   2.227 -0.9922 -0.6878 -0.4263
  544TIP3    H123047   5.657   3.636   2.239 -0.0894 -0.5774 -0.3101
  544TIP3    H223048   5.681   3.508   2.315  2.0459 -0.4043 -0.6707
  545TIP3   OH223049   3.700   4.405   1.286  0.2721 -0.3102 -0.4273
  545TIP3    H123050   3.758   4.438   1.217  1.2100  0.0115  0.4980
  545TIP3    H223051   3.711   4.310   1.283  0.9327 -0.2434 -0.1814
  546TIP3   OH223052   3.663   4.993   5.161 -0.0146  0.3183 -0.4866
  546TIP3    H123053   3.755   4.974   5.142 -0.1694 -1.5214  0.4969
  546TIP3    H223054   3.657   4.994   5.256 -1.1583 -0.3809 -0.5352
  547TIP3   OH223055   0.048   2.297   5.710 -0.0330  0.0192  0.2973
  547TIP3    H123056   0.106   2.226   5.737  2.4676  1.8663  0.0468
  547TIP3    H223057   0.024   2.341   5.792 -0.1189 -0.0682  0.3178
  548TIP3   OH223058   3.591   0.103  16.878  0.4989  0.0166 -0.1056
  548TIP3    H123059   3.508   0.107  16.832  0.3026 -1.5136  0.0781
  548TIP3    H223060   3.568   0.103  16.971  0.7532  0.6751 -0.0447
  549TIP3   OH223061   4.573   5.650  11.503  0.7395  0.3620  0.3569
  549TIP3    H123062   4.478   5.658  11.506  0.7035 -0.6760  2.6846
  549TIP3    H223063   4.600   5.636  11.594  2.6868 -3.7427 -0.6851
  550TIP3   OH223064   4.346   0.939  15.678 -0.1268  0.6864  0.1463
  550TIP3    H123065   4.406   0.972  15.611  0.1051 -0.4193 -0.2139
  550TIP3    H223066   4.391   0.862  15.713 -1.0575  0.2051  0.3020
  551TIP3   OH223067   1.790   1.387  10.632  0.0052 -0.2024  0.2549
  551TIP3    H123068   1.864   1.413  10.687  0.8890 -0.4718 -0.7953
  551TIP3    H223069   1.739   1.329  10.688  0.8109 -0.3380  0.8648
  552TIP3   OH223070   2.158   6.144   5.598 -0.5333 -0.0787 -0.2556
  552TIP3    H123071   2.120   6.062   5.630 -0.5669 -0.3843 -1.0724
  552TIP3    H223072   2.165   6.132   5.503 -0.8196  0.9783 -0.4188
  553TIP3   OH223073   0.531   2.307   3.648 -0.6670  0.2651 -0.4390
  553TIP3    H123074   0.602   2.371   3.650 -1.2563  0.8817  1.8972
  553TIP3    H223075   0.518   2.289   3.555 -0.4680  3.5417 -1.1556
  554TIP3   OH223076   2.797   6.161  17.159 -0.1009  0.5126  0.1650
  554TIP3    H123077   2.702   6.159  17.143  0.1238  3.6312 -1.9741
  554TIP3    H223078   2.831   6.087  17.109 -1.1389  0.8113 -1.0074
  555TIP3   OH223079   3.663   0.265  12.056 -0.0773 -0.1472  0.3496
  555TIP3    H123080   3.713   0.195  12.097  0.4887 -0.2376 -0.4780
  555TIP3    H223081   3.728   0.331  12.032 -0.4520  0.1069  0.0073
  556TIP3   OH223082   4.061   1.323   4.898 -0.1493 -0.4028  0.1178
  556TIP3    H123083   4.016   1.293   4.819 -0.3927 -1.0329  0.4868
  556TIP3    H223084   4.123   1.252   4.918 -0.1358 -0.2773  0.5267
  557TIP3   OH223085   2.338   2.256   1.094 -0.0579  0.2361  0.4851
  557TIP3    H123086   2.320   2.231   1.184 -0.6475  1.7984  0.8260
  557TIP3    H223087   2.413   2.203   1.068 -0.6878 -1.1456  1.4553
  558TIP3   OH223088   6.204   6.714  11.459 -0.0600 -0.0218  0.4371
  558TIP3    H123089   6.154   6.633  11.463  0.0207 -0.0985 -0.0696
  558TIP3    H223090   6.234   6.729  11.549  0.2273 -0.7425  0.4606
  559TIP3   OH223091   6.653   1.977  16.002 -0.1331 -0.0137 -0.6241
  559TIP3    H123092   6.702   1.902  15.967  0.6356  0.7057 -1.1189
  559TIP3    H223093   6.577   1.985  15.944  0.4997  0.4233 -1.4028
  560TIP3   OH223094   5.650   1.095   1.112 -0.0739  0.2045 -0.1121
  560TIP3    H123095   5.656   1.150   1.190 -3.9682 -0.0080  0.4426
  560TIP3    H223096   5.688   1.011   1.138 -0.3621  0.4793  1.2180
  561TIP3   OH223097   1.899   1.367   2.614  0.5998 -0.0805 -0.0444
  561TIP3    H123098   1.820   1.377   2.562 -1.0931  0.9128  2.6442
  561TIP3    H223099   1.950   1.446   2.596 -1.0709  1.4145  1.5342
  562TIP3   OH223100   4.267   6.456   2.878  0.1646 -0.2682  0.1712
  562TIP3    H123101   4.357   6.474   2.907  0.6063 -0.6211 -0.9633
  562TIP3    H223102   4.236   6.388   2.938  0.9938 -0.8411 -0.0349
  563TIP3   OH223103   1.515   0.441   0.365  0.4346  0.0248 -0.5755
  563TIP3    H123104   1.571   0.502   0.414 -0.6396 -1.0774  2.1474
  563TIP3    H223105   1.531   0.356   0.407  0.2876 -1.1888 -2.8934
  564TIP3   OH223106   2.348   0.564  14.735 -0.2370  0.1697  0.2518
  564TIP3    H123107   2.366   0.636  14.676  1.8985  0.5774  1.3358
  564TIP3    H223108   2.406   0.579  14.810 -0.6727 -1.9668  1.0708
  565TIP3   OH223109   6.047   0.875   5.133  0.0671  0.4053  0.0992
  565TIP3    H123110   6.039   0.901   5.042 -0.0519  0.7596  0.2089
  565TIP3    H223111   6.000   0.943   5.182  0.2172  0.2740  0.4310
  566TIP3   OH223112   2.433   6.248   2.011  0.0702  0.2805 -0.5178
  566TIP3    H123113   2.516   6.228   2.054  0.3069 -0.4151 -1.2793
  566TIP3    H223114   2.376   6.173   2.031  0.0490  0.1475 -1.0632
  567TIP3   OH223115   4.219   2.184  13.333  0.3499 -0.2397 -0.0303
  567TIP3    H123116   4.135   2.229  13.330  0.2134 -0.4962 -0.0479
  567TIP3    H223117   4.197   2.091  13.329  0.6086 -0.3233  0.3539
  568TIP3   OH223118   2.550   5.086   1.650 -0.4853  0.0604 -0.2114
  568TIP3    H123119   2.542   5.180   1.669  0.4177 -0.3875  2.7531
  568TIP3    H223120   2.597   5.082   1.567 -0.0749  2.2511 -0.1125
  569TIP3   OH223121   2.653   6.309  11.226 -0.6080  0.4270  0.9497
  569TIP3    H123122   2.637   6.332  11.134 -0.0315  1.6279  1.1432
  569TIP3    H223123   2.595   6.234  11.242 -1.6268  0.9826 -0.0492
  570TIP3   OH223124   5.172   0.351  13.028  0.6126 -0.8147  0.3265
  570TIP3    H123125   5.198   0.279  12.970 -0.8559 -2.1217  1.2520
  570TIP3    H223126   5.079   0.365  13.008  0.7995  0.6097  0.3995
  571TIP3   OH223127   1.515   4.207   1.933  0.3335 -0.1321  0.1888
  571TIP3    H123128   1.467   4.219   1.852 -1.4523 -0.0593  1.2428
  571TIP3    H223129   1.580   4.140   1.913 -0.4153 -0.4583 -1.1609
  572TIP3   OH223130   4.512   4.030  11.174  0.0467 -0.4011  0.3715
  572TIP3    H123131   4.507   3.986  11.259  1.5547 -0.5368  0.4048
  572TIP3    H223132   4.449   3.983  11.119 -0.0767 -1.0818  1.0804
  573TIP3   OH223133   3.076   2.298   4.008  0.7992  0.0284  0.2009
  573TIP3    H123134   3.130   2.227   4.042 -0.3114  0.4003  2.8416
  573TIP3    H223135   2.998   2.298   4.063 -0.6570  1.2928 -1.7712
  574TIP3   OH223136   4.747   0.673   6.209  0.6937  0.1431 -0.2120
  574TIP3    H123137   4.780   0.734   6.143 -1.0175  2.3264  0.8778
  574TIP3    H223138   4.654   0.694   6.216  0.7683 -0.3391  2.6088
  575TIP3   OH223139   6.171   3.986   5.114 -0.2049 -0.7099  0.1858
  575TIP3    H123140   6.134   4.061   5.161  0.5273  0.5874 -1.2519
  575TIP3    H223141   6.254   3.969   5.158 -0.1684 -0.3917  0.2429
  576TIP3   OH223142   2.149   4.506   2.476 -0.1427  0.5209 -0.3569
  576TIP3    H123143   2.086   4.462   2.418  0.0068  0.1955 -0.2766
  576TIP3    H223144   2.218   4.441   2.489 -0.3259  0.4797  0.4335
  577TIP3   OH223145   1.308   4.264  14.516  0.0163  0.0446  0.0929
  577TIP3    H123146   1.305   4.329  14.446  0.0694 -0.8946 -0.7901
  577TIP3    H223147   1.396   4.273  14.554  0.1369  0.2589 -0.2403
  578TIP3   OH223148   4.041   2.633  14.615  0.3468  0.0925  0.1988
  578TIP3    H123149   4.060   2.578  14.539  0.1153  0.6278 -0.2500
  578TIP3    H223150   4.112   2.614  14.676  0.1804 -0.8263  0.1129
  579TIP3   OH223151   2.163   3.720  12.348 -0.2066  0.8115  0.5821
  579TIP3    H123152   2.156   3.653  12.280  0.5511  0.4148  0.8850
  579TIP3    H223153   2.078   3.763  12.349 -0.4153  0.4240 -0.2111
  580TIP3   OH223154   5.028   1.256  15.133 -0.4334  0.2251  0.4880
  580TIP3    H123155   4.977   1.326  15.175  0.9462  1.2630  0.4825
  580TIP3    H223156   5.094   1.232  15.197  1.8105  1.9516 -1.0849
  581TIP3   OH223157   0.419   5.525   3.576 -0.3514 -0.2361 -0.2283
  581TIP3    H123158   0.443   5.588   3.643 -0.8455 -0.8836  0.5580
  581TIP3    H223159   0.395   5.446   3.624 -1.3933 -0.4800 -1.1277
  582TIP3   OH223160   3.391   2.145  14.564 -0.3493  0.1555  0.0813
  582TIP3    H123161   3.450   2.153  14.490  0.9635  0.3291  1.1278
  582TIP3    H223162   3.340   2.226  14.563  2.4850  2.0712  1.7500
  583TIP3   OH223163   4.158   2.866  11.590  0.4114  0.2037  0.0722
  583TIP3    H123164   4.240   2.881  11.543  0.3570  0.4726  0.0653
  583TIP3    H223165   4.095   2.844  11.522  0.2116  1.0793 -0.0331
  584TIP3   OH223166   2.141   6.085  16.682 -0.0532 -0.1816  0.2049
  584TIP3    H123167   2.070   6.043  16.633 -0.0996  0.3035 -0.1435
  584TIP3    H223168   2.133   6.050  16.771  0.7323 -1.9502 -0.3884
  585TIP3   OH223169   0.610   6.724   3.177  0.0348 -0.7668  0.0964
  585TIP3    H123170   0.577   6.635   3.175 -0.3258 -0.6615  0.9153
  585TIP3    H223171   0.550   6.771   3.235  0.4294 -0.0836 -0.0313
  586TIP3   OH223172   5.714   1.947  15.554  0.6670 -0.4469 -0.1225
  586TIP3    H123173   5.800   1.912  15.534  1.3859  1.3075 -0.2398
  586TIP3    H223174   5.732   2.033  15.593 -1.0160 -0.1151 -0.0405
  587TIP3   OH223175   0.901   3.223   6.399 -0.5820  0.1537 -0.4532
  587TIP3    H123176   0.807   3.204   6.394 -0.5782  0.6170 -2.3766
  587TIP3    H223177   0.937   3.149   6.449 -2.0145  0.2109  0.7059
  588TIP3   OH223178   0.944   2.592   3.307 -0.5630 -0.2703  0.6820
  588TIP3    H123179   1.024   2.591   3.255 -1.3838 -0.0130 -0.5876
  588TIP3    H223180   0.927   2.500   3.328 -0.5806 -0.4346 -0.0447
  589TIP3   OH223181   5.194   5.972  16.729  0.3521 -0.3760 -0.7475
  589TIP3    H123182   5.141   5.979  16.649 -1.1612 -2.0890  0.0570
  589TIP3    H223183   5.208   5.878  16.740  3.7108  0.0388 -0.9781
  590TIP3   OH223184   5.252   3.967   3.631  0.0374 -0.0360  0.4172
  590TIP3    H123185   5.177   3.929   3.586 -1.0990  2.1107  0.4463
  590TIP3    H223186   5.285   4.034   3.571  2.4279 -1.4497  0.0653
  591TIP3   OH223187   0.536   2.461  16.942  0.1225  0.0618 -0.0249
  591TIP3    H123188   0.605   2.504  16.993  0.4749 -0.7840  0.2216
  591TIP3    H223189   0.468   2.440  17.006  0.1159 -0.0862 -0.0808
  592TIP3   OH223190   2.006   5.849   6.101 -0.6271 -0.1509 -0.5168
  592TIP3    H123191   2.063   5.773   6.094 -1.2506 -0.6910  0.1667
  592TIP3    H223192   1.943   5.826   6.170 -0.7087  1.0439 -0.1666
  593TIP3   OH223193   2.720   2.775  14.464  0.4720  0.1838  0.1464
  593TIP3    H123194   2.803   2.767  14.416 -1.7879 -0.3889 -3.9132
  593TIP3    H223195   2.691   2.685  14.478 -0.5142  0.3952 -0.4548
  594TIP3   OH223196   5.164   4.921  16.899  0.1328 -0.6751  0.0678
  594TIP3    H123197   5.258   4.907  16.914 -0.0708 -1.3988  0.7402
  594TIP3    H223198   5.124   4.836  16.919 -0.6632 -0.3797 -0.2489
  595TIP3   OH223199   2.566   5.168   5.999  0.2049 -0.3415  0.4638
  595TIP3    H123200   2.505   5.214   6.056  0.7397  2.1832 -0.9430
  595TIP3    H223201   2.653   5.189   6.034  0.4879  0.3685 -0.6541
  596TIP3   OH223202   1.912   2.075   5.243  0.0920  0.3759 -0.3126
  596TIP3    H123203   1.846   2.052   5.308 -0.5507  1.5875 -0.5091
  596TIP3    H223204   1.956   2.152   5.281 -0.0711  0.8928 -1.1547
  597TIP3   OH223205   0.823   4.196  10.801 -1.1184 -0.1134  0.0956
  597TIP3    H123206   0.735   4.227  10.782 -1.4038 -1.0179 -0.0529
  597TIP3    H223207   0.825   4.106  10.768  0.1319  0.1987 -0.7166
  598TIP3   OH223208   3.513   1.673   4.621 -0.1032  0.7411  0.1339
  598TIP3    H123209   3.569   1.702   4.693  2.0559  0.7353 -1.4979
  598TIP3    H223210   3.452   1.746   4.608  0.3060  1.2703  1.1214
  599TIP3   OH223211   1.795   0.623   0.169  0.6860 -0.3555  0.6712
  599TIP3    H123212   1.885   0.653   0.158  0.4482 -0.0233 -0.5480
  599TIP3    H223213   1.762   0.615   0.079 -0.0931 -1.7249  1.0665
  600TIP3   OH223214   4.937   1.556   4.815 -0.0050  0.6827  0.0971
  600TIP3    H123215   4.862   1.578   4.870 -0.8021  1.4112 -1.2467
  600TIP3    H223216   4.913   1.475   4.772  0.4044  0.3838  0.4262
  601TIP3   OH223217   1.543   5.533  14.566  0.1787 -0.4208 -0.0153
  601TIP3    H123218   1.531   5.602  14.500  0.3259  0.7988  1.2322
  601TIP3    H223219   1.551   5.579  14.649  2.2978 -1.8382  0.5962
  602TIP3   OH223220   1.237   2.665  15.290  0.4031 -0.5383  0.2557
  602TIP3    H123221   1.237   2.636  15.381  2.0037  1.4903  0.9381
  602TIP3    H223222   1.144   2.673  15.268 -0.0036 -0.5150  1.8960
  603TIP3   OH223223   1.050   1.083   5.566  0.3265 -0.4719  0.3393
  603TIP3    H123224   1.040   1.173   5.537 -0.2421 -0.7251 -0.2566
  603TIP3    H223225   1.103   1.089   5.646  2.2605  0.2026 -0.9625
  604TIP3   OH223226   4.509   1.152   6.138 -0.2077  0.6728  0.4020
  604TIP3    H123227   4.535   1.139   6.047  2.0374  1.8656  0.8375
  604TIP3    H223228   4.488   1.064   6.170 -0.1706  0.1427 -1.0155
  605TIP3   OH223229   4.532   2.519   6.484 -0.3752 -1.0396 -0.0843
  605TIP3    H123230   4.525   2.436   6.533  1.5206 -1.4708 -0.4821
  605TIP3    H223231   4.568   2.581   6.547 -0.0766 -0.9976 -0.2960
  606TIP3   OH223232   3.128   5.662  17.154  0.6353  0.2401 -0.2430
  606TIP3    H123233   3.073   5.647  17.077  0.3430 -0.1342  0.0368
  606TIP3    H223234   3.168   5.577  17.173  0.1051  0.1454  0.4798
  607TIP3   OH223235   3.075   0.577   5.710 -0.4998  0.6965  0.5841
  607TIP3    H123236   3.012   0.645   5.732 -1.2019  0.3546 -0.3328
  607TIP3    H223237   3.148   0.624   5.670 -0.3077  1.0637  1.3663
  608TIP3   OH223238   2.390   6.785  12.283 -0.5205  0.1129  0.1559
  608TIP3    H123239   2.384   6.865  12.335  0.5202  0.4012 -0.1487
  608TIP3    H223240   2.484   6.769  12.274 -0.6709  0.1078 -1.6748
  609TIP3   OH223241   5.270   0.915  16.999  0.4442  0.1030  0.2939
  609TIP3    H123242   5.194   0.856  16.995 -0.6373  1.4573  0.5846
  609TIP3    H223243   5.286   0.926  17.093  0.2704  0.7322  0.2510
  610TIP3   OH223244   3.607   5.480   5.325 -0.1775 -0.7024 -0.7173
  610TIP3    H123245   3.702   5.490   5.319 -0.3166  0.5777 -0.8805
  610TIP3    H223246   3.572   5.551   5.272 -1.2552  0.0964  1.0439
  611TIP3   OH223247   6.381   3.352   2.551  0.6875 -0.2785  0.2920
  611TIP3    H123248   6.315   3.302   2.503  0.5143  0.5529 -0.3511
  611TIP3    H223249   6.347   3.357   2.640 -2.5906  4.2403 -1.0280
  612TIP3   OH223250   4.178   1.064   5.722 -0.0316 -0.2470  0.7826
  612TIP3    H123251   4.237   1.038   5.793  0.7681 -1.0600 -0.1731
  612TIP3    H223252   4.130   1.139   5.757  0.2467 -0.7405  2.2365
  613TIP3   OH223253   0.305   4.489  12.755  0.3316  0.6853  0.2885
  613TIP3    H123254   0.243   4.502  12.684  0.2457  1.6388  0.5327
  613TIP3    H223255   0.328   4.396  12.750 -1.3468  0.2468  0.3951
  614TIP3   OH223256   4.067   1.525   2.788  0.6405 -0.2335  0.3794
  614TIP3    H123257   4.050   1.484   2.704  1.7452  0.3771 -0.1458
  614TIP3    H223258   3.981   1.526   2.832 -0.2779  0.9377 -1.4029
  615TIP3   OH223259   5.329   0.545  11.714 -0.0856  0.0031 -0.2541
  615TIP3    H123260   5.334   0.597  11.634  3.0502  0.1237 -0.0184
  615TIP3    H223261   5.301   0.458  11.684 -2.7500  1.0420 -0.9521
  616TIP3   OH223262   3.308   5.777   0.174 -0.4012  0.1436  0.1212
  616TIP3    H123263   3.374   5.798   0.240 -0.0373  1.2036 -0.5559
  616TIP3    H223264   3.357   5.769   0.092 -1.0302  0.3354 -0.2801
  617TIP3   OH223265   4.477   3.679   5.213 -0.4021 -0.1866 -0.4753
  617TIP3    H123266   4.431   3.748   5.166 -1.1092  0.1749  0.7150
  617TIP3    H223267   4.469   3.703   5.306 -1.3494 -2.2658  0.0270
  618TIP3   OH223268   1.284   4.823  16.339 -0.2190 -0.2027 -0.0503
  618TIP3    H123269   1.291   4.731  16.365 -0.5877  0.2603  1.7914
  618TIP3    H223270   1.208   4.827  16.281 -0.1488 -1.0733 -0.1987
  619TIP3   OH223271   2.422   1.534  14.924 -0.6209 -0.2068 -0.4629
  619TIP3    H123272   2.481   1.478  14.874  0.3046  1.2482 -1.0503
  619TIP3    H223273   2.344   1.481  14.937 -0.1116 -1.3165 -1.7597
  620TIP3   OH223274   3.383   1.213  14.047  0.3841 -0.0353  0.2185
  620TIP3    H123275   3.298   1.248  14.021 -0.3770 -1.4998  0.7259
  620TIP3    H223276   3.368   1.120  14.061  2.4256 -0.6115 -1.2219
  621TIP3   OH223277   1.740   1.932   4.348 -0.3347  0.1372 -0.2240
  621TIP3    H123278   1.730   2.006   4.287 -0.3459  1.2651  1.1027
  621TIP3    H223279   1.652   1.895   4.355 -0.7646  1.2799  0.6542
  622TIP3   OH223280   5.838   6.182  11.364 -0.0040  0.0884  0.1121
  622TIP3    H123281   5.820   6.192  11.458  3.2101  0.3976  0.7289
  622TIP3    H223282   5.842   6.271  11.330  0.3150  0.0162 -0.0381
  623TIP3   OH223283   0.401   3.200  12.355 -0.7104 -0.1022  0.1077
  623TIP3    H123284   0.413   3.171  12.445 -0.2961 -0.3196 -0.0142
  623TIP3    H223285   0.324   3.151  12.324 -0.9422  0.0855  0.3887
  624TIP3   OH223286   2.875   4.747   3.567  0.0355  0.2329  0.0931
  624TIP3    H123287   2.911   4.683   3.505 -1.9652 -0.7820 -0.0940
  624TIP3    H223288   2.848   4.820   3.512  2.0287  1.1261  0.2689
  625TIP3   OH223289   6.301   1.132   5.659 -0.6592  0.3749 -0.5804
  625TIP3    H123290   6.209   1.106   5.658 -0.4163 -0.4994 -0.4334
  625TIP3    H223291   6.349   1.052   5.680  0.1554  0.7643 -0.9095
  626TIP3   OH223292   2.593   2.055  14.088 -0.2733 -0.2642 -0.2181
  626TIP3    H123293   2.650   2.055  14.164 -1.7838 -0.8654  0.9352
  626TIP3    H223294   2.650   2.083  14.016  0.9460  1.2351  1.2795
  627TIP3   OH223295   0.840   3.997   2.879 -0.1496 -0.9115  0.2739
  627TIP3    H123296   0.817   3.969   2.968 -0.1922  1.0350  0.9176
  627TIP3    H223297   0.786   4.075   2.864  0.4483 -0.7500 -1.1420
  628TIP3   OH223298   4.615   3.969  15.068  0.1340 -0.5399 -0.3581
  628TIP3    H123299   4.676   4.036  15.099  0.6689 -1.8536  1.5048
  628TIP3    H223300   4.529   4.002  15.092  0.3208 -0.0894 -0.3020
  629TIP3   OH223301   1.084   4.899  13.127  0.3449  0.0987  0.1773
  629TIP3    H123302   1.139   4.840  13.178  1.2235 -0.0007 -0.8748
  629TIP3    H223303   0.998   4.857  13.128  0.7165 -0.6676  0.3072
  630TIP3   OH223304   1.551   4.744   1.730  0.1646 -0.3494 -0.2733
  630TIP3    H123305   1.614   4.816   1.720 -0.3835  0.5043  2.0979
  630TIP3    H223306   1.578   4.680   1.665  1.3339  1.5361 -1.6967
  631TIP3   OH223307   1.887   0.196   4.744 -0.0312  0.0459  0.2305
  631TIP3    H123308   1.831   0.174   4.669 -0.3150  2.1088 -0.1944
  631TIP3    H223309   1.877   0.122   4.804 -1.8524 -0.4185 -0.6139
  632TIP3   OH223310   6.519   4.762  16.953 -0.4098  0.2121  0.3744
  632TIP3    H123311   6.545   4.851  16.928 -1.4811 -0.0704 -1.7934
  632TIP3    H223312   6.599   4.711  16.944 -0.1464  0.6542  0.1606
  633TIP3   OH223313   1.997   0.148  16.596  0.3268 -0.2713  0.1969
  633TIP3    H123314   2.038   0.149  16.682  1.3200 -0.6050 -0.2596
  633TIP3    H223315   1.992   0.055  16.573  0.1313 -0.1812 -0.1333
  634TIP3   OH223316   2.629   4.974   2.135 -0.4068  0.1747 -0.2441
  634TIP3    H123317   2.634   4.880   2.155 -1.6069  0.1209 -0.1301
  634TIP3    H223318   2.689   5.015   2.197 -0.6645 -0.4212  0.4139
  635TIP3   OH223319   6.489   1.470   5.861  0.3115 -0.0964  0.0083
  635TIP3    H123320   6.394   1.467   5.863  0.3150 -0.1340  0.1260
  635TIP3    H223321   6.510   1.556   5.825  0.2519  0.9372  2.3418
  636TIP3   OH223322   2.726   6.578  11.830 -0.5382  0.6383  0.1854
  636TIP3    H123323   2.817   6.603  11.813 -0.9073  1.9338  0.0554
  636TIP3    H223324   2.706   6.513  11.763  0.6024 -0.4175  0.8406
  637TIP3   OH223325   6.636   2.016  17.102  0.7498 -0.2506 -0.0776
  637TIP3    H123326   6.671   2.105  17.107  1.8270 -0.7039  0.8115
  637TIP3    H223327   6.633   1.997  17.008  0.0769  0.8814 -0.2959
  638TIP3   OH223328   1.481   2.213  16.945 -0.7950  0.8794 -0.1943
  638TIP3    H123329   1.548   2.273  16.979 -0.6160  0.9039 -0.5847
  638TIP3    H223330   1.516   2.126  16.963 -1.4782  0.8790  1.2018
  639TIP3   OH223331   3.885   2.948   1.820 -0.0045  0.5226 -0.1996
  639TIP3    H123332   3.880   3.029   1.770 -0.5901 -0.1564 -1.2619
  639TIP3    H223333   3.973   2.915   1.805  0.8905  1.9273  1.7853
  640TIP3   OH223334   5.606   6.734   1.812 -0.1403  0.8758 -0.0289
  640TIP3    H123335   5.574   6.731   1.721 -0.4868  2.1140  0.0417
  640TIP3    H223336   5.684   6.679   1.811  1.3203  2.8822 -1.6902
  641TIP3   OH223337   1.875   0.498  12.088  0.1063  0.5346  0.1744
  641TIP3    H123338   1.913   0.447  12.160 -0.3762  0.1677  0.1674
  641TIP3    H223339   1.835   0.574  12.130 -0.2758  0.2611  0.3010
  642TIP3   OH223340   3.999   4.595  15.503  0.7222  0.1225 -0.3826
  642TIP3    H123341   3.978   4.688  15.502  1.0954  0.2490  1.2294
  642TIP3    H223342   3.946   4.559  15.574  3.1374 -0.2251  1.3177
  643TIP3   OH223343   2.214   5.218  12.011 -0.3329  0.6077 -0.2060
  643TIP3    H123344   2.268   5.297  12.013 -1.5228  1.4025  1.4074
  643TIP3    H223345   2.182   5.209  12.101 -2.4018 -0.1996 -1.0074
  644TIP3   OH223346   3.605   4.869   5.466  0.4740  0.1977  0.2914
  644TIP3    H123347   3.665   4.802   5.432 -0.7576 -0.4708 -0.5938
  644TIP3    H223348   3.610   4.858   5.561  1.2260 -0.3271  0.1985
  645TIP3   OH223349   4.791   4.347   1.248 -0.6458 -0.6632 -0.1351
  645TIP3    H123350   4.858   4.370   1.184 -0.9342  0.1070 -0.1677
  645TIP3    H223351   4.708   4.359   1.201 -0.8995  1.0439  0.7340
  646TIP3   OH223352   2.310   5.888  17.182 -0.2710  0.5802 -0.2790
  646TIP3    H123353   2.383   5.844  17.226 -1.3889 -1.6480 -0.6168
  646TIP3    H223354   2.343   5.977  17.166  1.3582  0.4481  2.0485
  647TIP3   OH223355   0.729   1.737   1.033  0.3222  0.0370 -0.2648
  647TIP3    H123356   0.647   1.738   0.984  1.0507  1.1465 -1.5013
  647TIP3    H223357   0.797   1.748   0.967  1.3920  0.4841  0.8776
  648TIP3   OH223358   4.503   6.486  12.376 -0.0397 -0.0278  0.4294
  648TIP3    H123359   4.474   6.576  12.389 -0.2833 -0.0039 -0.2286
  648TIP3    H223360   4.455   6.457  12.299  0.0719 -0.7086  0.6148
  649TIP3   OH223361   6.496   0.821   4.109 -0.0681 -0.0155  0.0010
  649TIP3    H123362   6.581   0.850   4.139  0.8356 -2.8808  0.3417
  649TIP3    H223363   6.475   0.879   4.035  3.1053 -0.5735 -1.3988
  650TIP3   OH223364   3.331   1.447  17.121 -0.0348 -0.1065 -0.9500
  650TIP3    H123365   3.260   1.505  17.092 -0.4069 -0.6068 -1.0572
  650TIP3    H223366   3.304   1.360  17.091  0.0412 -0.4831  0.0537
  651TIP3   OH223367   0.773   5.485   3.299 -0.6644 -0.1021  0.3209
  651TIP3    H123368   0.840   5.539   3.257 -1.9395 -0.7127 -2.6607
  651TIP3    H223369   0.713   5.548   3.341 -0.6553  0.6689 -0.8045
  652TIP3   OH223370   2.661   4.169   0.549 -0.2093 -0.1393  0.5291
  652TIP3    H123371   2.706   4.164   0.634  2.4518  1.5690 -0.7190
  652TIP3    H223372   2.702   4.100   0.496 -0.9507 -0.3338  0.2031
  653TIP3   OH223373   0.061   2.807  15.132  0.3445  0.0367  0.0210
  653TIP3    H123374   0.076   2.887  15.182  0.5040  1.2134 -1.8662
  653TIP3    H223375   0.148   2.773  15.114  0.2744 -0.6378  0.9074
  654TIP3   OH223376   5.270   4.776   4.339 -0.6247  0.3667  0.1201
  654TIP3    H123377   5.307   4.703   4.289 -0.0632 -0.3784  1.6021
  654TIP3    H223378   5.252   4.739   4.425  1.1895  2.3671  1.3959
  655TIP3   OH223379   3.420   4.127   6.417  0.5227  1.0164 -0.4277
  655TIP3    H123380   3.500   4.080   6.396 -0.1061 -0.4951  0.4649
  655TIP3    H223381   3.419   4.131   6.512 -0.6429  0.6738 -0.4153
  656TIP3   OH223382   2.148   1.641   0.369  0.5411  0.3587 -0.0731
  656TIP3    H123383   2.241   1.663   0.368  0.4742  0.6642  0.4933
  656TIP3    H223384   2.103   1.725   0.362  0.3038  0.2320 -0.0779
  657TIP3   OH223385   3.858   2.505  14.007  0.5573  0.1372 -0.3916
  657TIP3    H123386   3.790   2.493  13.941  1.6673 -1.1801 -1.3026
  657TIP3    H223387   3.906   2.422  14.009  1.0054  0.4011  1.5432
  658TIP3   OH223388   1.576   2.150  16.195 -0.3667 -0.5805 -0.2630
  658TIP3    H123389   1.667   2.123  16.200 -0.9504 -2.3136  1.5992
  658TIP3    H223390   1.558   2.192  16.279 -0.5332  2.3067 -1.6951
  659TIP3   OH223391   0.374   0.392   1.389  0.3238  0.1140  0.2030
  659TIP3    H123392   0.380   0.478   1.431 -0.3863 -0.0085  0.5681
  659TIP3    H223393   0.424   0.334   1.446 -1.7658 -0.3285  1.6639
  660TIP3   OH223394   4.930   3.288  11.381  0.3546  0.1264  0.0084
  660TIP3    H123395   5.014   3.251  11.406 -0.2313 -0.6625  0.8201
  660TIP3    H223396   4.929   3.284  11.285  1.1791  0.0136  0.0069
  661TIP3   OH223397   3.922   0.039  14.169  0.3217  0.4183 -0.0844
  661TIP3    H123398   3.966   0.054  14.085 -1.1150  2.2094 -0.5274
  661TIP3    H223399   3.950  -0.049  14.194  1.3747  0.1526 -2.0600
  662TIP3   OH223400   1.829   1.515   3.163 -0.0569  0.2619 -0.4449
  662TIP3    H123401   1.918   1.526   3.131 -0.4123  1.1164 -1.1587
  662TIP3    H223402   1.773   1.528   3.086 -0.8228  0.2636  0.0979
  663TIP3   OH223403   2.015   2.933   3.240  0.1937  0.2439 -0.1313
  663TIP3    H123404   2.102   2.974   3.241  0.0343  0.6342 -1.7621
  663TIP3    H223405   1.954   3.006   3.237 -0.1524 -0.0677 -0.7381
  664TIP3   OH223406   3.348   0.364  15.037  0.1277  0.1150  0.5382
  664TIP3    H123407   3.261   0.397  15.061  0.6428  2.7359 -1.0245
  664TIP3    H223408   3.350   0.366  14.942  1.6275 -0.7276  0.5272
  665TIP3   OH223409   4.969   3.137  12.907  0.2940  0.3488  0.2335
  665TIP3    H123410   5.022   3.211  12.879  0.6708  0.0058  0.0385
  665TIP3    H223411   5.008   3.062  12.863 -3.0616  0.6937 -3.5782
  666TIP3   OH223412   0.617   5.377  13.548 -0.0757 -0.2893  0.1190
  666TIP3    H123413   0.694   5.433  13.559 -0.7281  1.0489 -1.9513
  666TIP3    H223414   0.555   5.408  13.615  0.2970  0.1981  0.2377
  667TIP3   OH223415   0.750   1.457   5.729  0.6254  0.4056  0.2409
  667TIP3    H123416   0.764   1.536   5.780  0.5561  1.0300 -0.6940
  667TIP3    H223417   0.794   1.388   5.778  1.5672  1.2112  0.5255
  668TIP3   OH223418   3.932   0.595   2.894  0.2794  0.7692 -0.0093
  668TIP3    H123419   3.840   0.570   2.889  0.3526  0.6152 -0.6090
  668TIP3    H223420   3.962   0.596   2.803  0.2506  3.2200 -0.0046
  669TIP3   OH223421   2.836   5.794   3.781  0.4281 -0.3837 -0.5649
  669TIP3    H123422   2.867   5.855   3.847  1.4820 -1.1314 -0.3441
  669TIP3    H223423   2.825   5.847   3.702  0.8297  0.1849 -0.2402
  670TIP3   OH223424   0.459   5.054  16.200 -1.2309  0.1235  0.0938
  670TIP3    H123425   0.391   5.092  16.145 -0.4795  1.3676  0.0168
  670TIP3    H223426   0.418   5.048  16.287 -1.5290  0.6353 -0.0096
  671TIP3   OH223427   2.271   3.568  15.510  0.2196 -0.3594  0.3345
  671TIP3    H123428   2.219   3.496  15.475  1.3290 -1.3185  0.6107
  671TIP3    H223429   2.352   3.566  15.458 -0.5948  2.0434 -1.0905
  672TIP3   OH223430   4.027   3.715   5.502 -0.1529  0.5298 -0.0216
  672TIP3    H123431   3.968   3.753   5.568  0.0704  1.2743 -0.2519
  672TIP3    H223432   3.978   3.640   5.467 -1.0403  1.2450 -0.3306
  673TIP3   OH223433   6.535   4.154   2.610  0.5393 -0.0665  0.0429
  673TIP3    H123434   6.547   4.184   2.700  1.0786  0.3487 -0.1603
  673TIP3    H223435   6.566   4.227   2.556  1.0405 -0.6454 -0.4697
  674TIP3   OH223436   1.469   6.393   3.036 -0.1512  0.5948 -0.0070
  674TIP3    H123437   1.563   6.387   3.052 -0.1360 -0.4974 -0.5074
  674TIP3    H223438   1.453   6.333   2.963 -1.5187 -0.5672  1.2352
  675TIP3   OH223439   0.121   1.998   5.147 -0.0643 -0.7789  0.0053
  675TIP3    H123440   0.183   1.967   5.213  1.1008  0.0695 -0.6672
  675TIP3    H223441   0.106   1.923   5.091  0.9555 -0.7942 -0.2686
  676TIP3   OH223442   1.177   5.773  13.665  0.7910 -0.2652  0.2352
  676TIP3    H123443   1.109   5.835  13.691  0.7688 -0.2229  0.0790
  676TIP3    H223444   1.246   5.828  13.626  0.5221 -0.3884 -0.4222
  677TIP3   OH223445   1.526   6.239   3.795  0.2841 -0.1000  0.5766
  677TIP3    H123446   1.556   6.320   3.755 -0.8602  0.7629  1.4633
  677TIP3    H223447   1.477   6.194   3.725 -0.7794  0.8944  0.6756
  678TIP3   OH223448   3.403   6.218   5.315 -0.5736 -0.0642  0.1205
  678TIP3    H123449   3.491   6.197   5.282 -0.1070 -0.4793  1.6104
  678TIP3    H223450   3.366   6.133   5.340 -2.1440 -0.1182 -2.2732
  679TIP3   OH223451   1.352   0.001   3.247  0.1455  0.3499 -0.5128
  679TIP3    H123452   1.387   0.079   3.202 -0.0102  0.5260 -0.3320
  679TIP3    H223453   1.374   0.015   3.339  0.3998  0.0238 -0.5248
  680TIP3   OH223454   2.196   5.000  16.522  0.3852  0.1665  0.6683
  680TIP3    H123455   2.221   5.015  16.614  1.4055  0.7351  0.3132
  680TIP3    H223456   2.280   5.000  16.475 -0.1067 -0.4888 -0.2124
  681TIP3   OH223457   6.025   3.119   0.379 -0.1476  0.0212  0.0928
  681TIP3    H123458   6.100   3.177   0.392  0.3999 -0.8726  0.9613
  681TIP3    H223459   6.057   3.053   0.317  0.2949 -1.2805  1.6922
  682TIP3   OH223460   5.407   3.394  11.752 -0.3725 -0.5538  0.2643
  682TIP3    H123461   5.351   3.362  11.823 -0.4430 -3.5497 -1.0583
  682TIP3    H223462   5.347   3.405  11.678  0.4546 -2.1745 -0.6808
  683TIP3   OH223463   1.647   6.285  11.811  0.1497 -0.3424  0.0923
  683TIP3    H123464   1.593   6.207  11.803  0.0008 -0.5788  2.8167
  683TIP3    H223465   1.705   6.267  11.885 -0.7810  2.6077  1.6395
  684TIP3   OH223466   4.821   2.088  11.933 -0.1143  0.4476  0.2637
  684TIP3    H123467   4.894   2.064  11.991  0.5704  0.4082 -0.6056
  684TIP3    H223468   4.796   2.006  11.891 -0.5145  0.5023  0.3983
  685TIP3   OH223469   3.736   6.333  10.306 -0.3067  0.2760  0.0734
  685TIP3    H123470   3.645   6.340  10.334 -0.6099  0.9449 -1.0525
  685TIP3    H223471   3.731   6.302  10.215  0.5959  0.2139  0.0357
  686TIP3   OH223472   3.716   0.164   2.764  0.5916 -0.7908  0.9160
  686TIP3    H123473   3.809   0.174   2.742  0.6087  0.5582  1.5292
  686TIP3    H223474   3.716   0.110   2.843  0.7745 -1.8822  0.1816
  687TIP3   OH223475   1.194   0.124  11.475 -0.2162  0.1659  0.6725
  687TIP3    H123476   1.123   0.061  11.460 -1.5688  1.5648  1.1176
  687TIP3    H223477   1.231   0.099  11.559  0.6266 -1.3126 -0.1168
  688TIP3   OH223478   5.703   4.879   2.744 -0.6608 -0.2305 -0.3976
  688TIP3    H123479   5.780   4.859   2.690  1.1523  2.4998  1.0119
  688TIP3    H223480   5.714   4.823   2.821 -1.2226 -1.3560 -1.1185
  689TIP3   OH223481   1.292   0.141  14.503 -0.7127  0.8184  0.4464
  689TIP3    H123482   1.257   0.069  14.556  0.1941  0.1993  0.2217
  689TIP3    H223483   1.378   0.159  14.540 -1.3434  2.4944  1.1504
  690TIP3   OH223484   2.766   4.258   5.023  0.3089  0.2001  0.4943
  690TIP3    H123485   2.685   4.308   5.011  0.7164  0.7433 -0.0569
  690TIP3    H223486   2.763   4.230   5.114 -0.9202 -0.5418  0.2419
  691TIP3   OH223487   5.634   1.299  14.799 -0.4537  0.4799  0.2211
  691TIP3    H123488   5.699   1.301  14.869 -0.4494 -2.3461  0.3894
  691TIP3    H223489   5.560   1.350  14.832  0.8232  1.9123  0.9125
  692TIP3   OH223490   0.530   6.334   3.804  0.2403  0.1805  0.9112
  692TIP3    H123491   0.457   6.300   3.855 -0.8330 -0.4455 -0.9675
  692TIP3    H223492   0.500   6.329   3.713  1.9623  1.5444  0.2281
  693TIP3   OH223493   5.955   4.043   1.379  0.4514 -0.1656 -0.5522
  693TIP3    H123494   5.882   4.001   1.335 -0.2285  1.6367 -1.1688
  693TIP3    H223495   6.027   4.040   1.315 -0.0198  0.8975 -1.1314
  694TIP3   OH223496   2.277   5.623  14.042 -0.3376 -0.2741 -0.8354
  694TIP3    H123497   2.350   5.578  14.083 -0.8467 -0.5097 -0.1717
  694TIP3    H223498   2.300   5.716  14.047 -1.7478 -0.0161  2.8035
  695TIP3   OH223499   4.780   4.327  15.573 -0.2164  0.3962  0.3581
  695TIP3    H123500   4.775   4.249  15.628  0.1459  0.0517 -0.0919
  695TIP3    H223501   4.761   4.399  15.632 -0.5177 -0.0294  0.7875
  696TIP3   OH223502   4.449   0.180   4.681  0.0846  0.5535 -0.3403
  696TIP3    H123503   4.390   0.148   4.749 -1.6668  1.6753 -1.3020
  696TIP3    H223504   4.402   0.166   4.599  1.8845 -0.1277 -1.2978
  697TIP3   OH223505   1.166   0.443  14.035  0.1314 -0.3626 -0.4988
  697TIP3    H123506   1.087   0.419  14.083  0.0911  1.7874  0.5882
  697TIP3    H223507   1.142   0.438  13.943 -1.0031 -0.5957 -0.1892
  698TIP3   OH223508   0.432   5.128  11.420  0.5417 -0.1825  0.4864
  698TIP3    H123509   0.408   5.220  11.433 -0.7376 -0.3630 -0.5160
  698TIP3    H223510   0.514   5.131  11.371  0.2391  0.4163  0.0199
  699TIP3   OH223511   0.089   1.245  14.537 -0.2940  0.6664 -0.2105
  699TIP3    H123512   0.028   1.259  14.465 -1.8578  1.6034  1.2437
  699TIP3    H223513   0.146   1.322  14.537 -1.1605  1.3205  0.3583
  700TIP3   OH223514   2.400   0.285   6.932  0.3437  0.2455 -1.0221
  700TIP3    H123515   2.406   0.323   6.845  0.1478  1.6511 -0.4333
  700TIP3    H223516   2.467   0.217   6.934  2.9928  2.7635 -1.0057
  701TIP3   OH223517   2.695   3.883   1.167 -0.4484 -0.4906  0.1490
  701TIP3    H123518   2.613   3.869   1.214 -0.4039 -0.5336  0.2133
  701TIP3    H223519   2.672   3.945   1.097  0.0568  1.6772  1.8450
  702TIP3   OH223520   3.657   4.176   2.086 -0.4899  0.4719  0.0359
  702TIP3    H123521   3.572   4.217   2.099  0.3379  2.3495 -0.3371
  702TIP3    H223522   3.716   4.222   2.145  0.6830  0.5946 -1.1835
  703TIP3   OH223523   1.301   1.542   3.209 -0.2484 -0.8223 -0.2959
  703TIP3    H123524   1.388   1.571   3.240 -0.3478 -0.0140 -0.7596
  703TIP3    H223525   1.245   1.551   3.286  0.0054 -1.0156 -0.0860
  704TIP3   OH223526   4.214   6.194  16.064  0.2118 -0.4795  0.7371
  704TIP3    H123527   4.189   6.196  16.156  0.9724 -0.9023  0.9600
  704TIP3    H223528   4.308   6.173  16.065  0.7138  1.5990 -0.0487
  705TIP3   OH223529   3.402   1.954  16.988 -0.6041  0.7591 -0.4896
  705TIP3    H123530   3.426   2.031  16.937 -0.1626 -0.7647 -2.6286
  705TIP3    H223531   3.476   1.940  17.047  0.0882  0.9244 -1.3156
  706TIP3   OH223532   4.700   4.761   0.817 -0.1229 -0.3984  0.2080
  706TIP3    H123533   4.671   4.804   0.737  0.7844 -0.2835 -0.0664
  706TIP3    H223534   4.759   4.692   0.787 -0.1464 -0.6596  0.7566
  707TIP3   OH223535   0.046   3.682  12.642 -0.3414 -0.0798  0.4936
  707TIP3    H123536   0.009   3.658  12.726  1.2014  0.3003  1.3028
  707TIP3    H223537   0.054   3.778  12.646 -0.8756  0.0046 -0.3422
  708TIP3   OH223538   2.801   4.934   3.359  0.0085 -0.6672  0.0495
  708TIP3    H123539   2.823   4.904   3.271  0.2125  1.0181 -0.5030
  708TIP3    H223540   2.871   4.996   3.381 -0.9861  0.2578  0.6693
  709TIP3   OH223541   5.348   0.606  14.914 -0.1389  0.4086 -0.1989
  709TIP3    H123542   5.326   0.663  14.840  0.0436  1.6914  0.7003
  709TIP3    H223543   5.385   0.527  14.875 -1.1564  0.5690 -1.5148
  710TIP3   OH223544   2.858   5.115   5.236  0.5862  0.0055  0.5846
  710TIP3    H123545   2.942   5.131   5.194  0.4599  1.3262  0.7929
  710TIP3    H223546   2.794   5.115   5.164  0.1406  3.9990  0.8571
  711TIP3   OH223547   5.691   3.038   2.863 -0.1489 -0.1499  0.1485
  711TIP3    H123548   5.645   3.121   2.870 -0.0560 -0.1662  0.9305
  711TIP3    H223549   5.734   3.026   2.947  0.0410 -0.8708 -0.0419
  712TIP3   OH223550   3.911   4.769  15.722 -0.0181 -0.0691 -0.0557
  712TIP3    H123551   3.948   4.802  15.803 -0.8209  0.5923  0.0447
  712TIP3    H223552   3.840   4.830  15.701 -0.2891 -0.6501 -0.8620
  713TIP3   OH223553   2.255   5.214   1.920 -0.5627 -0.0851 -0.5665
  713TIP3    H123554   2.296   5.174   1.843  1.0880 -0.6542  0.5768
  713TIP3    H223555   2.225   5.140   1.972  1.1984  0.1751  0.8625
  714TIP3   OH223556   6.146   2.909   4.682  0.5507 -0.1307 -0.5156
  714TIP3    H123557   6.122   2.819   4.703 -1.7176  0.6804  0.5385
  714TIP3    H223558   6.181   2.945   4.763  2.1388 -0.2415 -1.1226
  715TIP3   OH223559   3.931   1.694  15.750 -0.1490  0.1283  0.1341
  715TIP3    H123560   3.923   1.624  15.814 -1.4332  0.4200  0.3105
  715TIP3    H223561   3.901   1.656  15.668 -0.0691  0.2319  0.0557
  716TIP3   OH223562   1.785   6.717  15.246 -0.6054  0.4329  0.1071
  716TIP3    H123563   1.870   6.673  15.253 -1.2224 -0.7416  0.2633
  716TIP3    H223564   1.790   6.788  15.310 -0.0950 -0.2382  0.8245
  717TIP3   OH223565   4.434   2.097  15.516 -0.5890  0.7908 -0.4197
  717TIP3    H123566   4.418   2.027  15.452 -1.7246 -0.6856  1.4089
  717TIP3    H223567   4.356   2.152  15.511 -0.9370  0.3526  0.0626
  718TIP3   OH223568   3.226   0.409  11.508 -0.2106  0.9647 -0.0280
  718TIP3    H123569   3.174   0.334  11.477  0.3046  0.1193  1.1365
  718TIP3    H223570   3.163   0.467  11.548 -0.2379 -0.2116  1.6708
  719TIP3   OH223571   5.222   2.331  13.988 -0.0255  0.2420 -0.3670
  719TIP3    H123572   5.184   2.375  14.064 -0.8244  0.9989 -1.1883
  719TIP3    H223573   5.306   2.297  14.019  0.9411  2.9307  0.1434
  720TIP3   OH223574   4.072   4.847   0.903  0.0342  0.2003 -0.0117
  720TIP3    H123575   3.977   4.835   0.898  0.3246 -2.4023 -0.2066
  720TIP3    H223576   4.108   4.773   0.853  2.1472  1.8319 -0.9968
  721TIP3   OH223577   3.212   2.286  11.128  0.0606  0.1031  0.1392
  721TIP3    H123578   3.287   2.303  11.070  0.6428 -0.5142  0.7007
  721TIP3    H223579   3.219   2.353  11.196  0.0596  0.0913  0.1508
  722TIP3   OH223580   4.982   6.772  13.410 -0.6078 -0.2459  0.0103
  722TIP3    H123581   4.912   6.749  13.470 -0.6486 -2.1629 -0.7126
  722TIP3    H223582   5.060   6.730  13.446 -0.1666  0.5144 -0.0492
  723TIP3   OH223583   6.597   0.421   1.912  0.5719  0.2639 -0.1906
  723TIP3    H123584   6.620   0.473   1.988  0.4310 -0.2390  0.1998
  723TIP3    H223585   6.530   0.360   1.944  1.7271 -1.0937 -0.2911
  724TIP3   OH223586   5.473   3.735   2.035 -1.0239 -0.2590 -0.6254
  724TIP3    H123587   5.380   3.728   2.013 -1.5045  0.9152  0.9058
  724TIP3    H223588   5.475   3.792   2.113  1.0897  1.0446 -1.5718
  725TIP3   OH223589   1.122   6.749  12.340  0.0867  0.3995 -0.5252
  725TIP3    H123590   1.049   6.696  12.373  0.5047 -1.3045 -2.1946
  725TIP3    H223591   1.195   6.729  12.399  0.3151 -1.1479 -1.2948
  726TIP3   OH223592   1.260   3.196   4.032 -0.0450  0.4349  0.1835
  726TIP3    H123593   1.300   3.169   4.115 -0.4605  0.2732  0.3347
  726TIP3    H223594   1.166   3.188   4.048 -0.1080 -0.6656 -0.6562
  727TIP3   OH223595   6.339   5.641   2.903 -0.4579 -0.1862  0.2558
  727TIP3    H123596   6.329   5.579   2.975  0.2975 -0.9296 -0.2697
  727TIP3    H223597   6.260   5.630   2.850  0.0631 -1.3088 -0.2961
  728TIP3   OH223598   4.125   6.221   5.131 -0.0588  0.3176  0.5707
  728TIP3    H123599   4.145   6.297   5.185 -0.1130 -0.5326  1.7948
  728TIP3    H223600   4.086   6.258   5.052  0.1187  1.5705  1.0577
  729TIP3   OH223601   1.806   0.700  11.240 -0.0099 -0.0380  0.3067
  729TIP3    H123602   1.843   0.721  11.154 -1.3552  0.2203 -0.2066
  729TIP3    H223603   1.802   0.784  11.285  0.0762 -0.0781  0.3890
  730TIP3   OH223604   4.391   2.232   6.252  0.4011  0.1260 -0.0969
  730TIP3    H123605   4.480   2.221   6.286  1.2917  2.4920 -1.4954
  730TIP3    H223606   4.336   2.231   6.330  1.9278  0.9066  1.0353
  731TIP3   OH223607   4.096   3.977  14.013 -0.6385  0.3516 -0.2445
  731TIP3    H123608   4.130   4.058  13.974  1.5124 -1.0793 -1.4216
  731TIP3    H223609   4.172   3.919  14.019 -2.0331 -1.4040  1.1177
  732TIP3   OH223610   4.449   2.063  14.458  0.1927  0.3106 -0.3842
  732TIP3    H123611   4.502   2.118  14.515  0.0597  0.6629 -0.5945
  732TIP3    H223612   4.512   2.007  14.413  0.3263  0.2622 -0.1333
  733TIP3   OH223613   4.178   3.352   3.292 -0.2369 -0.4170  0.1413
  733TIP3    H123614   4.207   3.363   3.201  0.2131 -1.7108  0.1139
  733TIP3    H223615   4.177   3.441   3.328  1.1583 -0.0640 -0.6460
  734TIP3   OH223616   1.356   0.314  10.711 -0.8780 -0.1716  0.5584
  734TIP3    H123617   1.279   0.339  10.661 -1.1255 -0.6410  0.6990
  734TIP3    H223618   1.388   0.235  10.667 -1.2375 -0.7260  1.2853
  735TIP3   OH223619   0.512   0.224   1.587 -0.2969  0.0485  0.4386
  735TIP3    H123620   0.499   0.148   1.643 -3.5033  0.9704  1.0180
  735TIP3    H223621   0.545   0.292   1.646 -0.0676 -0.0744  0.4530
  736TIP3   OH223622   4.586   5.769  16.000  0.2274 -0.1935  0.4053
  736TIP3    H123623   4.612   5.787  16.091 -0.8104  0.4439  0.5905
  736TIP3    H223624   4.648   5.703  15.970  0.5419 -0.4572  1.6013
  737TIP3   OH223625   6.281   0.755  14.539  0.1939 -0.3964 -0.0195
  737TIP3    H123626   6.203   0.800  14.506  0.6728 -0.2870 -1.0179
  737TIP3    H223627   6.336   0.825  14.573  1.0023 -0.2027 -1.7044
  738TIP3   OH223628   4.611   1.076  16.271  0.0731 -0.8539 -0.1961
  738TIP3    H123629   4.694   1.095  16.316  0.1375 -1.0436 -0.2322
  738TIP3    H223630   4.560   1.156  16.280  0.8794 -0.1539 -1.5743
  739TIP3   OH223631   1.982   4.950  12.701 -0.0647  0.2969  0.0245
  739TIP3    H123632   1.944   4.923  12.784 -0.1665 -1.4480 -0.5752
  739TIP3    H223633   2.069   4.910  12.700  0.3239  1.1369 -0.2712
  740TIP3   OH223634   1.296   4.796  13.300 -0.3960  0.2799  0.0092
  740TIP3    H123635   1.264   4.723  13.352 -1.3843  0.0268 -0.9335
  740TIP3    H223636   1.267   4.874  13.347  0.3744  0.0703  0.8417
  741TIP3   OH223637   3.288   0.401  14.754  0.0148 -0.0949  0.1444
  741TIP3    H123638   3.363   0.364  14.707  0.0459  0.1671 -0.0121
  741TIP3    H223639   3.223   0.331  14.754 -0.3683  0.2536 -1.1767
  742TIP3   OH223640   6.290   1.723   6.014 -0.3474 -0.1674 -0.2817
  742TIP3    H123641   6.368   1.761   5.975 -0.3818 -0.2937 -0.4734
  742TIP3    H223642   6.323   1.674   6.090 -0.0809 -1.3571 -1.1596
  743TIP3   OH223643   1.042   5.998  15.693 -0.1309  0.0571  0.4258
  743TIP3    H123644   0.999   6.077  15.725  2.6984  1.6423  0.4839
  743TIP3    H223645   0.982   5.963  15.627 -1.5300  2.1496  0.5437
  744TIP3   OH223646   6.547   5.442  16.697  0.0356 -0.2331  0.2667
  744TIP3    H123647   6.577   5.494  16.772 -2.2682  0.9091  0.4572
  744TIP3    H223648   6.607   5.465  16.627  1.2311 -0.0521  1.3250
  745TIP3   OH223649   1.399   3.356  13.480 -0.2813 -0.0818 -0.1033
  745TIP3    H123650   1.439   3.443  13.481  2.4597 -1.2825  1.9357
  745TIP3    H223651   1.418   3.322  13.393  0.7355  0.4761 -0.1132
  746TIP3   OH223652   5.777   5.532   1.770 -0.7259  0.0421  0.6072
  746TIP3    H123653   5.707   5.487   1.722 -1.0587 -0.7125  1.7957
  746TIP3    H223654   5.789   5.614   1.722 -0.0316 -1.3498 -1.6546
  747TIP3   OH223655   3.614   2.961   0.913 -0.1265  0.2100 -0.0820
  747TIP3    H123656   3.650   2.973   1.001 -0.0359 -0.6835  0.0063
  747TIP3    H223657   3.577   3.046   0.891 -0.1875  0.4302  0.8425
  748TIP3   OH223658   3.254   3.132  13.560  0.1104  0.0462 -0.1778
  748TIP3    H123659   3.344   3.137  13.594 -0.1686  0.8611  0.4588
  748TIP3    H223660   3.200   3.116  13.638 -0.4841  1.4428 -0.2907
  749TIP3   OH223661   3.496   1.834   5.905 -0.7170 -0.2334 -0.0893
  749TIP3    H123662   3.552   1.815   5.980 -1.1938 -0.7912  0.1298
  749TIP3    H223663   3.458   1.920   5.924  0.6595  0.5200 -0.6076
  750TIP3   OH223664   2.815   0.787  15.948 -0.1898  0.1903 -0.1333
  750TIP3    H123665   2.796   0.812  16.038 -1.8346  1.8966 -0.9255
  750TIP3    H223666   2.865   0.861  15.912 -1.0213  0.2953 -1.1111
  751TIP3   OH223667   2.372   3.941  12.828  0.2030  0.8391  0.4409
  751TIP3    H123668   2.406   3.864  12.782  1.8070  0.3758  2.2942
  751TIP3    H223669   2.386   3.921  12.921  0.1878  3.1600  0.9723
  752TIP3   OH223670   5.372   3.426  13.690  0.2795 -0.3571 -0.6684
  752TIP3    H123671   5.394   3.441  13.782  0.4164  1.9377 -1.0434
  752TIP3    H223672   5.276   3.430  13.687  0.3157  0.9237 -0.7973
  753TIP3   OH223673   5.162   5.678  10.590  0.6298 -1.3471 -0.2721
  753TIP3    H123674   5.195   5.767  10.598 -2.6621  0.1897 -2.4834
  753TIP3    H223675   5.199   5.645  10.508  0.1885 -1.2389 -0.5171
  754TIP3   OH223676   4.660   1.383  14.146  0.1895 -0.1191 -0.2286
  754TIP3    H123677   4.638   1.410  14.235 -0.0862  0.3944 -0.4473
  754TIP3    H223678   4.754   1.367  14.148 -0.1432 -2.1019  0.6608
  755TIP3   OH223679   4.845   4.355   4.063  0.0375  0.0979 -0.7871
  755TIP3    H123680   4.801   4.312   4.137 -0.7326 -0.2548 -1.4438
  755TIP3    H223681   4.888   4.284   4.016 -0.5922  0.1348 -1.4335
  756TIP3   OH223682   6.319   5.131  10.894 -0.3646  0.2697  0.2760
  756TIP3    H123683   6.345   5.154  10.805 -0.2133  1.1874  0.5481
  756TIP3    H223684   6.364   5.049  10.913 -0.5940 -0.0523 -0.5845
  757TIP3   OH223685   5.236   4.970   4.623  0.0222  0.1075 -0.3260
  757TIP3    H123686   5.283   5.009   4.550  1.1669 -1.3288 -0.3918
  757TIP3    H223687   5.177   5.038   4.654  0.6446  1.2351 -1.6010
  758TIP3   OH223688   5.660   5.932  14.898 -0.4972  0.0410  0.2792
  758TIP3    H123689   5.708   5.856  14.864 -1.1401  0.4192 -1.5540
  758TIP3    H223690   5.704   5.953  14.980  1.6919 -0.3855 -0.7295
  759TIP3   OH223691   1.661   2.282  12.489 -0.1787 -0.0040  0.4806
  759TIP3    H123692   1.749   2.244  12.486 -0.7436 -1.3681  1.0926
  759TIP3    H223693   1.630   2.265  12.577 -0.6483  1.4493  0.6173
  760TIP3   OH223694   5.148   2.434   6.301 -0.5495  0.4520 -0.5535
  760TIP3    H123695   5.229   2.451   6.349  0.4905 -0.4250 -1.9650
  760TIP3    H223696   5.156   2.485   6.221 -1.7293  0.9321 -0.3810
  761TIP3   OH223697   3.366   6.770   4.280 -0.6684  0.1771  0.2901
  761TIP3    H123698   3.332   6.698   4.333 -0.7695 -1.2482 -1.6410
  761TIP3    H223699   3.451   6.791   4.320 -1.7168  0.6446  2.3313
  762TIP3   OH223700   5.763   0.121   0.199 -0.3973 -0.0363 -0.4389
  762TIP3    H123701   5.686   0.064   0.193 -0.4950  0.1045 -0.5146
  762TIP3    H223702   5.735   0.203   0.158 -0.8502  0.7050  1.2976
  763TIP3   OH223703   3.910   4.664  12.378  0.2399  0.3434 -0.4586
  763TIP3    H123704   3.997   4.703  12.388  0.5485 -0.0800 -1.4222
  763TIP3    H223705   3.919   4.577  12.416 -0.3514  1.0660  1.3660
  764TIP3   OH223706   4.011   5.331  13.690  0.3476 -0.2326 -0.0440
  764TIP3    H123707   4.015   5.328  13.595  5.1487 -1.2688  0.0313
  764TIP3    H223708   4.012   5.239  13.718 -0.4168  0.0615  0.9922
  765TIP3   OH223709   0.963   0.283   6.200  0.1945  0.3501 -0.3145
  765TIP3    H123710   0.896   0.303   6.266 -2.3125  0.3355 -2.7478
  765TIP3    H223711   1.023   0.223   6.244 -1.7121 -0.0924  1.7943
  766TIP3   OH223712   1.244   6.493   5.631 -0.3739  0.0216  0.3078
  766TIP3    H123713   1.295   6.414   5.615  1.7190  1.5747 -0.7956
  766TIP3    H223714   1.272   6.522   5.718  0.8322  1.0258 -0.4131
  767TIP3   OH223715   1.450   5.866  11.517  0.2028 -0.1985 -0.0654
  767TIP3    H123716   1.434   5.946  11.566  5.2300  1.3216 -0.6250
  767TIP3    H223717   1.376   5.860  11.457 -0.3151  4.1385 -0.0503
  768TIP3   OH223718   2.820   1.963  14.345  0.3082 -0.0487  0.1840
  768TIP3    H123719   2.819   1.881  14.296  0.5156  0.0086  0.0812
  768TIP3    H223720   2.898   2.009  14.313 -0.4725  0.7163 -0.6127
  769TIP3   OH223721   5.733   0.387   0.496 -0.5705 -0.7093  0.1180
  769TIP3    H123722   5.806   0.430   0.452 -0.8360 -0.0275  0.3382
  769TIP3    H223723   5.772   0.313   0.541  0.1248  0.1318  0.9157
  770TIP3   OH223724   5.522   0.964   0.546 -0.6169  0.4691 -0.0172
  770TIP3    H123725   5.445   0.964   0.602 -0.0666 -1.5652  0.8126
  770TIP3    H223726   5.518   0.880   0.500 -0.4602  1.6335 -2.1996
  771TIP3   OH223727   4.543   5.038  15.176 -0.4093  0.5099 -0.4613
  771TIP3    H123728   4.496   5.048  15.093 -2.1424  0.4966  0.4875
  771TIP3    H223729   4.473   5.030  15.242  0.9310 -1.2089  0.7883
  772TIP3   OH223730   4.747   6.307   1.894  0.2388  0.0246  0.2511
  772TIP3    H123731   4.658   6.286   1.864  0.5945  2.0852 -2.5362
  772TIP3    H223732   4.771   6.234   1.951 -3.0994 -0.7539  0.8017
  773TIP3   OH223733   0.495   4.547   4.268  0.1897  0.3081 -0.4382
  773TIP3    H123734   0.588   4.550   4.290  0.6037 -0.5376 -1.9939
  773TIP3    H223735   0.476   4.633   4.231  0.7211 -0.0020 -1.4615
  774TIP3   OH223736   6.279   4.879   2.855  0.5334  0.3912  0.5131
  774TIP3    H123737   6.190   4.859   2.882 -0.1515  0.1168 -1.8826
  774TIP3    H223738   6.316   4.928   2.929 -2.0748  1.8082  0.9374
  775TIP3   OH223739   2.642   4.233   4.261 -0.2319  0.4378 -0.1595
  775TIP3    H123740   2.644   4.329   4.259  0.5716  0.4582  1.1427
  775TIP3    H223741   2.733   4.207   4.271 -0.5774 -0.4026  0.9816
  776TIP3   OH223742   2.427   2.986   2.054  0.3297 -0.3140 -0.0471
  776TIP3    H123743   2.473   2.938   1.985 -0.4594  0.1422 -0.8941
  776TIP3    H223744   2.375   3.052   2.008  2.1073  1.9832  1.1623
  777TIP3   OH223745   4.865   5.718  16.822 -0.2677  0.4439 -0.2099
  777TIP3    H123746   4.830   5.677  16.743 -0.4984 -0.3350  0.2994
  777TIP3    H223747   4.929   5.655  16.856  0.0821  0.9282  0.0419
  778TIP3   OH223748   3.551   0.901  14.720 -0.0429  0.4937 -0.0029
  778TIP3    H123749   3.516   0.861  14.800 -0.2927  0.8899  0.0876
  778TIP3    H223750   3.478   0.899  14.659  0.7027 -1.6259 -0.9067
  779TIP3   OH223751   6.604   2.541  15.361  0.5320  0.5885  0.2222
  779TIP3    H123752   6.638   2.540  15.271  0.7134  2.1236  0.2687
  779TIP3    H223753   6.679   2.521  15.416  0.2962 -0.9598  0.0078
  780TIP3   OH223754   3.159   3.142   4.040 -0.2396  0.0713 -0.0012
  780TIP3    H123755   3.090   3.180   3.986 -0.2329 -1.1247 -0.8887
  780TIP3    H223756   3.205   3.217   4.077  0.5976  0.9650 -2.7142
  781TIP3   OH223757   6.091   6.122  16.512  0.6691 -0.4504  0.1187
  781TIP3    H123758   6.161   6.105  16.448  0.2829 -1.5723 -0.0122
  781TIP3    H223759   6.077   6.038  16.555 -1.6894 -0.6525 -0.9491
  782TIP3   OH223760   6.762   3.990   1.724 -0.1827 -0.0250 -0.1001
  782TIP3    H123761   6.746   3.968   1.816 -2.0914  0.1729 -0.3659
  782TIP3    H223762   6.707   3.928   1.675  3.7957 -2.8310 -1.3053
  783TIP3   OH223763   0.128   1.080   4.838 -0.2106  0.3945  0.0042
  783TIP3    H123764   0.059   1.029   4.881 -1.3575 -0.5309 -2.7876
  783TIP3    H223765   0.090   1.167   4.825  0.4824  0.9628  1.6532
  784TIP3   OH223766   4.083   2.550  11.553 -0.7502  0.3080  0.0460
  784TIP3    H123767   4.007   2.498  11.525  0.0635 -0.6283 -0.4896
  784TIP3    H223768   4.105   2.604  11.477  0.1574 -0.6795 -0.4110
  785TIP3   OH223769   0.043   3.486   0.291 -0.1734 -0.4586 -0.1836
  785TIP3    H123770   0.054   3.394   0.267  0.5191 -0.0140 -1.6311
  785TIP3    H223771  -0.010   3.523   0.221  0.7256  0.5614 -0.3353
  786TIP3   OH223772   0.423   1.646  11.950 -0.3535 -0.1461  0.1829
  786TIP3    H123773   0.409   1.580  12.018 -0.1575  0.1147  0.4803
  786TIP3    H223774   0.442   1.726  11.998 -0.8212  0.1832 -0.1711
  787TIP3   OH223775   1.157   4.297   2.762  0.7026  0.3307 -0.3971
  787TIP3    H123776   1.124   4.380   2.728 -0.9344  0.4011  1.2769
  787TIP3    H223777   1.103   4.231   2.718 -1.1772  0.4063  1.7013
  788TIP3   OH223778   0.478   1.157   4.992 -0.4520 -0.0895  0.0319
  788TIP3    H123779   0.474   1.179   4.899 -1.8059  0.5720  0.2359
  788TIP3    H223780   0.399   1.195   5.029  0.1645 -0.2045  1.4934
  789TIP3   OH223781   5.015   1.799   2.909  1.0187 -0.0154  0.1726
  789TIP3    H123782   4.921   1.799   2.930  1.0336 -1.0431  0.2601
  789TIP3    H223783   5.051   1.869   2.963  0.4816 -0.3450  0.9744
  790TIP3   OH223784   1.922   6.631  13.726  0.3778 -0.2892  0.0622
  790TIP3    H123785   1.914   6.725  13.741 -1.9595 -0.4595  0.0345
  790TIP3    H223786   1.908   6.591  13.812 -1.6035 -0.7209 -0.4238
  791TIP3   OH223787   1.881   0.058   0.519  0.2550  0.1845 -0.0574
  791TIP3    H123788   1.958   0.113   0.531 -0.7009  1.6797 -0.5544
  791TIP3    H223789   1.861   0.025   0.606  1.4164 -0.1543  0.0838
  792TIP3   OH223790   3.132   4.743   5.501 -0.1043  0.1071 -0.6151
  792TIP3    H123791   3.055   4.784   5.464  0.9337  1.7196 -1.0480
  792TIP3    H223792   3.176   4.813   5.550 -0.5265 -1.5136  2.2460
  793TIP3   OH223793   2.763   3.151   3.002 -0.1761 -1.4502 -0.0564
  793TIP3    H123794   2.700   3.147   2.930  0.2677 -1.6996 -0.4334
  793TIP3    H223795   2.770   3.244   3.022 -0.5507 -1.4080 -0.1088
  794TIP3   OH223796   0.530   5.523  14.800  0.1331  0.1092  0.5592
  794TIP3    H123797   0.597   5.505  14.866 -0.9449 -0.6863  1.4416
  794TIP3    H223798   0.454   5.473  14.828 -0.5295  0.2213 -0.9795
  795TIP3   OH223799   2.301   0.366   6.392  0.4372 -0.3296  0.2953
  795TIP3    H123800   2.314   0.448   6.344 -0.7178  0.4286  1.2469
  795TIP3    H223801   2.384   0.319   6.383  1.9355  1.9707  1.6817
  796TIP3   OH223802   1.039   3.457   4.029 -0.3425  0.6103  0.2341
  796TIP3    H123803   1.086   3.539   4.045 -1.0253  0.7126  1.8897
  796TIP3    H223804   1.103   3.389   4.050 -0.2823  0.7372  0.4725
  797TIP3   OH223805   0.453   4.667  16.241 -0.0184  0.1682  0.2300
  797TIP3    H123806   0.443   4.760  16.261  0.8986  0.0143  1.4489
  797TIP3    H223807   0.547   4.650  16.251  0.0082 -0.6284 -1.1636
  798TIP3   OH223808   3.989   2.323   3.908 -0.1470 -0.0121 -0.1821
  798TIP3    H123809   4.075   2.364   3.900  0.8519 -1.9742  0.0968
  798TIP3    H223810   3.937   2.360   3.836  1.0550  0.8557 -0.6111
  799TIP3   OH223811   3.723   1.566   0.728  0.6950  0.1604 -1.1234
  799TIP3    H123812   3.630   1.567   0.750  0.7970  1.2495 -0.7331
  799TIP3    H223813   3.729   1.611   0.644  0.5716 -2.1519 -2.4323
  800TIP3   OH223814   5.055   0.759  16.958 -0.4392 -0.2865 -0.0754
  800TIP3    H123815   5.088   0.670  16.968  1.1370  0.3972  0.9196
  800TIP3    H223816   4.960   0.750  16.971 -0.5847 -2.1284 -2.1577
  801TIP3   OH223817   3.079   1.912   1.931 -0.1185  0.2508  0.7918
  801TIP3    H123818   3.131   1.832   1.924 -0.7758 -0.2053  1.0933
  801TIP3    H223819   3.016   1.906   1.859  0.6150  1.0827  0.0680
  802TIP3   OH223820   3.256   0.903  10.716  0.2483 -0.1146 -0.1374
  802TIP3    H123821   3.313   0.963  10.668  1.8333 -3.4355 -2.6328
  802TIP3    H223822   3.206   0.858  10.648  0.2307 -2.7239  1.5207
  803TIP3   OH223823   6.473   4.189   2.945  0.0899 -0.3881  0.3293
  803TIP3    H123824   6.379   4.202   2.958  0.0695  0.3874 -0.5538
  803TIP3    H223825   6.512   4.275   2.959  0.5595 -0.4906 -0.2906
  804TIP3   OH223826   6.203   2.418   2.443  0.1619  0.1061 -0.3229
  804TIP3    H123827   6.261   2.353   2.481 -0.8376 -1.7830 -1.9000
  804TIP3    H223828   6.115   2.383   2.459 -0.3669  0.8596 -1.5444
  805TIP3   OH223829   2.104   3.031  13.909  0.0971  0.1848  0.1402
  805TIP3    H123830   2.022   3.057  13.867 -0.4585 -1.6373  0.0723
  805TIP3    H223831   2.146   2.972  13.847  0.9965  0.3323  0.5938
  806TIP3   OH223832   6.083   6.221   5.151  0.1974  0.7571 -0.2885
  806TIP3    H123833   6.151   6.270   5.104  0.2160 -0.7749 -1.9159
  806TIP3    H223834   6.018   6.202   5.084 -0.3983 -0.3769  0.6014
  807TIP3   OH223835   1.728   5.839  11.528 -0.4639 -1.0459  0.5972
  807TIP3    H123836   1.773   5.836  11.613  0.7362 -3.2509 -0.0857
  807TIP3    H223837   1.636   5.826  11.550 -0.4457  0.5435  1.7387
  808TIP3   OH223838   3.315   6.302  11.721 -0.4170 -0.0483 -0.3275
  808TIP3    H123839   3.349   6.390  11.737 -1.8476  0.2851  1.0448
  808TIP3    H223840   3.348   6.249  11.794 -1.7654  0.0046  0.3507
  809TIP3   OH223841   6.238   1.491   0.409  0.0778  0.5707 -0.3813
  809TIP3    H123842   6.317   1.536   0.380  0.6332  0.7580  1.3532
  809TIP3    H223843   6.235   1.507   0.503 -0.7169 -1.4729 -0.0399
  810TIP3   OH223844   3.875   5.344   4.915  0.2517  0.6376 -0.0935
  810TIP3    H123845   3.907   5.312   4.999  0.9642  0.6024 -0.3822
  810TIP3    H223846   3.926   5.423   4.898 -0.5481  1.1780 -0.0462
  811TIP3   OH223847   0.644   6.075  11.273 -0.3422 -0.1675  0.0954
  811TIP3    H123848   0.637   6.034  11.187  0.4067  0.0377 -0.0698
  811TIP3    H223849   0.619   6.166  11.258  0.2228 -0.0251  0.0012
  812TIP3   OH223850   4.142   0.895   1.082 -0.0666 -0.4460 -0.0723
  812TIP3    H123851   4.092   0.967   1.045 -0.6392 -1.3140 -1.0113
  812TIP3    H223852   4.226   0.934   1.107 -0.4985  0.6044 -0.2527
  813TIP3   OH223853   5.353   2.822  14.417  0.5987 -0.2340  0.7383
  813TIP3    H123854   5.308   2.875  14.483  1.4095 -0.5833  1.5757
  813TIP3    H223855   5.424   2.878  14.386  1.4106 -0.7815  1.5702
  814TIP3   OH223856   0.036   1.285   0.521 -0.3149  0.1939 -0.5150
  814TIP3    H123857  -0.043   1.330   0.491 -0.6174 -0.5509 -0.8444
  814TIP3    H223858   0.017   1.192   0.508  1.9231  0.1014 -3.9806
  815TIP3   OH223859   4.754   0.993   5.952  0.2454 -0.1816  0.2376
  815TIP3    H123860   4.673   0.947   5.973 -0.4185  0.6078 -0.5340
  815TIP3    H223861   4.821   0.949   6.004 -0.6316 -1.0169  0.6781
  816TIP3   OH223862   2.960   1.527   5.209  0.5309 -0.0364 -0.1982
  816TIP3    H123863   2.957   1.554   5.118 -0.7797  1.1493  0.1771
  816TIP3    H223864   3.054   1.520   5.230  0.8449  1.3002 -1.1573
  817TIP3   OH223865   3.635   5.153  15.034  0.7040 -0.4906  0.0708
  817TIP3    H123866   3.712   5.182  14.985  0.9696 -3.0784 -1.1052
  817TIP3    H223867   3.579   5.113  14.969 -1.4036  0.8045  1.0343
  818TIP3   OH223868   2.542   1.519  16.993 -0.3549 -0.0046  0.5645
  818TIP3    H123869   2.542   1.444  17.053  0.6852 -0.3068  0.2025
  818TIP3    H223870   2.592   1.488  16.917 -1.2033  0.5501 -0.2339
  819TIP3   OH223871   6.725   6.041  16.804  0.2138  0.0741  0.0045
  819TIP3    H123872   6.701   6.005  16.718  0.2632  0.0389  0.0049
  819TIP3    H223873   6.723   6.136  16.791  0.9967  0.0593 -0.2482
  820TIP3   OH223874   5.510   6.112  13.435  0.4182 -0.2295  0.1796
  820TIP3    H123875   5.586   6.096  13.379 -1.1716  1.1354 -2.4493
  820TIP3    H223876   5.502   6.207  13.438 -1.1920 -0.3632  0.4309
  821TIP3   OH223877   2.157   5.961  13.835  0.2419  0.3762  0.1824
  821TIP3    H123878   2.092   5.902  13.873  0.6390 -0.1002  0.1388
  821TIP3    H223879   2.239   5.937  13.880  0.9801 -1.0707 -1.8682
  822TIP3   OH223880   5.547   0.013   3.246  0.2962 -0.4695 -0.2991
  822TIP3    H123881   5.595   0.095   3.261  0.0285 -0.2055 -0.8506
  822TIP3    H223882   5.479   0.037   3.183 -0.6492 -0.8015  0.5782
  823TIP3   OH223883   4.618   3.994  16.450 -0.2039  0.5792 -0.3422
  823TIP3    H123884   4.698   3.988  16.502 -0.6687  1.2522  0.4710
  823TIP3    H223885   4.588   4.085  16.461 -0.6096  0.5788 -1.3374
  824TIP3   OH223886   5.749   4.863  15.999 -0.3205 -0.5412 -0.2360
  824TIP3    H123887   5.716   4.788  16.047 -0.5353 -0.7438 -0.6936
  824TIP3    H223888   5.676   4.888  15.942 -0.6298  0.6558  0.6620
  825TIP3   OH223889   1.447   5.170  16.731 -0.2104 -0.3206  0.2548
  825TIP3    H123890   1.407   5.196  16.648  1.1488  1.0202  0.0074
  825TIP3    H223891   1.373   5.167  16.793 -1.1660 -0.9765 -0.8976
  826TIP3   OH223892   4.599   3.202  13.247  0.1839 -0.4690  0.1008
  826TIP3    H123893   4.593   3.169  13.337 -0.4792 -0.9931 -0.1265
  826TIP3    H223894   4.560   3.132  13.194 -0.6597  0.4047 -0.4506
  827TIP3   OH223895   3.099   4.605   5.741  0.1888 -0.2953 -0.3564
  827TIP3    H123896   3.017   4.649   5.764 -1.8318 -3.2987 -1.5210
  827TIP3    H223897   3.127   4.648   5.659  0.2122  1.2134  0.4140
  828TIP3   OH223898   0.725   3.533  11.019 -0.4245 -0.2595 -0.0319
  828TIP3    H123899   0.801   3.574  11.061  0.4076 -0.9954 -0.8123
  828TIP3    H223900   0.703   3.592  10.947  0.7964 -1.1905 -1.1779
  829TIP3   OH223901   2.136   3.511  12.154  0.3855  0.0919  0.0091
  829TIP3    H123902   2.210   3.450  12.154  0.8987  0.7014  0.6012
  829TIP3    H223903   2.061   3.458  12.129  0.5465 -1.1310  1.9942
  830TIP3   OH223904   2.474   3.622  16.808  0.3233  0.1597  0.5068
  830TIP3    H123905   2.566   3.598  16.818  0.6159  0.5047 -1.1771
  830TIP3    H223906   2.471   3.715  16.828  1.0550  1.0415 -3.2260
  831TIP3   OH223907   4.145   4.520   0.498  0.0504  0.0449 -0.1275
  831TIP3    H123908   4.057   4.550   0.521 -0.3072 -1.5941  0.7422
  831TIP3    H223909   4.152   4.434   0.540  2.1678  0.2797  0.0254
  832TIP3   OH223910   6.509   5.939   0.639  0.6401  0.2793 -0.2465
  832TIP3    H123911   6.511   5.856   0.592 -1.5939 -1.5638  2.7207
  832TIP3    H223912   6.422   5.974   0.623  0.9879  1.2451 -0.0839
  833TIP3   OH223913   1.945   0.398   0.751  0.3438 -0.2292  0.1304
  833TIP3    H123914   2.002   0.341   0.700 -0.6235 -0.9827 -0.1309
  833TIP3    H223915   1.998   0.475   0.770  1.6153 -1.1502  0.3547
  834TIP3   OH223916   2.782   3.069  14.580  0.2127  0.3716 -0.3936
  834TIP3    H123917   2.719   3.000  14.600  1.1160  0.1721  1.9377
  834TIP3    H223918   2.744   3.148  14.618  0.6571  0.5329 -0.2828
  835TIP3   OH223919   0.060   4.889   2.632  0.3742  0.2664 -0.3589
  835TIP3    H123920   0.148   4.920   2.652  0.8218 -1.1847  0.0057
  835TIP3    H223921   0.073   4.805   2.587 -0.8008  0.1364 -0.4824
  836TIP3   OH223922   3.581   6.334   3.128  0.0656 -0.1300  0.5693
  836TIP3    H123923   3.655   6.273   3.121  0.8658  0.9261 -0.4194
  836TIP3    H223924   3.552   6.347   3.037 -0.7959  0.1158  0.8718
  837TIP3   OH223925   5.667   1.608   3.646  0.8361  0.1084 -0.0726
  837TIP3    H123926   5.652   1.514   3.661  1.0702  0.0558 -0.1616
  837TIP3    H223927   5.582   1.648   3.660  1.3206  0.2357  2.8227
  838TIP3   OH223928   0.417   2.326   3.073  0.1438 -0.0991 -0.3335
  838TIP3    H123929   0.324   2.346   3.079  0.0809  0.6933 -3.2256
  838TIP3    H223930   0.458   2.410   3.049  1.6485 -0.3951  1.0575
  839TIP3   OH223931   5.007   3.292  16.823  0.0990  0.2199  0.5150
  839TIP3    H123932   5.062   3.322  16.750  1.9109  0.7432  2.0481
  839TIP3    H223933   4.955   3.369  16.846 -2.0388 -0.5337 -1.5382
  840TIP3   OH223934   0.919   4.900  13.408  0.2492  0.1608 -0.7258
  840TIP3    H123935   0.950   4.964  13.344 -0.0427 -0.5728 -1.6059
  840TIP3    H223936   0.873   4.834  13.356  0.0256 -0.4519  0.2349
  841TIP3   OH223937   0.031   6.343  12.952 -0.4762  0.3240 -0.8640
  841TIP3    H123938   0.069   6.387  12.875 -0.0600  0.1536 -0.7569
  841TIP3    H223939  -0.064   6.356  12.942 -0.3545  1.3306 -0.7822
  842TIP3   OH223940   0.147   1.519  15.632 -0.1346 -0.3967 -0.2181
  842TIP3    H123941   0.053   1.506  15.644 -0.1936  0.2454  0.0275
  842TIP3    H223942   0.154   1.583  15.561  0.1331 -0.9000 -0.6562
  843TIP3   OH223943   2.202   1.610  15.857 -0.2919  0.3698  0.4106
  843TIP3    H123944   2.123   1.559  15.842  0.7573 -1.0926 -0.2556
  843TIP3    H223945   2.173   1.686  15.908 -1.8316 -1.0056  1.6253
  844TIP3   OH223946   4.207   0.397  11.142  0.1960  0.0176 -0.5949
  844TIP3    H123947   4.219   0.364  11.231  2.3968 -0.6971 -1.1091
  844TIP3    H223948   4.202   0.318  11.088  1.1308  0.4545 -1.3432
  845TIP3   OH223949   6.418   5.952   5.139 -0.1148 -0.2312  1.0303
  845TIP3    H123950   6.356   5.944   5.066 -1.3735 -0.3793  2.0989
  845TIP3    H223951   6.484   6.015   5.108 -0.2654 -0.7720 -0.4719
  846TIP3   OH223952   3.665   4.197  11.571 -0.8513 -0.2211  0.2927
  846TIP3    H123953   3.717   4.205  11.491 -0.5925 -0.6496  0.4142
  846TIP3    H223954   3.608   4.122  11.556  0.5370 -1.5126  1.2352
  847TIP3   OH223955   3.027   6.422  14.991 -0.2343  0.2095 -0.6447
  847TIP3    H123956   3.116   6.392  15.009  0.3419  0.6972 -2.5957
  847TIP3    H223957   2.993   6.359  14.928 -0.9774  0.5089 -0.5497
  848TIP3   OH223958   1.063   6.428   1.063 -0.1120 -0.4074 -0.3902
  848TIP3    H123959   1.068   6.340   1.026 -1.1529 -1.1015  1.0682
  848TIP3    H223960   1.034   6.483   0.990 -1.9202 -1.7159 -0.6818
  849TIP3   OH223961   0.634   0.664   3.060 -0.3387 -0.8626  0.2975
  849TIP3    H123962   0.729   0.664   3.063 -0.2398  0.3300 -1.5256
  849TIP3    H223963   0.612   0.597   2.995 -0.5613  1.1436 -1.7687
  850TIP3   OH223964   3.362   6.511  12.127 -0.1272 -0.0836 -0.3531
  850TIP3    H123965   3.271   6.493  12.104  0.2692 -3.0860  0.1813
  850TIP3    H223966   3.359   6.529  12.221 -0.1793 -0.3471 -0.3013
  851TIP3   OH223967   5.963   3.057  13.922  0.2447 -0.2748  0.2752
  851TIP3    H123968   5.887   2.999  13.916 -0.7114  0.9532  0.2780
  851TIP3    H223969   6.020   3.015  13.987 -0.8115 -0.7949  0.8865
  852TIP3   OH223970   2.608   5.513  13.628 -0.5379 -0.1918  0.3295
  852TIP3    H123971   2.597   5.443  13.693  0.6738 -0.6431  0.0790
  852TIP3    H223972   2.684   5.485  13.577  0.4013  1.6380  0.6573
  853TIP3   OH223973   5.426   0.998   3.560 -0.2307 -0.5255  0.1806
  853TIP3    H123974   5.470   1.075   3.523  1.0714 -1.8728 -1.1106
  853TIP3    H223975   5.337   1.003   3.528 -0.4019  0.9305  0.8412
  854TIP3   OH223976   2.780   6.019   3.007  0.3828  0.5920 -0.2685
  854TIP3    H123977   2.836   6.090   3.039  0.9431  0.9787 -2.0422
  854TIP3    H223978   2.698   6.062   2.982  0.3839  0.4746 -0.4736
  855TIP3   OH223979   0.544   4.479  11.694 -0.0327  0.1205 -0.3707
  855TIP3    H123980   0.554   4.537  11.769 -0.5834 -0.3873  0.0986
  855TIP3    H223981   0.539   4.391  11.732 -0.5844 -0.1165 -0.9841
  856TIP3   OH223982   5.061   3.001  17.164 -0.5646 -0.4294 -0.4291
  856TIP3    H123983   5.026   3.002  17.075  0.0104 -0.0735 -0.6572
  856TIP3    H223984   5.074   2.908  17.183 -0.5910 -0.5018 -0.7569
  857TIP3   OH223985   5.600   3.623  13.737  0.9365 -0.2861  0.0701
  857TIP3    H123986   5.610   3.575  13.819  1.1871  1.2273  0.9411
  857TIP3    H223987   5.506   3.619  13.718  0.8349 -0.3895  0.5740
  858TIP3   OH223988   6.178   4.042  12.541  0.2826 -0.1236  0.5194
  858TIP3    H123989   6.253   4.096  12.517 -0.6314  0.5794 -0.8337
  858TIP3    H223990   6.190   4.023  12.634  2.1239 -0.0128  0.3213
  859TIP3   OH223991   1.883   6.016   4.731  0.4192 -0.0126  0.0875
  859TIP3    H123992   1.819   6.023   4.802  0.0216 -0.2737 -0.2429
  859TIP3    H223993   1.839   5.964   4.664  1.0304 -0.3138 -0.0841
  860TIP3   OH223994   3.227   3.639   6.548 -0.1279  0.2941 -0.0178
  860TIP3    H123995   3.138   3.605   6.561  0.0718 -0.5805 -0.9082
  860TIP3    H223996   3.219   3.733   6.563 -0.8997  0.0160  1.4460
  861TIP3   OH223997   2.336   1.915   0.565 -0.1950  0.2121  0.2006
  861TIP3    H123998   2.290   1.877   0.640  0.3268  0.4097  0.6269
  861TIP3    H223999   2.333   2.009   0.579 -0.8341  0.2931 -0.4694
  862TIP3   OH224000   3.594   2.575   1.608 -0.0409 -0.4476 -0.6292
  862TIP3    H124001   3.525   2.625   1.564 -1.1054 -1.2518  0.1068
  862TIP3    H224002   3.639   2.639   1.664 -1.5371 -0.3435  0.4817
  863TIP3   OH224003   4.126   3.670   1.174 -0.1776  0.1584 -0.0949
  863TIP3    H124004   4.160   3.622   1.099  0.0914  1.2899 -0.7161
  863TIP3    H224005   4.034   3.644   1.179  0.5748 -2.3658  1.1612
  864TIP3   OH224006   0.906   6.646  12.462  0.1264  0.1173  0.2172
  864TIP3    H124007   0.876   6.559  12.486  1.9046 -0.2771  1.0449
  864TIP3    H224008   0.901   6.697  12.543  3.4018 -0.4569  0.8492
  865TIP3   OH224009   4.145   3.261   0.713  0.4895  0.0338 -0.1668
  865TIP3    H124010   4.168   3.295   0.800  1.3403  0.5747 -0.6029
  865TIP3    H224011   4.089   3.328   0.675 -0.1705 -0.3620  0.0919
  866TIP3   OH224012   1.868   4.144   2.797 -0.4828 -0.0680  0.6337
  866TIP3    H124013   1.815   4.089   2.856  0.0246 -1.0846  0.1630
  866TIP3    H224014   1.805   4.176   2.733 -0.4439 -1.8480 -0.3394
  867TIP3   OH224015   6.337   3.163   5.723 -0.3129  0.0221  0.5869
  867TIP3    H124016   6.422   3.180   5.682  0.5407 -2.1315  1.4191
  867TIP3    H224017   6.273   3.173   5.652  0.4981  2.5613  0.1473
  868TIP3   OH224018   0.082   6.605  12.466  0.9208  0.1409 -0.1194
  868TIP3    H124019   0.010   6.614  12.404  1.0055  2.1141  0.0616
  868TIP3    H224020   0.121   6.519  12.444  0.8643  0.7252 -2.7113
  869TIP3   OH224021   4.446   0.218  14.747  0.2621 -0.4674  0.5501
  869TIP3    H124022   4.459   0.311  14.765 -0.4320 -0.4692  1.1097
  869TIP3    H224023   4.506   0.198  14.676  2.2576 -0.1852  2.1199
  870TIP3   OH224024   4.474   3.838   4.861  0.2702 -0.1230  0.4169
  870TIP3    H124025   4.435   3.876   4.782 -0.3871  0.9287  1.2207
  870TIP3    H224026   4.433   3.887   4.933  2.6604  0.6212  1.3091
  871TIP3   OH224027   2.479   4.826  13.415 -0.2001 -0.8230 -0.2267
  871TIP3    H124028   2.536   4.877  13.357  0.3255 -1.0267  0.1160
  871TIP3    H224029   2.512   4.737  13.410  0.0693 -0.7786  0.6598
  872TIP3   OH224030   1.241   4.600  14.988 -0.1064 -0.1610 -0.4481
  872TIP3    H124031   1.299   4.568  14.919 -1.3661  0.3952 -1.8114
  872TIP3    H224032   1.159   4.621  14.942 -1.8048 -2.0375  1.5627
  873TIP3   OH224033   3.528   2.977   4.239  0.0317 -0.6227 -0.1897
  873TIP3    H124034   3.572   2.898   4.270 -0.5615 -1.7290 -2.0264
  873TIP3    H224035   3.458   2.992   4.302  0.7290 -1.0269  0.6878
  874TIP3   OH224036   3.254   3.565   0.757 -0.2362 -0.1687 -0.0235
  874TIP3    H124037   3.196   3.641   0.752  0.9801  0.8874  1.4926
  874TIP3    H224038   3.195   3.490   0.765 -1.4700  0.5379 -2.1885
  875TIP3   OH224039   2.305   2.082  15.677 -0.2874 -0.0427 -0.0146
  875TIP3    H124040   2.240   2.016  15.653 -0.5463  0.7411 -1.4827
  875TIP3    H224041   2.282   2.159  15.625  1.0730  0.6390  0.3748
  876TIP3   OH224042   0.696   4.037   0.511 -0.5935 -0.0594 -0.1899
  876TIP3    H124043   0.715   4.038   0.417 -1.5789  2.0199 -0.3940
  876TIP3    H224044   0.646   4.117   0.526  0.6946  0.3101  2.3606
  877TIP3   OH224045   0.720   2.653  14.806 -0.7478  0.0019 -0.4485
  877TIP3    H124046   0.754   2.714  14.741 -0.0848  0.3505  0.2182
  877TIP3    H224047   0.682   2.582  14.755  1.7025 -0.8104 -1.2013
  878TIP3   OH224048   4.669   4.703   4.606 -0.0819 -0.0965  0.3995
  878TIP3    H124049   4.668   4.773   4.540  0.2104  0.2539  0.7697
  878TIP3    H224050   4.760   4.700   4.636  0.0059 -0.9300  0.0671
  879TIP3   OH224051   1.068   3.499   0.587 -0.0863 -0.2976  0.2095
  879TIP3    H124052   1.055   3.524   0.495  0.3973 -2.1753 -0.3969
  879TIP3    H224053   0.981   3.506   0.626 -0.1560  1.2640 -0.1866
  880TIP3   OH224054   0.601   6.420  12.096  0.2639 -0.4325  0.0951
  880TIP3    H124055   0.612   6.350  12.031  0.2176  0.5177 -0.9566
  880TIP3    H224056   0.601   6.501  12.044 -0.7139  0.2884  1.1910
  881TIP3   OH224057   2.910   4.087   2.249 -0.1023 -0.1148  0.2860
  881TIP3    H124058   2.894   4.162   2.192 -2.6524  0.1994  1.3499
  881TIP3    H224059   3.004   4.090   2.266  0.0583  2.0440 -0.7655
  882TIP3   OH224060   2.072   2.630  16.923  0.3371  0.3807  0.5319
  882TIP3    H124061   2.031   2.665  16.843 -0.8724 -0.5430  0.7468
  882TIP3    H224062   2.156   2.595  16.893  0.7739  1.8066  0.0043
  883TIP3   OH224063   5.784   1.358   3.705  0.3831  0.6939  0.1119
  883TIP3    H124064   5.816   1.290   3.645 -0.2492 -0.0796  0.6326
  883TIP3    H224065   5.857   1.372   3.765  0.9359  1.3068 -0.6925
  884TIP3   OH224066   5.962   6.093  14.214 -0.1901 -0.1011 -0.0362
  884TIP3    H124067   5.950   6.013  14.265 -0.2169 -0.8592 -1.1979
  884TIP3    H224068   5.874   6.121  14.192 -0.2476  1.1056  1.6285
  885TIP3   OH224069   1.460   4.792  12.990  0.2157  0.1524  0.3688
  885TIP3    H124070   1.450   4.877  13.033  1.1308 -0.2331  1.3748
  885TIP3    H224071   1.402   4.797  12.914  0.6435  1.8737  0.1098
  886TIP3   OH224072   5.922   0.967  12.375 -0.3982 -0.0949 -0.0190
  886TIP3    H124073   6.000   0.948  12.322  0.6757  0.5635  1.3230
  886TIP3    H224074   5.942   1.049  12.420 -1.5999 -0.2762  0.8717
  887TIP3   OH224075   5.035   3.860   3.516  0.1386  0.3709 -0.4220
  887TIP3    H124076   4.984   3.915   3.576  0.7638  1.0750 -0.5162
  887TIP3    H224077   5.023   3.900   3.430  2.0049  1.4483 -0.2272
  888TIP3   OH224078   0.747   4.673   2.548  0.1515 -0.0385 -0.6779
  888TIP3    H124079   0.804   4.708   2.617  0.6048 -1.5341 -0.2633
  888TIP3    H224080   0.806   4.657   2.474 -0.1160  0.4102 -0.9906
  889TIP3   OH224081   3.632   0.856   6.034  0.6552 -0.5164  0.0757
  889TIP3    H124082   3.537   0.869   6.044  0.4842 -1.1821 -0.5780
  889TIP3    H224083   3.663   0.834   6.122  0.5249  1.5943  0.6704
  890TIP3   OH224084   1.871   0.713   0.554  0.3655  0.6316  0.1685
  890TIP3    H124085   1.834   0.644   0.499  0.7177  0.8862 -0.3860
  890TIP3    H224086   1.965   0.698   0.552  0.3519  0.3762  1.0651
  891TIP3   OH224087   5.397   3.428   2.332  0.4790 -0.4301 -0.0931
  891TIP3    H124088   5.451   3.369   2.279 -0.6777 -0.5243 -1.1834
  891TIP3    H224089   5.384   3.382   2.414 -0.4537 -1.7379 -0.9567
  892TIP3   OH224090   3.199   2.152   1.877  0.1603  0.0748 -0.0915
  892TIP3    H124091   3.288   2.155   1.913  0.6400 -1.5833 -1.0690
  892TIP3    H224092   3.163   2.069   1.907 -0.8986  0.5179 -0.0986
  893TIP3   OH224093   1.547   4.291   3.997 -0.0309  0.4362  0.4153
  893TIP3    H124094   1.470   4.244   4.028 -0.4016  1.7991  1.5935
  893TIP3    H224095   1.527   4.310   3.905 -0.2608 -0.8839  0.1719
  894TIP3   OH224096   1.308   0.171   4.939 -0.4554  0.3586  0.4512
  894TIP3    H124097   1.309   0.077   4.956 -0.5062  0.1174 -0.8854
  894TIP3    H224098   1.395   0.201   4.965  0.3076 -0.4156 -1.1710
  895TIP3   OH224099   0.883   0.527   1.634 -0.4120  0.3870 -0.5315
  895TIP3    H124100   0.899   0.619   1.610  0.0050  0.3970 -0.2198
  895TIP3    H224101   0.959   0.480   1.601 -0.1183  0.3126  0.2614
  896TIP3   OH224102   5.889   6.646  17.233 -0.0338  0.3477 -0.0183
  896TIP3    H124103   5.827   6.710  17.197 -0.8101  1.1062  2.4878
  896TIP3    H224104   5.975   6.680  17.209 -0.5415  0.5117 -1.6196
  897TIP3   OH224105   4.525   1.035   2.514  0.0264 -0.5641 -0.5123
  897TIP3    H124106   4.481   1.009   2.595 -0.3356 -0.5447 -0.6981
  897TIP3    H224107   4.534   1.130   2.521  2.4753 -0.8680  0.7206
  898TIP3   OH224108   6.700   1.991   2.940  0.2806  0.2369  0.0507
  898TIP3    H124109   6.794   1.978   2.937  0.1149 -1.0224 -0.1026
  898TIP3    H224110   6.684   2.065   2.882  1.0542 -0.2916 -0.8464
  899TIP3   OH224111   6.168   0.365   5.667 -0.4408  0.0751  0.0675
  899TIP3    H124112   6.149   0.292   5.608 -0.5550 -0.0802  0.2927
  899TIP3    H224113   6.146   0.443   5.617  1.2736  0.0353 -0.7654
  900TIP3   OH224114   6.295   3.628  11.453  0.1957  0.1985  0.0712
  900TIP3    H124115   6.300   3.673  11.369  0.2892 -0.2903 -0.1837
  900TIP3    H224116   6.247   3.689  11.510  0.3890  0.6531 -0.2485
  901TIP3   OH224117   6.167   5.719   5.007 -0.1491 -0.0104  0.1172
  901TIP3    H124118   6.118   5.741   5.086 -0.6663 -0.8964  0.0527
  901TIP3    H224119   6.172   5.623   5.008  0.7612  0.0252 -0.3723
  902TIP3   OH224120   3.874   1.116  15.772 -0.4566 -0.3448  0.2567
  902TIP3    H124121   3.857   1.032  15.730 -2.0994  0.5166 -0.8363
  902TIP3    H224122   3.854   1.101  15.864 -1.5183 -0.9310 -0.0675
  903TIP3   OH224123   1.908   1.458   6.448  0.6656  0.5217  0.2752
  903TIP3    H124124   1.825   1.411   6.444 -0.2634  1.9481  2.0437
  903TIP3    H224125   1.966   1.400   6.497 -0.0233  0.5349  1.1232
  904TIP3   OH224126   1.063   2.801   5.407 -0.0353  0.0122  0.0730
  904TIP3    H124127   1.081   2.709   5.387  2.9011  0.5409  0.0611
  904TIP3    H224128   1.083   2.848   5.325 -1.7660  0.6680 -0.0064
  905TIP3   OH224129   4.609   2.271  17.135 -0.3320  0.4433 -0.0900
  905TIP3    H124130   4.578   2.205  17.197 -1.2719 -0.1423 -1.1506
  905TIP3    H224131   4.679   2.316  17.181 -1.2380  0.2553  1.5249
  906TIP3   OH224132   3.886   0.591   3.599  0.1935  0.1480 -0.5036
  906TIP3    H124133   3.877   0.515   3.542  4.4136 -0.5915 -0.3707
  906TIP3    H224134   3.882   0.555   3.687 -1.6099  0.6603 -0.3508
  907TIP3   OH224135   3.804   4.830   3.163 -0.0987 -0.6463 -0.0660
  907TIP3    H124136   3.790   4.884   3.085  1.2796  0.0463  0.1672
  907TIP3    H224137   3.796   4.740   3.131 -1.0487 -0.3400 -0.7125
  908TIP3   OH224138   3.762   4.440  14.161 -0.4526 -0.1228  0.4280
  908TIP3    H124139   3.704   4.443  14.237 -0.4642 -1.9464  0.5206
  908TIP3    H224140   3.704   4.443  14.086 -0.6471 -1.3268  0.5186
  909TIP3   OH224141   1.375   2.741  13.119  0.2573 -0.1691 -0.2622
  909TIP3    H124142   1.378   2.832  13.091 -0.6311 -0.1313 -0.2713
  909TIP3    H224143   1.380   2.745  13.215  0.7149 -0.1375 -0.2905
  910TIP3   OH224144   5.647   5.654  12.006  0.2489 -0.1145 -0.3070
  910TIP3    H124145   5.704   5.579  12.024  0.7974  0.3986  0.1146
  910TIP3    H224146   5.578   5.648  12.073 -0.6513 -1.1810 -1.2970
  911TIP3   OH224147   0.092   0.278  12.370 -0.4089 -0.3324  0.4384
  911TIP3    H124148   0.184   0.286  12.397 -0.1884  0.1621 -0.4128
  911TIP3    H224149   0.067   0.189  12.394  0.4773 -0.6659  0.1444
  912TIP3   OH224150   6.130   1.543   4.299  0.2171 -0.1016  1.0186
  912TIP3    H124151   6.128   1.531   4.394  0.7423 -1.5898  0.8467
  912TIP3    H224152   6.039   1.562   4.275 -0.2417 -1.4980  1.6031
  913TIP3   OH224153   1.362   3.530   4.262  0.3598 -0.7574  0.3703
  913TIP3    H124154   1.358   3.549   4.168  1.0006  0.5016  0.5847
  913TIP3    H224155   1.427   3.592   4.296 -0.6938 -0.4488  1.8399
  914TIP3   OH224156   4.774   2.541  16.721  0.5045 -0.3294 -0.6003
  914TIP3    H124157   4.824   2.546  16.639  1.0239 -0.4596 -0.2953
  914TIP3    H224158   4.735   2.628  16.730 -0.7768 -0.7683 -1.7415
  915TIP3   OH224159   5.030   3.643  14.974  0.5723  0.1389 -0.6068
  915TIP3    H124160   5.065   3.679  15.056  0.7152  2.1581 -1.5364
  915TIP3    H224161   4.948   3.691  14.960 -0.2893 -1.3478 -0.8285
  916TIP3   OH224162   5.536   4.227  12.342  0.0083  0.2532 -0.2777
  916TIP3    H124163   5.591   4.161  12.384 -1.8704 -1.0343  0.1835
  916TIP3    H224164   5.583   4.250  12.261  0.6851 -1.6207 -0.4255
  917TIP3   OH224165   6.596   4.415   0.019 -0.2333 -0.6009 -0.1808
  917TIP3    H124166   6.597   4.418   0.114 -1.8970 -0.2705 -0.1503
  917TIP3    H224167   6.518   4.465  -0.006 -0.6305 -1.8921 -1.6507
  918TIP3   OH224168   0.714   2.288  12.605 -0.5230  0.7589  0.5012
  918TIP3    H124169   0.721   2.357  12.671 -1.0540 -0.2142  1.6034
  918TIP3    H224170   0.621   2.286  12.582 -0.9955 -1.3093  2.4107
  919TIP3   OH224171   2.500   5.684   2.828 -0.5101 -0.3518 -0.1758
  919TIP3    H124172   2.590   5.653   2.843 -0.0979  0.5867 -0.6727
  919TIP3    H224173   2.474   5.640   2.746 -0.6489 -0.9234  0.1709
  920TIP3   OH224174   4.423   2.962  17.019  0.0272 -0.5995  0.1503
  920TIP3    H124175   4.349   2.911  17.053  0.6863 -0.9319  1.1149
  920TIP3    H224176   4.495   2.943  17.080  0.7328  0.2134 -0.4199
  921TIP3   OH224177   6.402   4.348   6.520 -0.1933  0.3108  0.5174
  921TIP3    H124178   6.496   4.340   6.536 -0.0435  2.2956  0.8539
  921TIP3    H224179   6.396   4.411   6.447 -1.2072 -1.3317 -0.8579
  922TIP3   OH224180   2.657   3.177  11.602  0.1667  0.1779 -0.1962
  922TIP3    H124181   2.710   3.256  11.619 -0.0418  0.1680  0.5221
  922TIP3    H224182   2.721   3.105  11.604  0.4090  0.3623 -1.1902
  923TIP3   OH224183   5.564   2.018  14.819  0.0858 -0.7534 -0.6221
  923TIP3    H124184   5.590   1.997  14.909 -0.6637 -0.6293 -0.3738
  923TIP3    H224185   5.545   2.112  14.821 -0.5818 -0.8830 -0.7490
  924TIP3   OH224186   6.210   6.088   0.896 -0.1472 -0.2850  0.0487
  924TIP3    H124187   6.152   6.011   0.890  0.2551 -0.4380 -2.2335
  924TIP3    H224188   6.294   6.052   0.922 -0.4391 -0.3774  0.8739
  925TIP3   OH224189   6.262   6.656  13.508 -0.3049 -0.0614 -0.2935
  925TIP3    H124190   6.236   6.748  13.505 -0.6576 -0.2015 -2.1132
  925TIP3    H224191   6.179   6.608  13.514 -0.0922 -0.2369  1.2172
  926TIP3   OH224192   3.011   6.022  13.772 -0.7452 -0.0962 -0.0509
  926TIP3    H124193   2.932   6.074  13.754 -1.4046  0.1921  3.4845
  926TIP3    H224194   3.065   6.077  13.828  1.5251 -0.7464 -1.5020
  927TIP3   OH224195   5.723   3.125   5.246 -0.2819 -0.2465 -0.3324
  927TIP3    H124196   5.695   3.120   5.155  0.2370 -3.1209 -0.3827
  927TIP3    H224197   5.792   3.191   5.247  0.6683 -1.1744 -2.2755
  928TIP3   OH224198   4.451   5.376  10.944 -0.5906  0.6406 -0.1772
  928TIP3    H124199   4.547   5.368  10.944 -0.5732  0.8532  0.0289
  928TIP3    H224200   4.432   5.445  10.881 -0.7213 -0.6989 -1.6590
  929TIP3   OH224201   1.047   4.493   1.953  0.0449 -0.0892  0.2091
  929TIP3    H124202   1.122   4.522   1.901 -0.3596  1.1714  0.3089
  929TIP3    H224203   0.971   4.508   1.897 -0.5002  2.2800  1.5332
  930TIP3   OH224204   2.360   3.447   2.893  0.0713 -0.2023  0.4754
  930TIP3    H124205   2.438   3.483   2.935  0.6064  0.5654 -1.1203
  930TIP3    H224206   2.390   3.421   2.805 -0.8137 -2.5549  0.8341
  931TIP3   OH224207   5.734   2.947  13.838 -0.3720  0.0305  0.1069
  931TIP3    H124208   5.726   2.860  13.877 -1.5050 -0.5085 -1.2591
  931TIP3    H224209   5.699   2.936  13.749  0.2309  1.6929 -0.3515
  932TIP3   OH224210   0.099   1.743  12.894 -0.0180 -0.2908  0.5444
  932TIP3    H124211   0.080   1.836  12.884  1.4414  0.0146  0.4479
  932TIP3    H224212   0.133   1.735  12.984  1.1349 -0.4954  0.0981
  933TIP3   OH224213   0.932   1.999   4.664 -0.2274  0.2303 -0.3116
  933TIP3    H124214   0.942   2.007   4.569  0.2968 -0.7227 -0.3408
  933TIP3    H224215   1.020   2.008   4.698 -0.5641  1.7951  0.1919
  934TIP3   OH224216   2.215   3.733   4.170 -0.5087  0.0979  0.5765
  934TIP3    H124217   2.309   3.750   4.176 -0.2045 -1.0871 -0.5625
  934TIP3    H224218   2.179   3.813   4.133  0.1538  0.2658  0.2804
  935TIP3   OH224219   3.285   6.582  13.029  0.1164  0.3274  0.4078
  935TIP3    H124220   3.220   6.608  13.095  1.1023  0.6625  1.2583
  935TIP3    H224221   3.240   6.516  12.977 -0.8779  0.4716  1.0574
  936TIP3   OH224222   1.395   4.491  13.106  0.2719  0.2775 -0.0268
  936TIP3    H124223   1.449   4.555  13.058 -0.0804  1.1930  0.7665
  936TIP3    H224224   1.308   4.530  13.106  0.2728  0.2839  1.3541
  937TIP3   OH224225   3.750   2.029  13.706 -0.1577 -0.4046 -0.0642
  937TIP3    H124226   3.753   2.054  13.613 -0.7999  1.0617  0.2962
  937TIP3    H224227   3.719   2.108  13.751  2.5440 -0.3218  1.7056
  938TIP3   OH224228   1.560   3.406   2.780  0.7613  0.1454  0.6629
  938TIP3    H124229   1.505   3.483   2.769 -0.1146 -0.7588 -1.5730
  938TIP3    H224230   1.542   3.376   2.870  0.1761  1.7930  1.1128
  939TIP3   OH224231   3.754   5.879   5.122 -0.1846  0.3209 -0.2206
  939TIP3    H124232   3.716   5.944   5.063 -0.8882  0.1863  0.0855
  939TIP3    H224233   3.834   5.851   5.078  0.8498  2.3737  0.2589
  940TIP3   OH224234   4.973   5.300   1.405 -0.3665  0.2604 -0.1620
  940TIP3    H124235   4.912   5.362   1.445 -1.5726  0.2252 -1.8856
  940TIP3    H224236   5.052   5.352   1.387 -0.9447  1.0134 -0.5432
  941TIP3   OH224237   2.526   5.979   4.164 -0.3929  0.0698  0.1237
  941TIP3    H124238   2.471   5.924   4.108 -1.6740 -0.5360  1.9545
  941TIP3    H224239   2.465   6.035   4.211  0.6774  0.6032  0.8914
  942TIP3   OH224240   0.847   5.050   0.833 -0.1888  0.2431  0.5896
  942TIP3    H124241   0.889   5.033   0.917  0.6326  2.3562  0.6262
  942TIP3    H224242   0.906   5.111   0.788 -0.6884 -0.7070 -1.4657
  943TIP3   OH224243   5.226   6.251  10.646 -0.4761  0.2909  0.0058
  943TIP3    H124244   5.180   6.174  10.679 -0.8176  0.5974  0.2499
  943TIP3    H224245   5.318   6.234  10.662 -0.6788  0.6791  1.6186
  944TIP3   OH224246   5.581   5.745   0.026 -0.3038 -0.7374 -0.7637
  944TIP3    H124247   5.672   5.716   0.029  0.0889  0.5781  1.7887
  944TIP3    H224248   5.531   5.671   0.060  0.1248 -0.5067  0.4126
  945TIP3   OH224249   2.493   5.459   2.325 -0.4116  0.0055 -0.0312
  945TIP3    H124250   2.411   5.409   2.331 -1.0951  0.8561 -2.0536
  945TIP3    H224251   2.532   5.431   2.242  0.5356  0.8384  0.1283
  946TIP3   OH224252   4.500   6.497  11.650  0.1919 -0.4751  0.9467
  946TIP3    H124253   4.452   6.564  11.600  0.0889  0.0532  1.7562
  946TIP3    H224254   4.592   6.514  11.631  0.0883 -1.7516 -0.9542
  947TIP3   OH224255   5.302   1.348   1.862  0.3785  0.0021 -0.4165
  947TIP3    H124256   5.294   1.361   1.768  1.1409 -1.1691 -0.6488
  947TIP3    H224257   5.279   1.433   1.900  0.0599  0.4754 -1.6511
  948TIP3   OH224258   2.144   4.222   3.000 -0.1159  0.3973  0.1437
  948TIP3    H124259   2.053   4.201   3.020  0.0090 -0.9171 -0.6108
  948TIP3    H224260   2.149   4.219   2.905  0.7952  0.1396  0.1964
  949TIP3   OH224261   0.860   5.355   0.691 -0.3121 -0.2348 -0.0368
  949TIP3    H124262   0.880   5.444   0.663 -3.3081  0.0112 -1.5686
  949TIP3    H224263   0.849   5.361   0.786  1.8158  0.5366  0.1807
  950TIP3   OH224264   4.923   3.912   0.515 -0.2068 -0.1256  0.1374
  950TIP3    H124265   4.905   3.834   0.462 -1.9481  0.4246 -0.1342
  950TIP3    H224266   4.988   3.961   0.464 -0.4258 -0.5437 -0.5522
  951TIP3   OH224267   5.790   1.077   4.967  0.3410  0.0737  0.1663
  951TIP3    H124268   5.842   1.084   4.887 -1.5599 -1.6651 -1.2835
  951TIP3    H224269   5.799   1.163   5.009  2.4876  0.5490 -1.1918
  952TIP3   OH224270   5.240   5.536  11.527  0.6494  0.6408  0.3575
  952TIP3    H124271   5.204   5.616  11.488 -0.9938 -0.0740  0.3703
  952TIP3    H224272   5.246   5.556  11.621  0.4454  0.8223  0.3336
  953TIP3   OH224273   0.684   0.275   3.613  0.2574  0.1143  0.3310
  953TIP3    H124274   0.767   0.309   3.581 -0.5535 -0.2022 -2.1903
  953TIP3    H224275   0.619   0.306   3.550 -1.2561 -1.3644  1.1221
  954TIP3   OH224276   0.814   1.721  10.841  0.6537  0.0465  0.1138
  954TIP3    H124277   0.888   1.763  10.885 -0.5901  0.2999  2.0076
  954TIP3    H224278   0.744   1.785  10.844 -0.1364 -0.7861 -0.2689
  955TIP3   OH224279   0.991   2.941   6.275 -0.9574  0.2598 -0.2721
  955TIP3    H124280   0.968   2.848   6.270  0.4804 -0.2221  1.4686
  955TIP3    H224281   0.990   2.961   6.369  1.1776  1.3605 -0.4618
  956TIP3   OH224282   1.743   2.406   3.177 -0.3418 -0.0629  0.5328
  956TIP3    H124283   1.826   2.446   3.201 -0.0558  0.0102 -0.5434
  956TIP3    H224284   1.678   2.476   3.188  0.1371  0.6957 -1.2265
  957TIP3   OH224285   1.778   4.981   4.061 -0.5196  0.3533  0.0813
  957TIP3    H124286   1.796   5.043   4.131 -1.1943  3.1256 -2.1063
  957TIP3    H224287   1.685   4.994   4.040 -0.4712 -0.8101 -0.9623
  958TIP3   OH224288   3.979   4.422  12.448 -0.3504 -0.1208 -0.4050
  958TIP3    H124289   3.934   4.344  12.416  1.2349 -0.4834 -1.7898
  958TIP3    H224290   4.071   4.407  12.428  0.2577  1.1492  1.2991
  959TIP3   OH224291   6.169   2.113  13.532  0.6635  0.0638 -0.3444
  959TIP3    H124292   6.207   2.115  13.620  0.6590 -2.0941 -0.2656
  959TIP3    H224293   6.241   2.087  13.475  0.3806  0.3472 -0.8348
  960TIP3   OH224294   2.857   3.142   5.968  0.0526  0.0565  0.1824
  960TIP3    H124295   2.787   3.079   5.982  0.0968  0.0110  0.1969
  960TIP3    H224296   2.889   3.163   6.056  2.1905 -2.3085  0.0023
  961TIP3   OH224297   1.405   5.912   1.372  0.4441 -0.5329 -0.1067
  961TIP3    H124298   1.451   5.844   1.322 -0.1896  0.0088 -1.4635
  961TIP3    H224299   1.473   5.974   1.397  1.1593 -2.0643  1.8458
  962TIP3   OH224300   4.827   5.948  15.897  0.3610  0.3450  0.2025
  962TIP3    H124301   4.834   5.852  15.897  0.6247  0.3669 -0.4218
  962TIP3    H224302   4.879   5.975  15.972 -0.3136 -0.0424  0.8250
  963TIP3   OH224303   1.449   3.928  15.678 -0.1244 -0.0471  0.8916
  963TIP3    H124304   1.486   4.008  15.642  0.4814 -0.7765 -0.1412
  963TIP3    H224305   1.356   3.933  15.658  0.1975 -0.4136 -0.7545
  964TIP3   OH224306   6.383   5.565  15.020  0.1025 -0.4321 -0.1067
  964TIP3    H124307   6.413   5.474  15.020  1.6464  0.0547 -0.7732
  964TIP3    H224308   6.442   5.609  14.959  1.3010  1.6046  2.3978
  965TIP3   OH224309   2.031   2.634   2.550  0.0968  0.3517  0.6428
  965TIP3    H124310   2.018   2.562   2.612  0.1445 -1.1624 -1.0319
  965TIP3    H224311   1.943   2.671   2.538 -0.6864 -1.9336 -1.3399
  966TIP3   OH224312   4.983   3.794   6.205  0.1655 -0.0607 -0.3480
  966TIP3    H124313   5.076   3.816   6.200  0.2151  0.0427  0.8853
  966TIP3    H224314   4.976   3.737   6.282 -0.6883 -0.6185 -0.8293
  967TIP3   OH224315   4.102   5.760   3.630  0.3304  0.4353 -0.0273
  967TIP3    H124316   4.121   5.786   3.540 -0.8367 -0.0902 -0.4309
  967TIP3    H224317   4.008   5.744   3.631  0.9597 -3.8484  0.1852
  968TIP3   OH224318   5.969   6.730  16.374  0.1577  0.0813  0.5920
  968TIP3    H124319   5.991   6.658  16.434  1.1807 -0.5722 -0.5654
  968TIP3    H224320   5.910   6.786  16.425 -2.0482 -2.4648  0.9633
  969TIP3   OH224321   3.878   1.977   5.955 -0.0508 -0.3555 -0.2393
  969TIP3    H124322   3.888   2.029   5.875 -0.9462  1.4912  0.8046
  969TIP3    H224323   3.965   1.941   5.971  0.1578 -0.7083 -1.9987
  970TIP3   OH224324   1.173   4.218  14.937  0.5247  0.0209 -0.2709
  970TIP3    H124325   1.241   4.152  14.928  0.9503  0.5286 -0.9016
  970TIP3    H224326   1.146   4.237  14.847  0.0388  0.3290 -0.0664
  971TIP3   OH224327   3.135   4.395  13.920  0.7158 -0.3031 -0.1992
  971TIP3    H124328   3.205   4.454  13.948 -0.3140  1.3188 -0.9773
  971TIP3    H224329   3.101   4.358  14.001  1.3493  0.1990  0.3020
  972TIP3   OH224330   6.503   6.398   2.190  0.4640 -0.0063 -0.2031
  972TIP3    H124331   6.488   6.431   2.102 -1.0788  1.5849  0.6199
  972TIP3    H224332   6.586   6.436   2.217  1.7050 -1.7118 -1.4988
  973TIP3   OH224333   6.155   1.524   1.116 -0.1829  0.1174 -0.1097
  973TIP3    H124334   6.078   1.511   1.172 -0.4873 -3.0555 -1.1347
  973TIP3    H224335   6.183   1.435   1.093  3.5023  1.2074 -0.1853
  974TIP3   OH224336   5.726   3.526  16.504  0.0991  0.2826  0.0849
  974TIP3    H124337   5.708   3.563  16.418  1.0489  1.1972  0.2665
  974TIP3    H224338   5.800   3.466  16.489 -1.8231 -2.0696 -0.3287
  975TIP3   OH224339   3.262   4.972   4.183 -0.7110  0.1283  0.4472
  975TIP3    H124340   3.285   4.898   4.240 -0.5513 -1.3361 -1.4808
  975TIP3    H224341   3.206   5.028   4.238 -2.6665 -2.5214  1.2677
  976TIP3   OH224342   4.160   2.002   0.319  0.5109  0.3667 -0.3622
  976TIP3    H124343   4.125   2.070   0.376  0.4244 -0.1356  0.1872
  976TIP3    H224344   4.255   2.011   0.325  0.4918  0.8384 -0.7735
  977TIP3   OH224345   5.469   5.141  13.981 -0.1721  0.1754 -0.0209
  977TIP3    H124346   5.380   5.107  13.975  0.6978 -2.2979  0.6608
  977TIP3    H224347   5.502   5.107  14.064  0.7417  2.7558  0.7446
  978TIP3   OH224348   3.299   5.432  17.214  0.7658 -0.2374  0.3340
  978TIP3    H124349   3.239   5.418  17.141  1.0377  2.0863 -0.3676
  978TIP3    H224350   3.273   5.366  17.279 -2.4410  0.5838 -0.0290
  979TIP3   OH224351   5.815   4.912  14.349 -0.0713 -0.1295 -0.3497
  979TIP3    H124352   5.774   4.967  14.283 -2.9080 -1.8549 -0.0992
  979TIP3    H224353   5.833   4.829  14.304 -0.5682 -0.7592  0.5909
  980TIP3   OH224354   4.723   1.227  16.930  0.7722  0.4460  0.8670
  980TIP3    H124355   4.808   1.247  16.890  1.2003  0.7485  1.9290
  980TIP3    H224356   4.668   1.201  16.856  1.7041  0.5287  0.1336
  981TIP3   OH224357   3.874   2.407   2.001 -0.1110 -0.0164 -0.0554
  981TIP3    H124358   3.880   2.436   1.910 -0.0440 -0.5809 -0.2287
  981TIP3    H224359   3.784   2.427   2.026 -0.2618 -0.2824 -0.3845
  982TIP3   OH224360   6.227   5.884  15.431 -0.0588  0.1455  0.6283
  982TIP3    H124361   6.146   5.926  15.460  0.0562  1.2946 -0.6461
  982TIP3    H224362   6.208   5.853  15.342  0.1278 -1.8018  1.2546
  983TIP3   OH224363   0.246   4.281   0.484  0.1777 -0.0925  0.1716
  983TIP3    H124364   0.209   4.348   0.542  2.7847 -0.2519  2.1272
  983TIP3    H224365   0.250   4.202   0.539  1.3013 -0.6385 -0.6696
  984TIP3   OH224366   6.530   3.432   4.132 -0.6022 -0.1705 -0.0356
  984TIP3    H124367   6.570   3.369   4.192 -0.4875 -0.1586 -0.0985
  984TIP3    H224368   6.458   3.385   4.091 -0.6632 -0.1876  0.0920
  985TIP3   OH224369   1.258   2.768  12.436  0.3288  0.7163  0.1912
  985TIP3    H124370   1.185   2.707  12.435 -0.9659  2.2142  1.0862
  985TIP3    H224371   1.226   2.846  12.390  0.9079  1.8602  1.6471
  986TIP3   OH224372   4.236   4.881  13.539  0.1590  0.0891 -0.1506
  986TIP3    H124373   4.310   4.843  13.493  0.3054  1.5473 -1.1528
  986TIP3    H224374   4.177   4.911  13.469 -0.2698  1.0665  0.6178
  987TIP3   OH224375   3.013   5.449   3.028  0.7379  0.4429 -0.3950
  987TIP3    H124376   3.059   5.533   3.020 -0.0991  1.0006  0.5801
  987TIP3    H224377   2.935   5.469   3.079 -0.1758 -0.6656 -1.3271
  988TIP3   OH224378   4.653   2.541   4.188  0.0494 -0.3063 -0.2606
  988TIP3    H124379   4.572   2.491   4.183  0.8806 -1.5477 -1.9633
  988TIP3    H224380   4.649   2.600   4.112  0.5566 -0.0879 -0.1195
  989TIP3   OH224381   3.442   2.465   5.880 -0.1758  0.1071 -0.0070
  989TIP3    H124382   3.480   2.550   5.901 -3.6864  1.1615  2.4636
  989TIP3    H224383   3.422   2.469   5.786  1.1624  1.3642 -0.2510
  990TIP3   OH224384   0.863   0.785   1.525 -0.0147  0.2277 -0.4244
  990TIP3    H124385   0.854   0.853   1.458 -0.8515  1.5694  1.0126
  990TIP3    H224386   0.838   0.829   1.607 -0.1116 -1.6874  0.5943
  991TIP3   OH224387   5.005   3.974   2.029 -0.0682  0.8453 -0.5057
  991TIP3    H124388   4.920   3.952   1.991  0.1339  1.4090 -1.2895
  991TIP3    H224389   4.995   3.954   2.122 -0.8884  0.4145 -0.6776
  992TIP3   OH224390   3.372   2.689  11.043  0.1059  0.0608 -0.2861
  992TIP3    H124391   3.429   2.614  11.058 -0.0760 -0.8634 -3.7625
  992TIP3    H224392   3.428   2.765  11.056  1.3007 -0.7763 -0.4698
  993TIP3   OH224393   2.744   5.224  14.750  0.0987  0.3700 -0.1914
  993TIP3    H124394   2.697   5.170  14.686 -1.4783 -0.3252  1.5056
  993TIP3    H224395   2.780   5.160  14.813 -1.5857  1.2368  1.7065
  994TIP3   OH224396   0.831   2.151   3.121 -0.3772 -0.1785  0.1827
  994TIP3    H124397   0.795   2.213   3.058  0.8030 -0.3570 -0.6941
  994TIP3    H224398   0.787   2.068   3.101 -0.4025 -0.1069 -0.0539
  995TIP3   OH224399   0.172   0.292  14.919 -0.5064  0.6749  0.1199
  995TIP3    H124400   0.091   0.329  14.954  0.1911  1.1801  1.2460
  995TIP3    H224401   0.198   0.353  14.850 -0.5243  1.0837  0.4755
  996TIP3   OH224402   4.787   1.317   4.289  0.0093 -0.3387 -0.0216
  996TIP3    H124403   4.858   1.285   4.233 -0.4575  1.1192 -1.4818
  996TIP3    H224404   4.825   1.317   4.377  1.7482  0.1708 -0.7388
  997TIP3   OH224405   3.526   2.931  14.842 -0.2162 -0.0748 -0.1473
  997TIP3    H124406   3.556   2.934  14.751 -0.8764 -1.2586 -0.4091
  997TIP3    H224407   3.561   3.011  14.881  1.9118 -0.6285 -0.8599
  998TIP3   OH224408   2.229   0.820  14.952  0.0734  0.5998  0.4915
  998TIP3    H124409   2.233   0.883  15.023  2.2041  1.0578 -0.0177
  998TIP3    H224410   2.306   0.765  14.964 -0.1580 -0.0219 -0.7976
  999TIP3   OH224411   5.982   2.720   4.220 -0.3575 -0.3391 -0.5226
  999TIP3    H124412   5.947   2.728   4.309 -0.4147 -0.2570 -0.5531
  999TIP3    H224413   5.950   2.797   4.174  0.4245  0.0904 -0.3568
 1000TIP3   OH224414   6.339   1.005   2.507  0.1474  0.0292  0.6909
 1000TIP3    H124415   6.394   0.932   2.476 -3.5620 -2.7882  0.3011
 1000TIP3    H224416   6.321   1.055   2.428  2.4844  1.2740  0.9054
 1001TIP3   OH224417   6.696   5.852   5.527 -0.0566 -0.0992 -0.1689
 1001TIP3    H124418   6.667   5.775   5.477 -0.8842 -0.1536  0.3751
 1001TIP3    H224419   6.614   5.896   5.551  0.3822  0.4789  0.2659
 1002TIP3   OH224420   4.608   3.893   3.528 -0.5101 -0.0424  0.4565
 1002TIP3    H124421   4.541   3.958   3.553 -0.1176 -0.0477  1.5591
 1002TIP3    H224422   4.620   3.906   3.434 -0.9397  1.0238  0.5366
 1003TIP3   OH224423   4.292   5.055   4.937 -0.4250  0.3623  0.2585
 1003TIP3    H124424   4.373   5.088   4.899 -0.3684  1.8041  1.5799
 1003TIP3    H224425   4.252   5.004   4.867  1.7484 -0.6107 -0.3275
 1004TIP3   OH224426   3.112   4.480  11.838  0.2608  0.3510  0.1854
 1004TIP3    H124427   3.085   4.568  11.811 -0.4508 -0.2630 -1.1881
 1004TIP3    H224428   3.178   4.454  11.774  0.0101 -0.3622  0.2079
 1005TIP3   OH224429   5.242   5.168  11.064  0.2478 -0.4425 -0.1330
 1005TIP3    H124430   5.291   5.086  11.071  0.7973  0.0024  1.4637
 1005TIP3    H224431   5.155   5.142  11.036  0.8642 -1.4256 -1.1499
 1006TIP3   OH224432   1.516   2.940  16.137  0.0233  0.1758  0.2261
 1006TIP3    H124433   1.487   2.995  16.209 -0.1800  0.7369 -0.2719
 1006TIP3    H224434   1.514   2.999  16.061  0.6194 -0.2981 -0.1547
 1007TIP3   OH224435   2.135   5.024   6.027 -0.0748  0.1591  0.1203
 1007TIP3    H124436   2.135   5.015   6.123  2.1212  2.5535  0.3987
 1007TIP3    H224437   2.220   4.988   6.000 -0.0931  0.7814 -0.7738
 1008TIP3   OH224438   3.751   3.129   3.393 -0.1681 -0.1686  0.0720
 1008TIP3    H124439   3.812   3.200   3.372 -0.7819  0.9441  1.8412
 1008TIP3    H224440   3.678   3.173   3.437 -0.0100 -2.0187  2.2866
 1009TIP3   OH224441   1.795   0.515   1.140 -0.1700 -0.1975 -0.0095
 1009TIP3    H124442   1.791   0.533   1.046 -1.2137  0.6677  0.1961
 1009TIP3    H224443   1.720   0.458   1.157 -0.2098 -0.0305  0.3727
 1010TIP3   OH224444   2.544   3.079  12.536  0.0875 -0.2306  0.1621
 1010TIP3    H124445   2.619   3.068  12.595  0.0708 -2.6306 -0.2033
 1010TIP3    H224446   2.582   3.073  12.448 -0.6984 -3.1995 -0.0322
 1011TIP3   OH224447   4.702   6.082   5.279  0.0650  0.1424  0.4880
 1011TIP3    H124448   4.648   6.047   5.350 -0.6160 -1.4453 -0.7668
 1011TIP3    H224449   4.773   6.019   5.269 -0.0885  0.1157 -0.5183
 1012TIP3   OH224450   0.093   4.373   2.614 -0.1582 -0.2915  0.5303
 1012TIP3    H124451   0.059   4.328   2.536 -0.7865  1.3297 -0.1544
 1012TIP3    H224452   0.018   4.378   2.673  0.1275 -0.8523  0.9510
 1013TIP3   OH224453   4.791   1.845  12.754 -0.2506 -0.6854  0.5382
 1013TIP3    H124454   4.697   1.843  12.769 -0.4370  1.2753 -0.1570
 1013TIP3    H224455   4.801   1.896  12.674  1.3636 -1.5778  0.1502
 1014TIP3   OH224456   4.902   1.908   5.730  0.1558 -0.4919  0.1163
 1014TIP3    H124457   4.861   1.822   5.730 -0.8574 -0.0258  1.1699
 1014TIP3    H224458   4.977   1.899   5.671 -0.5682 -1.7792 -0.6302
 1015TIP3   OH224459   1.238   2.441   5.120 -0.1232 -0.1023  0.4733
 1015TIP3    H124460   1.215   2.385   5.046 -1.1994 -0.6814  1.2182
 1015TIP3    H224461   1.233   2.383   5.196 -0.0992  0.7267  1.1127
 1016TIP3   OH224462   4.996   4.165   0.394  0.4834 -0.0019 -0.0515
 1016TIP3    H124463   4.990   4.135   0.303 -0.4635  0.5853 -0.1853
 1016TIP3    H224464   4.906   4.187   0.418  0.8740  0.7781  0.7098
 1017TIP3   OH224465   0.549   2.518  13.287 -0.2771 -0.5264  0.4922
 1017TIP3    H124466   0.636   2.534  13.322 -0.3698 -1.1704  1.0259
 1017TIP3    H224467   0.546   2.423  13.273 -1.1629 -0.6169  1.2215
 1018TIP3   OH224468   6.157   4.644   5.362 -0.0449 -0.3611 -0.1013
 1018TIP3    H124469   6.066   4.632   5.333 -0.2359  0.5304  0.1407
 1018TIP3    H224470   6.153   4.635   5.457  0.1761 -0.6384 -0.1174
 1019TIP3   OH224471   4.253   5.301  12.579  0.9843 -0.4131 -0.2306
 1019TIP3    H124472   4.319   5.232  12.589 -0.5622 -1.7983  0.6616
 1019TIP3    H224473   4.209   5.304  12.664  0.5672  1.2043 -0.4908
 1020TIP3   OH224474   5.207   4.136  12.740 -0.1787  0.3261  0.3202
 1020TIP3    H124475   5.212   4.150  12.645 -1.0304 -1.6954 -0.0480
 1020TIP3    H224476   5.286   4.086  12.761  0.2189  1.1320  0.7477
 1021TIP3   OH224477   2.737   5.817  15.065 -0.0842 -0.4944  0.1709
 1021TIP3    H124478   2.657   5.869  15.067  0.1395 -0.1747  1.0537
 1021TIP3    H224479   2.764   5.817  14.973 -0.4288  0.4051  0.0680
 1022TIP3   OH224480   4.142   5.508  15.330 -0.1894 -0.0588 -0.5571
 1022TIP3    H124481   4.131   5.480  15.239  0.6291  0.6931 -0.8905
 1022TIP3    H224482   4.060   5.483  15.373 -0.0773 -1.5755 -1.1950
 1023TIP3   OH224483   4.822   4.399  14.437  0.1093  0.3244 -0.0879
 1023TIP3    H124484   4.829   4.373  14.345  0.9165  0.0981  0.0270
 1023TIP3    H224485   4.746   4.456  14.440  0.3126  0.6586 -0.9732
 1024TIP3   OH224486   5.856   5.148  16.803  0.4958  0.4447 -0.4092
 1024TIP3    H124487   5.870   5.146  16.898 -0.0957  4.0143 -0.1684
 1024TIP3    H224488   5.762   5.136  16.792  0.8223 -2.1816 -0.7424
 1025TIP3   OH224489   0.111   6.496   2.265  0.0114 -0.1419 -0.3019
 1025TIP3    H124490   0.062   6.433   2.317  0.3161 -0.6427 -0.6181
 1025TIP3    H224491   0.170   6.538   2.328  0.6654 -1.0322 -0.3094
 1026TIP3   OH224492   6.014   6.227   3.546 -0.2176  0.2415  0.0151
 1026TIP3    H124493   5.976   6.219   3.633  1.1074  2.1755  0.8050
 1026TIP3    H224494   6.003   6.320   3.524  2.7616  0.5652 -0.3011
 1027TIP3   OH224495   4.507   4.535  15.820  0.3966  0.5176 -0.4470
 1027TIP3    H124496   4.505   4.577  15.734  0.0342 -0.6941 -1.0487
 1027TIP3    H224497   4.416   4.517  15.841  0.3980  1.7508  0.6799
 1028TIP3   OH224498   1.782   0.285  13.986  0.0721  0.0618 -0.2287
 1028TIP3    H124499   1.696   0.325  13.998  0.3769  0.2985  1.2839
 1028TIP3    H224500   1.764   0.201  13.945 -0.8975  0.0884  0.1306
 1029TIP3   OH224501   0.027   1.692   3.250 -0.0062  0.3657  1.1984
 1029TIP3    H124502   0.094   1.760   3.242  1.5513 -1.3062 -0.4113
 1029TIP3    H224503   0.076   1.611   3.258 -1.8531 -0.8019  0.9791
 1030TIP3   OH224504   6.655   4.487   2.825 -0.4454  0.1437 -0.6987
 1030TIP3    H124505   6.570   4.522   2.849 -0.9919 -2.1267  0.7808
 1030TIP3    H224506   6.692   4.454   2.907  1.0730 -0.5298 -1.6217
 1031TIP3   OH224507   0.575   2.063  14.894  0.0756  0.3268 -0.7228
 1031TIP3    H124508   0.630   2.037  14.968 -2.1673  2.2059  1.7199
 1031TIP3    H224509   0.510   1.993  14.887  0.6204 -0.1273 -1.2998
 1032TIP3   OH224510   0.117   1.068  12.696 -0.2612  0.2157  0.5053
 1032TIP3    H124511   0.184   1.133  12.673  0.2361 -0.8598 -1.1773
 1032TIP3    H224512   0.038   1.098  12.652 -0.5028  0.6438  1.2174
 1033TIP3   OH224513   2.454   5.588   4.685 -0.0629  0.3959  0.2572
 1033TIP3    H124514   2.495   5.669   4.717  0.8059 -0.4295  1.2579
 1033TIP3    H224515   2.374   5.580   4.737  2.0639 -1.7126  3.3842
 1034TIP3   OH224516   5.427   1.833   5.584 -0.0995  0.0193 -0.4748
 1034TIP3    H124517   5.454   1.860   5.672  0.0786  0.1335 -0.5636
 1034TIP3    H224518   5.495   1.772   5.556  0.4771  0.8994 -1.0056
 1035TIP3   OH224519   1.024   0.268   1.972 -0.3549  0.6656 -0.5036
 1035TIP3    H124520   1.005   0.270   1.878  0.1284  2.6109 -0.5778
 1035TIP3    H224521   1.119   0.279   1.978 -0.4666  1.3110  0.2223
 1036TIP3   OH224522   5.946   3.405  11.722  0.7233 -0.2409  0.1050
 1036TIP3    H124523   5.911   3.482  11.766  0.7793  0.5405 -1.1833
 1036TIP3    H224524   6.037   3.428  11.701  0.9882 -0.9704  0.4561
 1037TIP3   OH224525   1.263   4.709   0.713 -0.2410 -0.0805  0.4365
 1037TIP3    H124526   1.327   4.664   0.658 -0.7657 -0.0125 -0.2387
 1037TIP3    H224527   1.221   4.771   0.654 -1.1470 -0.3463  0.7995
 1038TIP3   OH224528   4.501   1.256   6.583 -0.3268  0.1266  0.9438
 1038TIP3    H124529   4.415   1.278   6.549 -0.2071  1.2528  1.3471
 1038TIP3    H224530   4.557   1.251   6.505 -0.4009  1.0607  0.8313
 1039TIP3   OH224531   4.050   1.332   1.971  0.6366 -0.1128 -0.1125
 1039TIP3    H124532   4.037   1.340   1.877  0.8238 -0.7340 -0.1954
 1039TIP3    H224533   4.118   1.265   1.980 -1.1260 -1.8434  0.5554
 1040TIP3   OH224534   0.301   3.318   5.078  0.0656 -0.4325 -0.0023
 1040TIP3    H124535   0.323   3.410   5.094 -0.4715 -0.4060  0.6090
 1040TIP3    H224536   0.244   3.294   5.151 -0.4335 -1.0257 -0.5803
 1041TIP3   OH224537   2.542   2.112   1.003 -0.4333  0.7713  0.1721
 1041TIP3    H124538   2.631   2.115   1.038 -0.8438 -0.6616  1.3730
 1041TIP3    H224539   2.551   2.142   0.913  1.3258  0.3608  0.1942
 1042TIP3   OH224540   0.666   4.177   3.452 -0.1018  0.1439  0.2963
 1042TIP3    H124541   0.679   4.271   3.438 -0.0247  0.2277  0.9105
 1042TIP3    H224542   0.719   4.157   3.529  0.7480 -0.6224 -0.4729
 1043TIP3   OH224543   3.719   6.362  13.230  0.3553  0.5082  0.0148
 1043TIP3    H124544   3.704   6.297  13.299 -2.0223  1.0387  0.0469
 1043TIP3    H224545   3.690   6.318  13.150  1.6572  0.4442 -0.4298
 1044TIP3   OH224546   2.780   6.161   4.890  0.4612 -0.7076  0.1335
 1044TIP3    H124547   2.848   6.127   4.832  2.8739  2.7034  0.8134
 1044TIP3    H224548   2.728   6.219   4.835  0.3775 -0.4604  0.4673
 1045TIP3   OH224549   6.465   5.076   3.565 -0.4188 -0.1914 -0.1703
 1045TIP3    H124550   6.516   5.154   3.584  0.2205 -0.2858 -1.4489
 1045TIP3    H224551   6.467   5.069   3.470 -2.5962 -0.3389 -0.2401
 1046TIP3   OH224552   4.223   1.002  16.436 -0.1300 -0.3710  0.1473
 1046TIP3    H124553   4.267   1.081  16.466  0.5932 -0.6158 -0.2810
 1046TIP3    H224554   4.283   0.962  16.374 -0.8896 -0.7787 -0.3329
 1047TIP3   OH224555   4.431   6.185  13.176  0.0135 -0.0823  0.5080
 1047TIP3    H124556   4.444   6.202  13.083  0.1481  1.3373  0.7754
 1047TIP3    H224557   4.408   6.270  13.214 -0.0200 -0.6331  1.7778
 1048TIP3   OH224558   1.522   6.178   1.799  0.2146  0.1912 -0.6636
 1048TIP3    H124559   1.457   6.112   1.775 -0.5529  0.6807  0.0562
 1048TIP3    H224560   1.537   6.227   1.718  0.0077 -0.1912 -0.9358
 1049TIP3   OH224561   5.648   3.379  11.558  0.1136 -0.2834 -0.0962
 1049TIP3    H124562   5.585   3.373  11.630  0.6457 -2.3081  0.2286
 1049TIP3    H224563   5.608   3.440  11.496 -1.5231 -0.4738  0.7536
 1050TIP3   OH224564   6.453   2.417   3.485  0.0951  0.1467  0.2832
 1050TIP3    H124565   6.415   2.468   3.556 -0.2484 -1.8048  1.5263
 1050TIP3    H224566   6.453   2.327   3.517  1.2016 -0.5722 -1.6527
 1051TIP3   OH224567   5.372   4.350  15.495  0.5566 -0.7501 -0.1428
 1051TIP3    H124568   5.364   4.405  15.417  0.6537 -0.3407  0.1389
 1051TIP3    H224569   5.443   4.289  15.473  0.3185 -0.8913 -0.5306
 1052TIP3   OH224570   2.386   0.038   1.030 -0.4423 -0.0235  0.4312
 1052TIP3    H124571   2.392   0.115   1.087 -2.3861  0.1491  0.4297
 1052TIP3    H224572   2.334  -0.024   1.080 -0.0804 -0.8036 -0.1567
 1053TIP3   OH224573   1.313   0.378   1.667  0.1881  0.1337  0.1773
 1053TIP3    H124574   1.374   0.441   1.627 -0.3106  0.3693 -0.2315
 1053TIP3    H224575   1.234   0.386   1.614 -0.1912 -0.1822  0.6946
 1054TIP3   OH224576   2.729   0.896  16.186 -0.9459 -0.5803 -0.0828
 1054TIP3    H124577   2.662   0.936  16.131 -0.1106  0.2228 -0.5223
 1054TIP3    H224578   2.691   0.812  16.212 -1.1184 -1.2777 -2.4168
 1055TIP3   OH224579   5.661   6.620  14.960  0.2326 -0.1199  0.6118
 1055TIP3    H124580   5.653   6.565  14.883  0.1913  0.3542  0.2735
 1055TIP3    H224581   5.589   6.593  15.017 -0.0951 -0.0638  0.2282
 1056TIP3   OH224582   1.027   2.014   2.556 -0.3879  0.2680 -0.1106
 1056TIP3    H124583   1.015   2.001   2.650  0.7250  2.4593  0.3822
 1056TIP3    H224584   1.111   2.059   2.549 -0.6475  0.4746 -2.1277
 1057TIP3   OH224585   4.283   3.452  13.527  0.5821 -0.1307 -0.0167
 1057TIP3    H124586   4.346   3.413  13.587  1.8126  0.1714 -1.1001
 1057TIP3    H224587   4.321   3.536  13.503 -0.1651 -0.0034 -0.7974
 1058TIP3   OH224588   6.089   2.949  15.873  0.3547  0.0086  0.7424
 1058TIP3    H124589   6.074   2.873  15.929  1.5637  0.2089  1.3657
 1058TIP3    H224590   6.036   3.018  15.912 -1.0937 -0.6151 -0.0843
 1059TIP3   OH224591   2.685   0.205  12.661  0.3954  0.3010  0.2538
 1059TIP3    H124592   2.638   0.230  12.581  2.1165 -0.1095 -0.9259
 1059TIP3    H224593   2.771   0.247  12.652  0.4438  0.6422  2.1308
 1060TIP3   OH224594   0.422   3.599   4.490  0.1088 -0.2895  0.3348
 1060TIP3    H124595   0.335   3.584   4.527  0.4613 -2.0901  0.4754
 1060TIP3    H224596   0.413   3.574   4.398  0.2497  0.3854  0.1386
 1061TIP3   OH224597   6.156   0.614   3.681 -0.1106  0.0037 -0.2386
 1061TIP3    H124598   6.220   0.605   3.611 -1.6195 -0.5097 -1.5793
 1061TIP3    H224599   6.132   0.525   3.704  0.1984  0.1739  0.7871
 1062TIP3   OH224600   5.195   2.725  15.192  0.3327 -0.2199  0.6157
 1062TIP3    H124601   5.161   2.815  15.190  1.1410  0.0948  0.9752
 1062TIP3    H224602   5.136   2.678  15.251  0.2843  0.2294  0.9223
 1063TIP3   OH224603   1.339   0.301  12.211 -0.5333  0.1808 -1.0936
 1063TIP3    H124604   1.299   0.370  12.158 -1.0619 -0.6667 -1.7990
 1063TIP3    H224605   1.312   0.219  12.169 -0.0576 -0.4649 -0.1568
 1064TIP3   OH224606   4.548   3.909  14.595 -0.2948  0.3441  0.2252
 1064TIP3    H124607   4.605   3.983  14.615  0.0371  0.3951 -0.8748
 1064TIP3    H224608   4.510   3.884  14.680  1.3917  0.2686  0.9736
 1065TIP3   OH224609   0.678   1.100   1.144 -0.1743  0.6498  0.4035
 1065TIP3    H124610   0.687   1.176   1.087 -0.3292  2.0069  2.1615
 1065TIP3    H224611   0.594   1.112   1.188 -0.4632 -0.8336  0.3087
 1066TIP3   OH224612   0.227   4.695  16.467 -0.2089 -0.0513  0.4883
 1066TIP3    H124613   0.178   4.661  16.392 -0.4029 -0.7304  0.9197
 1066TIP3    H224614   0.264   4.617  16.508 -1.9618  0.0972  2.4142
 1067TIP3   OH224615   3.203   1.626   0.147 -0.3594 -0.1564  0.4598
 1067TIP3    H124616   3.151   1.676   0.209 -0.0849 -0.3841  0.8775
 1067TIP3    H224617   3.279   1.597   0.197  0.5460  0.7871 -0.3369
 1068TIP3   OH224618   1.123   3.213   6.213 -0.8264  0.2613  0.4041
 1068TIP3    H124619   1.097   3.289   6.161  1.8058  1.1504  0.3266
 1068TIP3    H224620   1.056   3.206   6.281 -3.6295 -0.1709 -2.3239
 1069TIP3   OH224621   4.075   1.735  15.455  0.1257 -0.3524 -0.0298
 1069TIP3    H124622   4.143   1.800  15.471  0.3859 -0.8395  0.9038
 1069TIP3    H224623   4.091   1.667  15.521 -2.0565  0.1425  1.0401
 1070TIP3   OH224624   2.483   2.267   2.931 -0.1154 -0.0955  0.1924
 1070TIP3    H124625   2.445   2.192   2.977  0.9863 -0.8727 -0.1412
 1070TIP3    H224626   2.567   2.281   2.975  0.4143 -0.0953 -0.8193
 1071TIP3   OH224627   1.266   4.339  12.470 -0.1000 -0.3001 -0.1854
 1071TIP3    H124628   1.309   4.263  12.510 -0.6662 -0.9364 -0.7688
 1071TIP3    H224629   1.281   4.327  12.376 -1.9252 -0.7669 -0.4305
 1072TIP3   OH224630   2.878   2.293   3.534 -0.0547 -0.3555  0.7756
 1072TIP3    H124631   2.784   2.313   3.538 -0.1958 -0.8145  0.0532
 1072TIP3    H224632   2.904   2.279   3.625 -0.7156 -0.3156  0.9730
 1073TIP3   OH224633   1.030   5.453  15.711  0.1331 -0.1310 -0.1197
 1073TIP3    H124634   1.112   5.497  15.732 -0.0348  0.1246  0.0186
 1073TIP3    H224635   0.962   5.512  15.746 -0.1657  0.4042 -1.5217
 1074TIP3   OH224636   3.998   1.979  13.152  0.4956 -0.1291 -0.4036
 1074TIP3    H124637   4.040   1.913  13.096 -2.1351 -1.4577 -0.9104
 1074TIP3    H224638   3.992   1.937  13.238 -1.1413 -0.5415 -0.7139
 1075TIP3   OH224639   5.888   4.969   1.140  0.2517  0.1989 -0.2158
 1075TIP3    H124640   5.854   5.049   1.180  0.1843  0.1441 -0.1646
 1075TIP3    H224641   5.942   5.001   1.067  2.8970  0.4478  1.7501
 1076TIP3   OH224642   6.489   6.274  11.498  0.0535 -0.4477  0.0101
 1076TIP3    H124643   6.425   6.320  11.445 -0.3312  0.1535  0.9770
 1076TIP3    H224644   6.489   6.321  11.581  2.6656  0.3425 -0.3939
 1077TIP3   OH224645   4.717   0.909   3.290 -0.5404 -0.3461 -0.8893
 1077TIP3    H124646   4.746   0.878   3.375 -1.5605 -0.4187 -0.5694
 1077TIP3    H224647   4.643   0.967   3.309  0.3468  1.0665 -1.5846
 1078TIP3   OH224648   2.738   4.616   3.800  0.1794 -0.2723  0.3151
 1078TIP3    H124649   2.742   4.697   3.851  1.0902 -1.0460  1.5022
 1078TIP3    H224650   2.769   4.640   3.713  1.6960  0.3924  1.0201
 1079TIP3   OH224651   4.723   2.508   5.655  0.2661  0.5001  0.7233
 1079TIP3    H124652   4.676   2.590   5.668  2.7156  1.9873  0.5165
 1079TIP3    H224653   4.808   2.534   5.621  0.4680 -2.2600 -1.0804
 1080TIP3   OH224654   3.591   2.924   0.186 -0.3603  0.5477 -0.1896
 1080TIP3    H124655   3.574   2.832   0.167 -1.3528  0.6492  0.2177
 1080TIP3    H224656   3.607   2.964   0.100 -0.6890  0.1565 -0.4308
 1081TIP3   OH224657   1.139   3.842  13.884 -0.0508  0.0779  0.4730
 1081TIP3    H124658   1.203   3.771  13.886 -0.6809 -0.4692  4.2835
 1081TIP3    H224659   1.192   3.922  13.877  0.9138 -0.5067  0.9998
 1082TIP3   OH224660   4.999   0.548  14.334  0.5654 -0.1001 -0.7096
 1082TIP3    H124661   4.990   0.511  14.246 -0.0749 -1.3199 -0.1447
 1082TIP3    H224662   4.952   0.631  14.330  1.0110  0.1132 -1.6708
 1083TIP3   OH224663   1.401   5.275   2.031  0.7028  0.3732  0.0922
 1083TIP3    H124664   1.340   5.252   1.961  0.8281  0.1040  0.0688
 1083TIP3    H224665   1.369   5.227   2.107  1.7900 -1.0559 -0.3113
 1084TIP3   OH224666   1.195   0.868   1.545 -0.2215  0.2049 -0.5528
 1084TIP3    H124667   1.201   0.791   1.602 -2.3958  0.0483 -0.5013
 1084TIP3    H224668   1.185   0.832   1.457  2.2736  0.4470 -0.9563
 1085TIP3   OH224669   2.686   5.145  16.980 -0.0140 -0.2011 -0.3627
 1085TIP3    H124670   2.626   5.163  16.907 -0.6128  0.8134  0.3691
 1085TIP3    H224671   2.633   5.100  17.045  0.0767  0.4758  0.1845
 1086TIP3   OH224672   0.145   6.752  17.051  0.6179  0.0588 -0.1212
 1086TIP3    H124673   0.115   6.800  17.128  0.0277 -0.2962 -0.1340
 1086TIP3    H224674   0.183   6.820  16.994  0.4743  0.4053  0.1925
 1087TIP3   OH224675   0.960   5.519   0.066 -0.1711 -0.0164  0.7891
 1087TIP3    H124676   1.012   5.578   0.012 -0.2349 -0.4533  0.2489
 1087TIP3    H224677   0.886   5.496   0.011  0.8540 -2.1534  0.2741
 1088TIP3   OH224678   2.917   2.829  14.025 -0.9291  0.1273  0.3074
 1088TIP3    H124679   2.907   2.775  13.946 -0.0730  0.7080 -0.2072
 1088TIP3    H224680   2.861   2.787  14.090 -1.0721 -0.7854 -0.3944
 1089TIP3   OH224681   1.911   2.749   0.966  0.1453  0.1349 -0.0467
 1089TIP3    H124682   1.981   2.796   1.011  0.3720 -0.2446 -0.0086
 1089TIP3    H224683   1.926   2.767   0.873  1.1371 -1.1112 -0.1426
 1090TIP3   OH224684   4.674   0.082   1.305 -0.2093  0.0008 -0.4785
 1090TIP3    H124685   4.711   0.169   1.290 -0.3108  0.1936  0.3930
 1090TIP3    H224686   4.723   0.025   1.245  2.1016  0.1030  1.2459
 1091TIP3   OH224687   3.393   4.997   5.393  0.7324  0.1181  0.3633
 1091TIP3    H124688   3.428   5.083   5.368  1.7711 -0.4259 -0.0817
 1091TIP3    H224689   3.470   4.945   5.414  0.1720 -1.0604 -0.4733
 1092TIP3   OH224690   2.069   3.155  11.800  0.0187 -0.3049 -0.1659
 1092TIP3    H124691   1.991   3.133  11.748 -0.3361 -0.0538  0.2646
 1092TIP3    H224692   2.035   3.172  11.888  0.2718  2.1763 -0.5381
 1093TIP3   OH224693   0.315   0.951  11.920 -0.1166  0.1206 -0.0025
 1093TIP3    H124694   0.318   0.886  11.850 -1.3420  0.0862 -0.0386
 1093TIP3    H224695   0.366   0.912  11.991 -2.1315 -1.6024  0.5527
 1094TIP3   OH224696   0.810   2.366  11.808  0.5748 -0.2473 -0.2871
 1094TIP3    H124697   0.898   2.367  11.844  1.0719 -0.8889 -1.4238
 1094TIP3    H224698   0.768   2.290  11.849  0.3076  0.4857  0.7999
 1095TIP3   OH224699   2.507   0.404  16.320  0.1026 -0.8547 -0.6126
 1095TIP3    H124700   2.440   0.458  16.363  0.1697 -1.3341  0.1000
 1095TIP3    H224701   2.553   0.362  16.392  0.2280 -1.6581 -1.1563
 1096TIP3   OH224702   6.711   4.516   4.695 -0.1576  0.7345  0.9323
 1096TIP3    H124703   6.783   4.563   4.737  0.3695 -0.3291  1.2159
 1096TIP3    H224704   6.633   4.549   4.739  0.2789  0.7134  1.7330
 1097TIP3   OH224705   4.067   3.837  11.992 -0.1628 -0.3670 -0.1247
 1097TIP3    H124706   4.086   3.808  11.903 -1.0473 -0.5969 -0.2371
 1097TIP3    H224707   3.989   3.789  12.018 -0.9962  1.0644  0.0978
 1098TIP3   OH224708   5.713   6.667   2.102  0.5619 -0.4113 -0.3390
 1098TIP3    H124709   5.774   6.729   2.142  0.5833  0.8101 -2.1902
 1098TIP3    H224710   5.664   6.719   2.038 -2.8678 -1.2303  1.4874
 1099TIP3   OH224711   1.476   2.720  16.809  0.0422  0.1161 -0.1220
 1099TIP3    H124712   1.530   2.688  16.881  0.3210 -0.0419 -0.4009
 1099TIP3    H224713   1.527   2.701  16.730 -0.8935 -0.9715 -0.4645
 1100TIP3   OH224714   6.539   4.122   2.182  0.4042  0.0156  0.0253
 1100TIP3    H124715   6.496   4.068   2.249  1.0302 -0.1289  0.3145
 1100TIP3    H224716   6.483   4.200   2.175  1.5306  1.1164  2.3839
 1101TIP3   OH224717   4.450   5.620   4.583 -0.9191  0.0047 -0.5253
 1101TIP3    H124718   4.416   5.671   4.656 -0.7929  0.0733 -0.5137
 1101TIP3    H224719   4.502   5.682   4.532 -0.3833 -0.2221 -0.2565
 1102TIP3   OH224720   3.066   0.307   0.693 -0.4585  0.4413 -0.0333
 1102TIP3    H124721   3.019   0.345   0.619 -0.3894  0.7391  0.0744
 1102TIP3    H224722   3.002   0.250   0.735  0.2839 -1.7994 -1.8638
 1103TIP3   OH224723   4.673   1.880   0.374 -0.4019 -0.2736  0.3335
 1103TIP3    H124724   4.670   1.907   0.466  0.2672  0.7023  0.0757
 1103TIP3    H224725   4.758   1.836   0.365 -0.3289 -0.0920  0.1175
 1104TIP3   OH224726   0.986   5.105  10.998 -0.0174 -0.0771 -0.4205
 1104TIP3    H124727   1.062   5.050  11.014  0.3979  1.1379  2.0119
 1104TIP3    H224728   0.995   5.132  10.907  2.3590 -0.0949 -0.2224
 1105TIP3   OH224729   4.785   2.452  16.031 -0.3260 -0.4297 -0.0682
 1105TIP3    H124730   4.729   2.388  15.988  0.0146 -0.6503 -0.1802
 1105TIP3    H224731   4.796   2.522  15.966 -1.6267  0.2859  0.4526
 1106TIP3   OH224732   5.481   5.665  16.515 -0.4737  0.3930  0.8046
 1106TIP3    H124733   5.527   5.735  16.563  4.1767 -0.8795 -1.4615
 1106TIP3    H224734   5.502   5.586  16.565 -1.7188 -0.0047  0.6986
 1107TIP3   OH224735   4.898   5.548  12.426  0.0409  0.2761 -0.4632
 1107TIP3    H124736   4.928   5.474  12.374  0.0636  1.0516 -1.5842
 1107TIP3    H224737   4.821   5.581  12.379 -0.2632  0.6499  0.2897
 1108TIP3   OH224738   4.988   1.614   5.487  0.3467 -0.1571  0.0551
 1108TIP3    H124739   5.069   1.652   5.453  0.6296  0.5373  1.4504
 1108TIP3    H224740   4.920   1.643   5.427  0.8352  1.0506  0.0638
 1109TIP3   OH224741   0.138   2.340  13.466 -0.5210 -0.0144  0.1508
 1109TIP3    H124742   0.191   2.417  13.446  0.5761 -0.7443  0.1782
 1109TIP3    H224743   0.065   2.373  13.519 -0.0567  0.9875  0.1736
 1110TIP3   OH224744   5.523   0.888  14.020 -0.4590 -0.2343 -0.4047
 1110TIP3    H124745   5.448   0.857  14.072 -1.4249  1.7792 -0.5246
 1110TIP3    H224746   5.508   0.983  14.012  1.2900 -0.0559 -1.7698
 1111TIP3   OH224747   4.220   0.509  15.646  0.1867  0.0101 -0.2741
 1111TIP3    H124748   4.313   0.492  15.661 -0.0006 -1.1160 -0.3279
 1111TIP3    H224749   4.186   0.537  15.731  0.9518  2.2396 -0.6863
 1112TIP3   OH224750   5.623   2.974   3.129  0.2862 -0.1721 -0.5668
 1112TIP3    H124751   5.564   2.906   3.161  2.3200 -1.6969  0.0372
 1112TIP3    H224752   5.643   3.026   3.207 -0.5795  0.6113 -0.8584
 1113TIP3   OH224753   1.407   3.374  13.760  0.4703 -0.3496  0.9061
 1113TIP3    H124754   1.433   3.365  13.668 -1.0963  0.3957  0.3694
 1113TIP3    H224755   1.340   3.307  13.773  2.0783 -1.7667  2.0727
 1114TIP3   OH224756   2.301   1.990   1.514  0.3548 -0.0176 -0.1987
 1114TIP3    H124757   2.237   1.920   1.526  0.6794 -0.5588 -1.5661
 1114TIP3    H224758   2.385   1.944   1.506  1.3192  0.7880  4.0352
 1115TIP3   OH224759   5.925   2.144  13.768  0.3159  0.1645  0.4287
 1115TIP3    H124760   5.852   2.184  13.720  0.3702  1.5789  1.4645
 1115TIP3    H224761   6.001   2.156  13.711  0.0389  0.1738  0.0603
 1116TIP3   OH224762   5.879   0.577  15.640 -0.5523  0.4739 -0.1990
 1116TIP3    H124763   5.869   0.581  15.545 -0.7642  2.1752 -0.1346
 1116TIP3    H224764   5.813   0.515  15.670 -2.1178  1.7244 -0.9686
 1117TIP3   OH224765   0.522   5.411  10.938 -0.2293 -0.1333 -0.2689
 1117TIP3    H124766   0.556   5.324  10.916 -1.7195 -0.8284  0.0952
 1117TIP3    H224767   0.448   5.394  10.996  2.1989  1.5922  3.4849
 1118TIP3   OH224768   2.915   3.021  11.664 -0.4932  0.3225 -0.2109
 1118TIP3    H124769   2.879   2.979  11.743 -1.1646  0.1012 -0.6338
 1118TIP3    H224770   2.993   2.969  11.643 -0.2699  0.4287  0.3491
 1119TIP3   OH224771   1.085   5.061  10.624 -0.0539  0.4206  0.0458
 1119TIP3    H124772   1.080   4.975  10.666  0.2066  0.2960 -0.1748
 1119TIP3    H224773   1.177   5.086  10.629 -0.1132  0.6465  0.0302
 1120TIP3   OH224774   5.964   2.831   2.376  0.2510 -0.7917  0.4836
 1120TIP3    H124775   5.976   2.895   2.446 -0.9417  1.3671 -1.2210
 1120TIP3    H224776   6.048   2.786   2.369  1.9706  2.3673 -0.0051
 1121TIP3   OH224777   0.216   3.477  12.518 -0.1825  0.2709 -0.6895
 1121TIP3    H124778   0.157   3.461  12.444  0.1783 -0.3105 -0.8497
 1121TIP3    H224779   0.188   3.562  12.552 -0.7161  0.2836 -1.1452
 1122TIP3   OH224780   0.004   1.270   1.329  0.6601  0.5000 -0.1207
 1122TIP3    H124781  -0.061   1.244   1.263  2.5724 -1.7595 -1.2007
 1122TIP3    H224782   0.051   1.343   1.289 -0.1051  1.0305 -0.0517
 1123TIP3   OH224783   4.953   1.702   6.294  0.0555 -0.7966  0.0794
 1123TIP3    H124784   5.027   1.646   6.316 -0.0421 -0.8295  0.3246
 1123TIP3    H224785   4.991   1.788   6.280  0.2814 -1.0329 -0.8354
 1124TIP3   OH224786   3.901   6.653   5.097  0.1473 -0.0506  0.5522
 1124TIP3    H124787   3.994   6.668   5.115 -0.2257  0.4328  2.2349
 1124TIP3    H224788   3.884   6.564   5.129  0.1579 -0.3544 -0.2811
 1125TIP3   OH224789   5.113   5.807   0.070  0.2951  0.0887 -0.0450
 1125TIP3    H124790   5.194   5.795   0.021  0.5298 -2.5451  0.8872
 1125TIP3    H224791   5.128   5.761   0.153 -1.9740 -0.0192  0.3475
 1126TIP3   OH224792   4.698   2.508  14.620  0.4434 -0.4470 -0.0176
 1126TIP3    H124793   4.742   2.544  14.697  1.0048  0.3562 -0.7037
 1126TIP3    H224794   4.653   2.583  14.581  2.4432 -0.2484 -2.0250
 1127TIP3   OH224795   3.838   4.504   4.986  0.6750  0.5711 -0.0755
 1127TIP3    H124796   3.791   4.427   5.019 -0.7599  0.8546 -1.3622
 1127TIP3    H224797   3.779   4.541   4.921  3.3468  0.0822 -2.8778
 1128TIP3   OH224798   0.806   5.710  15.006 -0.0974  0.0134  0.3983
 1128TIP3    H124799   0.762   5.754  14.934 -0.1775  3.3128  2.3653
 1128TIP3    H224800   0.889   5.680  14.970 -0.5064  0.8658 -1.2876
 1129TIP3   OH224801   4.639   0.392  16.441 -0.6150  0.8054 -0.1708
 1129TIP3    H124802   4.590   0.447  16.502  2.5849  3.9050 -0.2616
 1129TIP3    H224803   4.693   0.336  16.497 -0.9160  0.5610 -0.1235
 1130TIP3   OH224804   2.549   0.694   3.318 -0.3728 -0.0066  0.7379
 1130TIP3    H124805   2.603   0.618   3.339 -0.7170  0.2006  2.4994
 1130TIP3    H224806   2.480   0.693   3.385 -1.0447  1.1898  0.0752
 1131TIP3   OH224807   0.723   1.517   0.086  0.6396 -0.0693  0.0012
 1131TIP3    H124808   0.764   1.430   0.084  0.3387 -0.1981 -1.0595
 1131TIP3    H224809   0.698   1.530   0.178  0.1791 -1.3445  0.0657
 1132TIP3   OH224810   2.863   6.028  10.447  0.0231 -0.2207  0.8005
 1132TIP3    H124811   2.945   5.980  10.461  0.1024  0.0210  1.1913
 1132TIP3    H224812   2.812   6.011  10.526 -0.5471 -0.8486  0.3034
 1133TIP3   OH224813   3.222   0.372  12.893 -0.3422  0.4485 -0.3442
 1133TIP3    H124814   3.307   0.329  12.892 -1.2159 -1.3204 -0.9412
 1133TIP3    H224815   3.229   0.438  12.963  1.8193  1.0192 -1.0506
 1134TIP3   OH224816   5.524   4.229  16.654  0.1645  0.6295 -0.2395
 1134TIP3    H124817   5.571   4.203  16.733 -0.9183  0.3710  0.3290
 1134TIP3    H224818   5.562   4.174  16.585  1.6788  1.4387 -0.0648
 1135TIP3   OH224819   1.523   6.090  16.823  0.6719  0.1052 -0.0655
 1135TIP3    H124820   1.563   6.023  16.879 -0.8744  1.0251  2.2336
 1135TIP3    H224821   1.479   6.041  16.754  2.1075 -1.0960 -0.1559
 1136TIP3   OH224822   4.052   2.068   3.826  0.1014  0.0774 -0.3557
 1136TIP3    H124823   4.048   2.151   3.873  0.4546  0.0949 -0.3529
 1136TIP3    H224824   3.983   2.074   3.759 -1.5022 -0.5937  1.1824
 1137TIP3   OH224825   2.465   3.839   3.826 -0.2003  0.1062 -0.1355
 1137TIP3    H124826   2.439   3.901   3.894  0.9981  2.1801 -1.5195
 1137TIP3    H224827   2.537   3.789   3.865  1.1974  2.0090 -0.1814
 1138TIP3   OH224828   5.770   4.668   2.246  0.1218 -0.2324 -0.0293
 1138TIP3    H124829   5.710   4.609   2.201 -0.2756 -1.0454  1.5597
 1138TIP3    H224830   5.763   4.645   2.338  0.5563  1.7584  0.5334
 1139TIP3   OH224831   3.045   1.818   0.304  0.0631  0.1170  0.0560
 1139TIP3    H124832   2.986   1.858   0.239 -1.0865 -1.7868 -0.1235
 1139TIP3    H224833   3.024   1.862   0.386 -0.8394  0.2357 -0.2323
 1140TIP3   OH224834   5.452   1.583  12.209  0.3229  0.0486 -0.7788
 1140TIP3    H124835   5.490   1.511  12.159 -1.0901 -1.4610  0.2923
 1140TIP3    H224836   5.376   1.611  12.159  1.6146  1.7258 -1.8783
 1141TIP3   OH224837   1.220   6.588  14.335  0.1938  0.2161  0.0831
 1141TIP3    H124838   1.203   6.494  14.341 -1.0737  0.4775  0.5698
 1141TIP3    H224839   1.180   6.625  14.414  2.2790  0.9497  0.8501
 1142TIP3   OH224840   2.247   6.187  12.721 -0.0325  0.1860 -0.1863
 1142TIP3    H124841   2.271   6.193  12.814 -0.2322 -1.9284  0.0096
 1142TIP3    H224842   2.293   6.110  12.689 -2.3345 -0.8434 -1.1152
 1143TIP3   OH224843   4.800   6.268   0.531 -0.7496  0.3125 -0.0007
 1143TIP3    H124844   4.825   6.334   0.467  2.8691  0.8529  1.8098
 1143TIP3    H224845   4.750   6.203   0.482  1.3780  1.0268 -3.2455
 1144TIP3   OH224846   0.320   1.484  12.180 -0.6009 -0.4867  0.3886
 1144TIP3    H124847   0.306   1.390  12.168  0.4441 -0.7268  1.0171
 1144TIP3    H224848   0.242   1.514  12.228 -1.5456 -0.7842 -0.9318
 1145TIP3   OH224849   5.035   1.978   4.373  0.5024 -0.3150 -0.4951
 1145TIP3    H124850   5.003   1.922   4.443  0.6756 -0.9365 -0.9124
 1145TIP3    H224851   5.108   2.027   4.412  0.4137 -0.4552 -0.1599
 1146TIP3   OH224852   0.832   6.571  16.588 -0.7759  0.6301 -0.5151
 1146TIP3    H124853   0.788   6.487  16.604  0.3196 -0.1652 -1.5810
 1146TIP3    H224854   0.882   6.588  16.667 -1.7040  0.7287  0.0604
 1147TIP3   OH224855   2.223   6.602  11.947 -0.1576 -0.1017  0.6878
 1147TIP3    H124856   2.132   6.623  11.969 -0.6137 -0.8238 -0.4716
 1147TIP3    H224857   2.274   6.646  12.015 -1.3957 -0.2379  1.7319
 1148TIP3   OH224858   3.715   4.459  17.049  0.4470  0.6159 -0.0616
 1148TIP3    H124859   3.750   4.374  17.024 -0.1145  0.5109 -0.4947
 1148TIP3    H224860   3.652   4.440  17.119  1.6656  0.8608  1.1171
 1149TIP3   OH224861   4.259   1.600  16.739 -0.0870  0.1496 -0.7424
 1149TIP3    H124862   4.183   1.554  16.703 -0.4558 -0.4679  0.8075
 1149TIP3    H224863   4.248   1.691  16.710 -0.6282 -0.2314 -1.7749
 1150TIP3   OH224864   4.445   4.134  12.371  0.8434  0.1136 -0.1698
 1150TIP3    H124865   4.478   4.213  12.329 -0.6395  1.8115  1.7607
 1150TIP3    H224866   4.523   4.085  12.394  1.7618  0.6881 -1.9741
 1151TIP3   OH224867   4.668   6.025  11.350 -0.6967 -0.1742  0.9317
 1151TIP3    H124868   4.712   6.100  11.389 -0.1663  1.0300 -1.9285
 1151TIP3    H224869   4.730   5.953  11.361  0.1469  0.5237  0.7890
 1152TIP3   OH224870   2.724   5.383   4.261 -0.2743 -0.5635 -0.0571
 1152TIP3    H124871   2.668   5.332   4.319  1.0035 -1.7932  0.1380
 1152TIP3    H224872   2.737   5.466   4.307  1.0380 -1.6624  1.6388
 1153TIP3   OH224873   3.947   2.714   0.998  0.8135  0.5604 -0.3875
 1153TIP3    H124874   3.856   2.709   1.028  0.2043 -0.9435 -2.3504
 1153TIP3    H224875   3.983   2.628   1.016  1.7856  1.0780  0.1643
 1154TIP3   OH224876   1.858   0.748  17.020 -0.4932 -0.1330  0.1438
 1154TIP3    H124877   1.836   0.823  17.076  0.1994 -0.4157  0.8078
 1154TIP3    H224878   1.816   0.673  17.063 -2.6322  0.0996 -1.4381
 1155TIP3   OH224879   3.647   3.518   2.455 -0.1288 -0.0979  0.1573
 1155TIP3    H124880   3.692   3.523   2.540 -0.1747 -0.9089  0.2376
 1155TIP3    H224881   3.606   3.431   2.456 -1.9575  0.7642  0.2055
 1156TIP3   OH224882   0.302   4.184  16.144 -0.0407 -0.4649  0.8328
 1156TIP3    H124883   0.242   4.114  16.118  0.1853 -1.0834  1.9099
 1156TIP3    H224884   0.247   4.245  16.193 -0.6744  1.2095 -1.8925
 1157TIP3   OH224885   2.663   2.671  10.877 -0.0816 -0.5494  0.0777
 1157TIP3    H124886   2.752   2.705  10.869  0.2010 -1.2802  0.0008
 1157TIP3    H224887   2.653   2.612  10.802 -0.5549 -0.6392  0.2081
 1158TIP3   OH224888   0.510   0.536  11.006 -0.5922 -0.4793  0.0217
 1158TIP3    H124889   0.514   0.632  11.007  1.0173 -0.5237 -0.5801
 1158TIP3    H224890   0.505   0.511  11.098 -1.0891  0.1805  0.1811
 1159TIP3   OH224891   2.127   5.091   4.152 -0.4063  0.0669 -0.2455
 1159TIP3    H124892   2.043   5.091   4.198  1.3349  0.3569  3.0991
 1159TIP3    H224893   2.163   5.178   4.169  1.8719 -1.0700  0.9201
 1160TIP3   OH224894   5.855   0.868   1.880  0.1160  0.2215  0.6924
 1160TIP3    H124895   5.904   0.813   1.942 -1.8737  0.3472  2.4538
 1160TIP3    H224896   5.855   0.817   1.798  2.2424 -0.2467  0.9538
 1161TIP3   OH224897   4.585   0.928   0.421  0.3995  0.3531  0.0396
 1161TIP3    H124898   4.674   0.925   0.456  1.2034 -1.0230 -2.0295
 1161TIP3    H224899   4.533   0.965   0.492  2.4557  0.3362  1.6157
 1162TIP3   OH224900   4.517   4.006   1.865  0.1556 -0.5901 -0.0389
 1162TIP3    H124901   4.460   3.956   1.923 -3.0867  1.1302 -1.6622
 1162TIP3    H224902   4.475   4.092   1.856  2.8063  0.6341 -1.5616
 1163TIP3   OH224903   5.794   2.567   5.983  0.2778  0.2063  0.2811
 1163TIP3    H124904   5.863   2.517   6.026  0.5027 -0.9327 -1.3261
 1163TIP3    H224905   5.804   2.546   5.890 -2.2204  0.0332  0.0092
 1164TIP3   OH224906   2.991   1.103   4.509 -0.1190  0.6809 -0.2487
 1164TIP3    H124907   3.026   1.174   4.456  0.0092 -0.0459 -1.1454
 1164TIP3    H224908   3.010   1.129   4.599  0.8967  1.2639 -0.6284
 1165TIP3   OH224909   4.388   5.664  10.496 -0.1384 -0.3169  0.0917
 1165TIP3    H124910   4.439   5.740  10.468 -0.3491  0.2118  1.1477
 1165TIP3    H224911   4.447   5.590  10.482 -0.1134 -0.0314 -1.4219
 1166TIP3   OH224912   2.490   6.005   6.310 -0.3767  0.2547  0.4186
 1166TIP3    H124913   2.413   5.949   6.299  0.6739 -0.8464 -1.7197
 1166TIP3    H224914   2.487   6.066   6.236  1.2024 -0.3257 -0.1567
 1167TIP3   OH224915   6.614   2.716   4.105 -0.5281 -0.3510  0.0350
 1167TIP3    H124916   6.663   2.702   4.024  1.9230 -2.2351  1.7704
 1167TIP3    H224917   6.613   2.630   4.148 -1.2795  0.7433  2.2822
 1168TIP3   OH224918   1.606   4.246  14.978  0.0509  0.0586 -0.2278
 1168TIP3    H124919   1.615   4.341  14.967  1.7402 -0.1425 -0.6371
 1168TIP3    H224920   1.689   4.218  15.016 -0.3629 -1.2906 -0.3107
 1169TIP3   OH224921   4.695   6.597   3.874 -0.2571 -0.3514 -0.2160
 1169TIP3    H124922   4.726   6.508   3.860 -1.4429 -0.8002 -0.0138
 1169TIP3    H224923   4.671   6.600   3.967 -0.5314  0.0789 -0.3002
 1170TIP3   OH224924   6.174   1.322  12.723 -0.5529 -0.6334  0.4691
 1170TIP3    H124925   6.112   1.345  12.793 -1.3597  1.0490 -0.7633
 1170TIP3    H224926   6.205   1.234  12.746 -2.0333 -0.7577  2.0726
 1171TIP3   OH224927   4.374   1.458  13.782  0.6300 -0.1749 -0.2726
 1171TIP3    H124928   4.466   1.464  13.809  0.4849 -0.2052  0.2376
 1171TIP3    H224929   4.339   1.545  13.799  0.0257 -0.7455  1.5518
 1172TIP3   OH224930   0.466   6.697   2.627  0.2315  0.4402 -0.2679
 1172TIP3    H124931   0.535   6.751   2.590 -0.1733  0.0492 -1.6502
 1172TIP3    H224932   0.408   6.678   2.552 -0.4284 -0.6497  0.4985
 1173TIP3   OH224933   3.887   3.956   5.577  0.5038 -0.6905 -0.2028
 1173TIP3    H124934   3.803   3.911   5.567 -0.7019  1.2633  0.8932
 1173TIP3    H224935   3.872   4.020   5.647  2.5919  0.4419 -0.7553
 1174TIP3   OH224936   4.401   4.412   5.584 -0.2378  0.3996  0.3666
 1174TIP3    H124937   4.422   4.387   5.674  2.8247  0.4040 -0.3178
 1174TIP3    H224938   4.425   4.336   5.531 -2.3438  0.2675 -0.4536
 1175TIP3   OH224939   6.339   2.658  14.613  0.2421 -0.6571  0.9866
 1175TIP3    H124940   6.398   2.677  14.686 -1.1323 -0.5104  2.0836
 1175TIP3    H224941   6.397   2.628  14.543  1.5468 -1.3318  2.3138
 1176TIP3   OH224942   2.142   4.239   0.859  0.0306  0.6304 -0.4163
 1176TIP3    H124943   2.135   4.153   0.819  0.6436  0.5924 -0.4397
 1176TIP3    H224944   2.209   4.229   0.926  0.1131  1.0945 -0.4297
 1177TIP3   OH224945   5.966   2.856  15.064 -0.1266  0.3778 -0.1934
 1177TIP3    H124946   5.942   2.811  15.146 -1.1999  0.5461 -0.3996
 1177TIP3    H224947   6.019   2.792  15.017  0.7404  0.3820  0.7529
 1178TIP3   OH224948   0.964   0.254  16.653  0.7351  0.3719  0.2562
 1178TIP3    H124949   1.006   0.322  16.601  1.0242  1.2952  1.6553
 1178TIP3    H224950   1.030   0.232  16.720  0.2149 -0.4742  0.4943
 1179TIP3   OH224951   1.413   0.010  16.406 -0.4523 -0.6870 -0.0480
 1179TIP3    H124952   1.447   0.005  16.496 -0.6060 -1.0501 -0.0072
 1179TIP3    H224953   1.319   0.024  16.416 -0.5222 -1.0760 -0.1455
 1180TIP3   OH224954   2.619   6.095   6.548 -0.2988 -0.2604  0.3408
 1180TIP3    H124955   2.577   6.019   6.588  0.3104 -1.4095 -1.1440
 1180TIP3    H224956   2.573   6.106   6.464 -0.1594  0.8166  0.3965
 1181TIP3   OH224957   6.162   3.689   4.644  0.0437 -0.4311 -0.2248
 1181TIP3    H124958   6.151   3.610   4.697  0.9407 -0.9273 -0.7607
 1181TIP3    H224959   6.165   3.761   4.708  0.8091 -0.9928  0.3855
 1182TIP3   OH224960   2.627   3.736   1.746 -0.0643  0.4209  0.4743
 1182TIP3    H124961   2.616   3.818   1.795  0.8349  1.1177 -0.4624
 1182TIP3    H224962   2.553   3.681   1.774  0.6518  0.6472  2.8898
 1183TIP3   OH224963   5.090   6.657  14.997 -0.8064  0.4263  0.3784
 1183TIP3    H124964   5.030   6.651  14.923 -1.3597 -0.1316  0.8620
 1183TIP3    H224965   5.123   6.568  15.009 -2.9111 -0.1173  2.5678
 1184TIP3   OH224966   1.716   6.043   5.739 -0.0309 -0.1572 -0.1518
 1184TIP3    H124967   1.684   5.991   5.812 -1.0499  0.8124  0.1153
 1184TIP3    H224968   1.636   6.075   5.696  0.5611 -0.3016 -1.3710
 1185TIP3   OH224969   6.300   0.284  17.168  0.2864  0.1496  0.0243
 1185TIP3    H124970   6.349   0.319  17.242 -0.8883  0.1460  0.8097
 1185TIP3    H224971   6.249   0.359  17.136 -1.1356 -0.4587  0.8119
 1186TIP3   OH224972   1.814   5.798   6.318  0.0740 -1.5462 -0.5861
 1186TIP3    H124973   1.751   5.760   6.258 -1.1825  2.1711 -1.7049
 1186TIP3    H224974   1.762   5.833   6.390  1.0319 -0.4275 -0.4129
 1187TIP3   OH224975   3.132   2.014  11.181 -0.8061 -0.2172  0.4445
 1187TIP3    H124976   3.192   2.088  11.171 -1.5311  0.4840  1.2006
 1187TIP3    H224977   3.070   2.023  11.108 -3.3288  2.2720  2.7609
 1188TIP3   OH224978   6.448   0.217   0.880  0.4164  0.1582  0.4251
 1188TIP3    H124979   6.536   0.185   0.859  0.4770  0.8379 -0.3727
 1188TIP3    H224980   6.395   0.137   0.887  0.4262 -0.1339 -2.2328
 1189TIP3   OH224981   3.318   1.871  15.791  0.4415 -0.0244  0.3387
 1189TIP3    H124982   3.316   1.953  15.742  0.0946 -0.7876 -0.9510
 1189TIP3    H224983   3.288   1.895  15.879 -0.2911  1.1109 -0.2072
 1190TIP3   OH224984   6.385   3.002   4.884 -0.1578 -0.4850 -0.5533
 1190TIP3    H124985   6.474   2.975   4.908 -0.2610 -0.2487  0.1056
 1190TIP3    H224986   6.331   2.925   4.903 -0.2753 -0.2173  0.1984
 1191TIP3   OH224987   0.723   5.054   1.345 -0.5387 -0.1502 -0.0018
 1191TIP3    H124988   0.633   5.088   1.341 -0.2403  0.7795  1.0441
 1191TIP3    H224989   0.722   4.991   1.417 -0.5132 -0.6351 -0.4240
 1192TIP3   OH224990   1.704   0.576  14.151 -0.9655  0.1223  0.5440
 1192TIP3    H124991   1.614   0.551  14.173 -0.1715 -1.6628  1.8306
 1192TIP3    H224992   1.758   0.535  14.218  1.1191 -1.6454 -2.1177
 1193TIP3   OH224993   4.483   4.721   3.830  1.0238 -0.1659 -0.0381
 1193TIP3    H124994   4.540   4.686   3.899 -0.8277 -0.9306  1.1504
 1193TIP3    H224995   4.528   4.800   3.799  1.8765  0.1839  2.0302
 1194TIP3   OH224996   6.713   0.286   3.050  0.3649 -0.2197 -0.4575
 1194TIP3    H124997   6.734   0.212   3.107  0.5172  0.4009  0.2969
 1194TIP3    H224998   6.667   0.348   3.107  1.7517  1.0223 -0.6599
 1195TIP3   OH224999   0.961   6.376  11.084  0.5116 -0.1338  0.0219
 1195TIP3    H125000   0.980   6.360  10.992 -0.5435  0.5540 -0.3295
 1195TIP3    H225001   0.911   6.458  11.084  2.0095  0.8186  1.3582
 1196TIP3   OH225002   4.471   3.197   6.053 -0.0916 -0.4952 -0.0629
 1196TIP3    H125003   4.565   3.215   6.061 -0.4317  0.8931  1.1248
 1196TIP3    H225004   4.456   3.118   6.105  0.1958  0.0754  0.8978
 1197TIP3   OH225005   5.198   4.548   0.113  0.2413  0.4181 -0.0498
 1197TIP3    H125006   5.103   4.544   0.099  0.4287  0.9938 -1.5100
 1197TIP3    H225007   5.236   4.530   0.027  1.4741 -0.2735  0.6275
 1198TIP3   OH225008   4.356   3.587  16.490  0.5342  0.5717 -0.1131
 1198TIP3    H125009   4.283   3.597  16.551  0.0134  0.3420 -0.7022
 1198TIP3    H225010   4.361   3.671  16.444  1.1404  0.8662  0.4652
 1199TIP3   OH225011   5.448   5.144  10.849  0.3055 -0.0990  0.1859
 1199TIP3    H125012   5.491   5.122  10.766  0.8737 -0.7086  0.6320
 1199TIP3    H225013   5.498   5.218  10.883 -0.7245  0.9888 -0.6293
 1200TIP3   OH225014   3.183   3.057  11.798 -0.4426  0.0114 -0.1584
 1200TIP3    H125015   3.148   3.145  11.812  0.5997  0.2903  0.7629
 1200TIP3    H225016   3.144   3.028  11.716  0.0511  1.7588 -1.0168
 1201TIP3   OH225017   0.892   5.957   6.176  0.1078 -0.5438 -0.2126
 1201TIP3    H125018   0.982   5.987   6.163 -0.1832 -0.0670 -1.1740
 1201TIP3    H225019   0.845   6.035   6.204  0.4030 -1.2292  2.3847
 1202TIP3   OH225020   3.452   4.646  11.369 -0.0152  0.2139 -0.4515
 1202TIP3    H125021   3.437   4.587  11.443  0.4432  0.7585  0.0888
 1202TIP3    H225022   3.407   4.727  11.393 -1.9844 -0.4375 -1.9069
 1203TIP3   OH225023   2.535   1.299  14.181 -0.4858 -0.1862  0.9797
 1203TIP3    H125024   2.464   1.354  14.214  0.0432  0.1927  1.5140
 1203TIP3    H225025   2.600   1.300  14.252  0.7293  0.7362 -0.1165
 1204TIP3   OH225026   3.713   2.991  12.373 -0.1561 -0.3478 -0.2836
 1204TIP3    H125027   3.656   3.006  12.448  0.5739 -0.4887  0.3017
 1204TIP3    H225028   3.669   3.036  12.301  1.0621  3.1630  1.0556
 1205TIP3   OH225029   6.720   4.437   3.812 -0.6149  0.5400 -0.0516
 1205TIP3    H125030   6.629   4.449   3.840 -0.8119  0.9914 -0.8769
 1205TIP3    H225031   6.764   4.401   3.889 -1.5504  0.0669  0.2722
 1206TIP3   OH225032   5.594   3.791  12.371  0.3831  0.2362  0.3437
 1206TIP3    H125033   5.634   3.860  12.424 -1.3234  1.0943  0.5404
 1206TIP3    H225034   5.568   3.724  12.434 -0.3156  0.5951  0.4409
 1207TIP3   OH225035   5.412   5.456  10.575  0.3589  0.0678  0.2456
 1207TIP3    H125036   5.415   5.497  10.662 -0.4986  1.1537 -0.2187
 1207TIP3    H225037   5.485   5.496  10.528  0.8060 -0.4993  0.4573
 1208TIP3   OH225038   5.827   0.304  14.613 -0.6104  0.2972 -0.1851
 1208TIP3    H125039   5.871   0.220  14.600 -1.9514 -0.3157 -0.8759
 1208TIP3    H225040   5.734   0.283  14.604 -0.8866  2.0812 -1.5565
 1209TIP3   OH225041   4.723   1.893  14.035 -0.3212 -0.3556  0.1951
 1209TIP3    H125042   4.785   1.966  14.032 -1.8915  0.9692 -0.9121
 1209TIP3    H225043   4.770   1.820  13.995  0.3473  0.7829 -1.1139
 1210TIP3   OH225044   3.935   4.143  12.008  0.0097 -0.3760  0.0896
 1210TIP3    H125045   3.880   4.175  11.937  0.9747  0.8538 -0.1183
 1210TIP3    H225046   4.021   4.129  11.967  0.2615 -0.7823  0.7526
 1211TIP3   OH225047   3.104   4.608  13.730 -0.1750 -0.2297 -0.2412
 1211TIP3    H125048   3.197   4.627  13.717 -0.5222  1.7905  0.1128
 1211TIP3    H225049   3.102   4.517  13.759  1.6014 -0.6444 -1.3402
 1212TIP3   OH225050   0.800   3.885  13.929 -0.1903 -0.5067 -0.3804
 1212TIP3    H125051   0.807   3.976  13.958  1.7714 -0.6166 -0.3886
 1212TIP3    H225052   0.738   3.887  13.857 -2.4392  0.3353  1.5210
 1213TIP3   OH225053   5.089   3.160  12.266  0.1166 -0.5080 -0.9089
 1213TIP3    H125054   5.075   3.176  12.173 -0.4745 -1.6823 -1.0303
 1213TIP3    H225055   5.038   3.082  12.285 -0.3479  0.1319  0.5612
 1214TIP3   OH225056   5.353   0.044  11.664  0.1521 -0.4203 -0.1077
 1214TIP3    H125057   5.300  -0.005  11.726 -0.4997  0.0773 -0.2655
 1214TIP3    H225058   5.425   0.080  11.717 -0.2667 -0.1972  0.3119
 1215TIP3   OH225059   4.860   6.741   0.636 -0.1740  0.1525 -0.2148
 1215TIP3    H125060   4.938   6.703   0.597 -0.8749 -1.2947 -0.2480
 1215TIP3    H225061   4.815   6.667   0.676 -0.7104  1.2272  1.2131
 1216TIP3   OH225062   5.717   0.318   5.322 -0.4035  0.3692  0.0958
 1216TIP3    H125063   5.631   0.344   5.356 -0.3957  1.4809 -0.6915
 1216TIP3    H225064   5.738   0.237   5.369 -0.6440  1.5501  2.3024
 1217TIP3   OH225065   0.050   0.807  11.176 -0.1063 -0.2918  0.1434
 1217TIP3    H125066   0.043   0.825  11.082 -0.3759  2.0398  0.5769
 1217TIP3    H225067   0.142   0.822  11.196 -0.1866 -0.0868  0.3674
 1218TIP3   OH225068   0.103   6.003  16.412  0.1037  0.4120  0.6670
 1218TIP3    H125069   0.136   6.013  16.323  0.8471  0.6416  0.9654
 1218TIP3    H225070   0.181   5.986  16.465 -0.1867  1.4167  1.4425
 1219TIP3   OH225071   6.508   0.896   5.434  0.0017 -0.5760  0.4238
 1219TIP3    H125072   6.487   0.922   5.344 -0.3711 -4.1258 -0.6132
 1219TIP3    H225073   6.536   0.805   5.426  1.0356 -0.6207  3.7937
 1220TIP3   OH225074   0.200   5.128  11.690  0.1928 -0.1002  0.2433
 1220TIP3    H125075   0.296   5.126  11.697  0.0953 -0.7311  1.4725
 1220TIP3    H225076   0.184   5.154  11.599  1.5112  2.0712  0.6110
 1221TIP3   OH225077   3.670   0.699   5.144 -0.0933 -0.6756  0.0658
 1221TIP3    H125078   3.764   0.688   5.153  0.1850  1.9059  0.7002
 1221TIP3    H225079   3.646   0.646   5.068  2.2608  0.5436 -1.5733
 1222TIP3   OH225080   4.695   3.378   0.411  0.2390  0.7107 -0.0430
 1222TIP3    H125081   4.780   3.381   0.367  1.1007 -0.2587  1.5077
 1222TIP3    H225082   4.689   3.289   0.444 -0.9627  1.0632  0.6997
 1223TIP3   OH225083   4.495   4.630  16.944 -0.5131 -0.7236 -0.1844
 1223TIP3    H125084   4.552   4.576  16.889  0.3610  0.0171 -0.0237
 1223TIP3    H225085   4.545   4.641  17.025 -1.8248 -1.8857  0.7998
 1224TIP3   OH225086   5.799   3.564   3.688 -0.2723  0.0325 -0.2965
 1224TIP3    H125087   5.825   3.558   3.780 -1.1892 -0.8265 -0.0886
 1224TIP3    H225088   5.726   3.503   3.679 -0.4477  0.3986 -1.5078
 1225TIP3   OH225089   1.908   6.396   5.776  0.2242  0.0954  0.0999
 1225TIP3    H125090   1.907   6.434   5.864  1.0883  1.3327 -0.4167
 1225TIP3    H225091   1.988   6.430   5.736 -1.2794  1.3481 -1.9492
 1226TIP3   OH225092   5.429   5.918   4.335  0.4385  0.3625 -0.5295
 1226TIP3    H125093   5.442   5.836   4.286 -0.4670 -0.2295  0.2058
 1226TIP3    H225094   5.488   5.981   4.292 -0.3807 -0.1200 -2.4168
 1227TIP3   OH225095   5.135   6.513   3.113  0.1099  0.0524 -0.0767
 1227TIP3    H125096   5.199   6.550   3.174 -0.6277  0.8684  0.2056
 1227TIP3    H225097   5.051   6.525   3.156 -0.1515 -1.9330 -0.0000
 1228TIP3   OH225098   1.955   6.561  14.409 -0.8045  0.3030 -0.3166
 1228TIP3    H125099   1.933   6.519  14.492 -0.8880  2.4001  0.7704
 1228TIP3    H225100   2.035   6.517  14.380 -0.0666  0.3754  1.5239
 1229TIP3   OH225101   6.139   4.329   6.325  0.1132  0.5236  0.5341
 1229TIP3    H125102   6.212   4.308   6.383  2.4921 -0.2345 -2.5999
 1229TIP3    H225103   6.171   4.307   6.238 -3.7872  0.4519 -0.9622
 1230TIP3   OH225104   3.345   0.232  13.440 -0.3914 -0.2816 -0.5654
 1230TIP3    H125105   3.382   0.320  13.441  2.2024 -1.3180  1.5286
 1230TIP3    H225106   3.374   0.195  13.357  3.9985 -1.2584  1.2473
 1231TIP3   OH225107   3.639   1.807   5.652 -0.3202  0.1117  0.5765
 1231TIP3    H125108   3.618   1.881   5.594  2.0165  0.8105  0.5741
 1231TIP3    H225109   3.572   1.811   5.720 -1.8959  0.5239 -0.9546
 1232TIP3   OH225110   5.320   0.260  12.604  0.1055 -0.0734 -0.4446
 1232TIP3    H125111   5.413   0.275  12.620 -0.2547  2.0315 -0.2118
 1232TIP3    H225112   5.282   0.347  12.597 -2.2374 -0.8604  1.6377
 1233TIP3   OH225113   1.396   3.669  12.963  0.2727 -0.2583 -0.1614
 1233TIP3    H125114   1.478   3.695  12.921  0.2305 -0.8393 -0.5992
 1233TIP3    H225115   1.347   3.751  12.973 -0.0426 -0.2103 -1.9318
 1234TIP3   OH225116   2.233   0.868  12.664 -0.4388 -0.6718  0.0082
 1234TIP3    H125117   2.165   0.931  12.690  0.7785  0.4827  0.4858
 1234TIP3    H225118   2.315   0.910  12.692  0.6665 -0.9208 -2.7492
 1235TIP3   OH225119   5.758   2.649   5.021  0.8751 -0.3966 -0.3696
 1235TIP3    H125120   5.689   2.640   4.955 -0.8163  0.9386  1.1946
 1235TIP3    H225121   5.816   2.575   5.004 -1.4742 -2.1328 -1.0772
 1236TIP3   OH225122   6.420   1.851  16.170  0.6548  0.2331 -0.3832
 1236TIP3    H125123   6.401   1.944  16.162  0.9932  0.4324  0.9093
 1236TIP3    H225124   6.515   1.846  16.181  0.5167 -0.1462  0.7996
 1237TIP3   OH225125   6.292   0.276  12.623 -0.1064  0.1421  0.1367
 1237TIP3    H125126   6.313   0.327  12.701  0.5088 -2.7218  1.9294
 1237TIP3    H225127   6.276   0.188  12.656 -0.4549 -0.9968 -2.9294
 1238TIP3   OH225128   4.412   2.519  13.699 -0.5156 -0.1693  0.5528
 1238TIP3    H125129   4.409   2.508  13.604 -1.0241  1.8205  0.3110
 1238TIP3    H225130   4.500   2.554  13.715 -0.4928 -0.3415  0.8000
 1239TIP3   OH225131   2.828   6.567  14.393  0.2761  0.2818  0.4214
 1239TIP3    H125132   2.873   6.486  14.417  1.8229  1.5652  1.9800
 1239TIP3    H225133   2.762   6.579  14.460  0.0737  0.3487  0.2124
 1240TIP3   OH225134   0.672   3.390  13.716  0.3192  0.5133 -0.4817
 1240TIP3    H125135   0.653   3.382  13.623  0.4688  0.7077 -0.5303
 1240TIP3    H225136   0.741   3.457  13.720  1.8459 -1.0086 -0.4304
 1241TIP3   OH225137   4.512   5.008   5.700  0.1180 -0.0320 -0.5148
 1241TIP3    H125138   4.543   4.930   5.745  2.8074  0.1735 -1.8821
 1241TIP3    H225139   4.498   5.072   5.770  1.0643 -0.7245  0.3291
 1242TIP3   OH225140   5.611   4.343   2.572  0.8076 -0.0053  0.2108
 1242TIP3    H125141   5.537   4.371   2.625  0.8244 -0.7286  0.6264
 1242TIP3    H225142   5.686   4.349   2.631  0.4362 -3.3623  1.1202
 1243TIP3   OH225143   1.160   3.706   4.109  0.1490 -0.4702  0.2283
 1243TIP3    H125144   1.246   3.691   4.068  0.4442 -0.5264  0.8565
 1243TIP3    H225145   1.180   3.756   4.188 -0.5270  0.5609 -0.2462
 1244TIP3   OH225146   1.905   5.574   4.007  1.3103 -0.3806 -0.3073
 1244TIP3    H125147   1.917   5.490   3.963 -1.0278 -1.6102  1.2882
 1244TIP3    H225148   1.843   5.622   3.952  1.8915 -0.0917 -0.7110
 1245TIP3   OH225149   3.541   1.794  13.703  0.1884  0.1433 -0.3146
 1245TIP3    H125150   3.542   1.721  13.765 -0.0087  0.4172  0.0091
 1245TIP3    H225151   3.611   1.852  13.732 -1.2950  1.3445  0.9415
 1246TIP3   OH225152   3.244   6.491  10.753 -0.0173  0.0402 -0.3134
 1246TIP3    H125153   3.176   6.526  10.811  0.6032 -0.7347  0.9235
 1246TIP3    H225154   3.280   6.568  10.710  0.8095  0.8959  1.7980
 1247TIP3   OH225155   3.641   0.832   1.470  0.4395  0.0837 -0.0771
 1247TIP3    H125156   3.680   0.745   1.481  2.1288  0.8715  0.3966
 1247TIP3    H225157   3.576   0.838   1.540 -0.3208 -1.1228 -0.6546
 1248TIP3   OH225158   3.133   1.627  16.995  0.2352  0.3391 -0.0233
 1248TIP3    H125159   3.142   1.656  16.904  2.4287 -1.6540 -0.5044
 1248TIP3    H225160   3.051   1.577  16.996  0.2746  0.2463 -0.9309
 1249TIP3   OH225161   4.564   2.175  14.919  0.2603 -0.1219 -0.0665
 1249TIP3    H125162   4.585   2.090  14.880  0.9385  0.2634 -0.5483
 1249TIP3    H225163   4.597   2.169  15.009 -1.2150 -0.9749  0.4192
 1250TIP3   OH225164   4.981   1.327  12.963 -0.3914 -1.1915  1.0020
 1250TIP3    H125165   5.024   1.307  13.046 -0.6397 -0.4436  1.3123
 1250TIP3    H225166   4.939   1.412  12.977 -0.3373 -1.0069  0.0740
 1251TIP3   OH225167   5.423   1.447  13.813  0.2415  0.1516 -0.9183
 1251TIP3    H125168   5.434   1.513  13.882  0.0909 -0.8389  0.0795
 1251TIP3    H225169   5.342   1.472  13.769 -0.8956 -0.4711  0.7457
 1252TIP3   OH225170   1.125   4.090   1.517  0.2323 -0.0557  0.2595
 1252TIP3    H125171   1.102   4.047   1.599  1.3313  1.2056  1.2580
 1252TIP3    H225172   1.041   4.123   1.483 -0.0304  0.7534  1.6699
 1253TIP3   OH225173   6.102   2.889  12.527  0.1225  0.0569  0.0041
 1253TIP3    H125174   6.028   2.850  12.480  0.4232  0.0340 -0.4497
 1253TIP3    H225175   6.179   2.866  12.474  0.2729  1.4945 -0.4177
 1254TIP3   OH225176   6.423   3.082   3.966  0.1573  0.1016  0.2312
 1254TIP3    H125177   6.328   3.070   3.970  0.2742 -0.8269  0.2846
 1254TIP3    H225178   6.448   3.046   3.880  0.7198 -1.5312  1.0515
 1255TIP3   OH225179   3.712   2.281   5.937  0.0745  0.4091 -0.1106
 1255TIP3    H125180   3.780   2.338   5.973  0.9172 -0.2379 -0.6586
 1255TIP3    H225181   3.636   2.338   5.926  0.7566  1.3147 -0.2139
 1256TIP3   OH225182   6.043   4.346   5.709 -0.2496  0.1726  0.0778
 1256TIP3    H125183   6.108   4.393   5.762 -0.7984 -0.1187  1.0180
 1256TIP3    H225184   6.002   4.285   5.770 -0.3211 -0.7414 -0.8790
 1257TIP3   OH225185   0.053   5.465  13.071 -0.5102  0.8813 -0.1250
 1257TIP3    H125186   0.001   5.400  13.117  0.2514 -0.0933 -0.6299
 1257TIP3    H225187   0.119   5.493  13.135  0.4430 -0.3510 -0.5480
 1258TIP3   OH225188   4.632   6.561  14.202  0.2185  0.1591 -0.3002
 1258TIP3    H125189   4.539   6.555  14.178  0.0263  1.4382  0.0963
 1258TIP3    H225190   4.655   6.652  14.184  1.5923 -0.3311 -1.0640
 1259TIP3   OH225191   6.718   1.196  11.825 -0.3247  0.1907 -0.1470
 1259TIP3    H125192   6.777   1.266  11.854  1.8519 -1.6221 -0.0474
 1259TIP3    H225193   6.772   1.142  11.768 -2.3915 -0.6211 -1.3765
 1260TIP3   OH225194   5.654   1.028  13.219  0.5163  0.1819 -0.3179
 1260TIP3    H125195   5.613   1.006  13.303 -0.1147  0.8365 -0.4604
 1260TIP3    H225196   5.647   0.947  13.168  0.7476 -0.1678  0.1939
 1261TIP3   OH225197   1.759   4.275   1.385  0.0637  0.4121  0.0448
 1261TIP3    H125198   1.801   4.359   1.363  1.0262  0.1472  0.8402
 1261TIP3    H225199   1.817   4.209   1.347  0.6814  0.0225  1.6402
 1262TIP3   OH225200   1.128   2.724   6.543  0.0975  0.1850  0.5585
 1262TIP3    H125201   1.154   2.802   6.592 -1.4170  0.4022  1.0415
 1262TIP3    H225202   1.048   2.750   6.497  1.1271 -0.2217 -1.5515
 1263TIP3   OH225203   5.613   1.392  14.529  0.3644  1.0027  0.2130
 1263TIP3    H125204   5.643   1.345  14.607  3.2043  0.6216 -1.0694
 1263TIP3    H225205   5.621   1.328  14.458  2.2287  2.7269 -1.1923
 1264TIP3   OH225206   0.482   5.803  14.472  0.0679  0.2402 -0.2902
 1264TIP3    H125207   0.557   5.753  14.505  0.5074  0.4517 -0.9540
 1264TIP3    H225208   0.406   5.761  14.511  0.6374  1.1795  1.8848
 1265TIP3   OH225209   5.787   5.799  16.286  0.4008  0.3768 -0.5041
 1265TIP3    H125210   5.733   5.750  16.224  0.2275 -1.0616  0.7554
 1265TIP3    H225211   5.871   5.809  16.242  0.3307 -0.7698 -0.9210
 1266TIP3   OH225212   5.702   1.541   2.450  0.3159 -0.1033 -0.3000
 1266TIP3    H125213   5.776   1.556   2.508 -0.1437  1.3899 -0.0700
 1266TIP3    H225214   5.694   1.623   2.400  0.0802 -0.9868 -1.7568
 1267TIP3   OH225215   1.048   4.101   4.315  0.1785 -0.2737 -0.3061
 1267TIP3    H125216   0.990   4.169   4.350  0.7617  0.5153 -0.8613
 1267TIP3    H225217   1.135   4.141   4.314  0.4903 -0.9516 -0.8542
 1268TIP3   OH225218   5.436   4.163   3.111  0.0457 -0.1819 -0.2112
 1268TIP3    H125219   5.382   4.234   3.076 -0.8150 -0.6766  0.0972
 1268TIP3    H225220   5.495   4.206   3.173  0.6984  0.5074 -1.2979
 1269TIP3   OH225221   2.417   3.259  11.607 -0.5110  0.0976 -0.4679
 1269TIP3    H125222   2.507   3.229  11.621 -0.2879  0.4785 -1.0357
 1269TIP3    H225223   2.409   3.268  11.512 -1.0984  0.2242 -0.4092
 1270TIP3   OH225224   0.145   6.107  14.413 -0.3414  0.4266 -0.8007
 1270TIP3    H125225   0.197   6.155  14.348  0.7370  0.1372 -0.1760
 1270TIP3    H225226   0.131   6.170  14.483 -0.7614  0.4781 -0.9312
 1271TIP3   OH225227   0.614   3.312  14.291 -0.4449  0.0999 -0.3202
 1271TIP3    H125228   0.688   3.315  14.231 -0.5525  0.1852 -0.4481
 1271TIP3    H225229   0.567   3.394  14.275  0.8830  1.2632  1.6108
 1272TIP3   OH225230   1.411   1.359  15.932 -0.1044  0.2867 -0.0876
 1272TIP3    H125231   1.375   1.422  15.870  0.3920 -1.9219 -2.6980
 1272TIP3    H225232   1.489   1.402  15.967  0.1044  1.2358 -1.6489
 1273TIP3   OH225233   6.679   3.289  17.219  0.2213  0.0825 -0.2997
 1273TIP3    H125234   6.759   3.276  17.170  0.0003 -0.2383 -0.5820
 1273TIP3    H225235   6.697   3.362  17.278  0.3303  0.7724 -1.1815
 1274TIP3   OH225236   6.673   1.061   1.760 -0.1485 -0.7843 -0.0046
 1274TIP3    H125237   6.715   0.980   1.787  1.5864  0.2229  0.4425
 1274TIP3    H225238   6.713   1.083   1.676 -0.0224  0.0044  0.2537
 1275TIP3   OH225239   6.074   4.998   3.621 -0.0847 -0.4330  0.0676
 1275TIP3    H125240   6.049   5.041   3.539 -1.8661 -0.8143  0.3864
 1275TIP3    H225241   6.000   5.014   3.680  2.2080  1.9812  2.4435
 1276TIP3   OH225242   2.177   0.163   3.670  0.3134  0.4775 -0.3908
 1276TIP3    H125243   2.091   0.164   3.712  0.8714  0.4853  0.7639
 1276TIP3    H225244   2.236   0.127   3.737  0.9827 -0.7570 -1.6089
 1277TIP3   OH225245   3.615   4.650   4.208 -0.7910 -0.0548  1.5419
 1277TIP3    H125246   3.634   4.740   4.182  1.7414 -0.0660  3.1153
 1277TIP3    H225247   3.595   4.656   4.301 -2.8600 -0.8684  1.1762
 1278TIP3   OH225248   6.268   5.435   3.069  0.4960  0.0300 -0.7862
 1278TIP3    H125249   6.254   5.365   3.133 -0.7146 -1.6158 -2.7962
 1278TIP3    H225250   6.203   5.419   3.001  2.3011  1.2567 -2.8565
 1279TIP3   OH225251   0.752   3.218  16.015  0.3222 -0.0106 -0.3858
 1279TIP3    H125252   0.661   3.239  16.035  0.4275  0.5933 -0.5618
 1279TIP3    H225253   0.772   3.267  15.936  0.9392  0.2017 -0.1013
 1280TIP3   OH225254   6.235   3.510   5.549 -0.3933 -0.5003  0.0025
 1280TIP3    H125255   6.198   3.570   5.484 -0.9767 -0.0319  0.7745
 1280TIP3    H225256   6.171   3.439   5.555 -0.0954 -0.8028 -0.2959
 1281TIP3   OH225257   2.304   6.385   5.742  0.0770 -0.1925 -0.2433
 1281TIP3    H125258   2.228   6.389   5.684  1.0910 -2.1503 -1.7783
 1281TIP3    H225259   2.275   6.335   5.818 -0.5094  0.1034 -0.2707
 1282TIP3   OH225260   2.068   4.097  12.219 -0.1490 -0.5833  0.2521
 1282TIP3    H125261   2.028   4.048  12.291 -2.4821  1.6465  0.5553
 1282TIP3    H225262   2.001   4.161  12.194  2.1623  1.3040 -1.2527
 1283TIP3   OH225263   4.314   0.245  12.748  0.5460 -0.1758  0.2452
 1283TIP3    H125264   4.352   0.165  12.783  2.1566  0.8404  0.8708
 1283TIP3    H225265   4.256   0.276  12.818  1.6440  0.3823  0.9244
 1284TIP3   OH225266   6.467   2.546  14.389  0.2124 -0.2406 -0.0761
 1284TIP3    H125267   6.485   2.482  14.459  1.9953  1.2102  0.8279
 1284TIP3    H225268   6.545   2.545  14.335 -1.1550 -1.3471 -2.1219
 1285TIP3   OH225269   4.680   5.484   0.142 -0.1181  0.1905 -0.2180
 1285TIP3    H125270   4.603   5.496   0.086  1.0243  0.0368 -1.8769
 1285TIP3    H225271   4.754   5.509   0.086  1.0734 -0.1870  1.1627
 1286TIP3   OH225272   4.258   4.961  11.003 -0.1055 -0.2764  0.3666
 1286TIP3    H125273   4.307   4.907  10.941  0.0012 -0.6589  0.7765
 1286TIP3    H225274   4.209   5.023  10.949  2.0767  1.2005 -0.0035
 1287TIP3   OH225275   6.488   3.199  13.077  0.4747 -0.3689  0.4802
 1287TIP3    H125276   6.419   3.250  13.035  2.2625  0.5091 -1.4726
 1287TIP3    H225277   6.474   3.213  13.171 -2.6196 -1.0950  0.1846
 1288TIP3   OH225278   3.121   5.001   3.966 -0.0182  0.2560  0.0455
 1288TIP3    H125279   3.186   4.987   4.035 -0.0431 -0.8787 -0.1645
 1288TIP3    H225280   3.114   5.097   3.959  1.2886  0.3798  0.3805
 1289TIP3   OH225281   5.629   4.337   0.582 -1.0284  0.0559 -0.3575
 1289TIP3    H125282   5.655   4.414   0.631 -0.0074  0.1336 -0.9927
 1289TIP3    H225283   5.612   4.369   0.493 -2.6411 -0.1152 -0.1276
 1290TIP3   OH225284   3.059   0.513  11.105 -0.5014 -0.1242  0.0337
 1290TIP3    H125285   3.063   0.483  11.014 -2.2186 -0.2332 -0.0158
 1290TIP3    H225286   3.048   0.608  11.098  0.9386  0.0659  0.1582
 1291TIP3   OH225287   0.427   2.658  15.772  0.6248  0.1475  0.3564
 1291TIP3    H125288   0.376   2.739  15.769  1.7306  0.8619  0.5943
 1291TIP3    H225289   0.517   2.687  15.792  1.3167 -1.0090 -1.0167
 1292TIP3   OH225290   4.725   2.995   3.099  0.4086 -0.6557 -0.1430
 1292TIP3    H125291   4.794   3.018   3.162  1.6240 -1.1215 -1.2928
 1292TIP3    H225292   4.761   2.922   3.050 -0.2953  0.0978 -1.7954
 1293TIP3   OH225293   1.268   2.656   0.100  0.3640 -0.4168  0.6408
 1293TIP3    H125294   1.273   2.745   0.134 -1.3021  1.2411 -3.1358
 1293TIP3    H225295   1.359   2.628   0.090  0.8946  0.9610  1.6200
 1294TIP3   OH225296   3.287   5.981   0.881  0.3177  0.2150  0.6343
 1294TIP3    H125297   3.361   5.921   0.888 -0.7810 -1.0244  1.8846
 1294TIP3    H225298   3.228   5.938   0.818 -1.3136 -0.9500  2.9070
 1295TIP3   OH225299   0.977   5.372  13.178  0.7422 -0.0235  0.2426
 1295TIP3    H125300   0.905   5.415  13.132  1.9633  1.8980  0.0445
 1295TIP3    H225301   1.004   5.301  13.121 -0.4581 -0.2486 -0.0589
 1296TIP3   OH225302   4.422   0.904  10.522  0.0328  0.4446  0.0923
 1296TIP3    H125303   4.368   0.824  10.518  0.6480  0.0304 -0.0083
 1296TIP3    H225304   4.511   0.871  10.530  0.2917  1.1323 -0.0152
 1297TIP3   OH225305   5.957   4.421  15.023  0.5469  0.5860  0.6302
 1297TIP3    H125306   5.989   4.346  14.973 -0.0142  0.7426  0.0419
 1297TIP3    H225307   5.965   4.495  14.963 -0.0789  0.7825  0.7886
 1298TIP3   OH225308   2.513   2.154  11.493  0.3758 -0.2321 -0.1539
 1298TIP3    H125309   2.472   2.157  11.580  0.4719 -2.0147 -0.0318
 1298TIP3    H225310   2.592   2.208  11.503 -1.5763  2.7677 -0.2434
 1299TIP3   OH225311   3.685   5.770   4.106  0.2656 -0.1756 -0.0352
 1299TIP3    H125312   3.768   5.769   4.153  0.1902 -0.1624  0.0981
 1299TIP3    H225313   3.707   5.806   4.020  0.5378 -0.8896 -0.2717
 1300TIP3   OH225314   5.352   4.205  15.113 -0.1978  0.5258  0.1902
 1300TIP3    H125315   5.301   4.141  15.163  0.5146 -0.8132 -0.7561
 1300TIP3    H225316   5.439   4.165  15.107  0.1097  1.3510 -0.8756
 1301TIP3   OH225317   4.296   4.215   3.048 -0.2376  0.7939 -0.3107
 1301TIP3    H125318   4.326   4.155   3.116 -0.9954 -1.2102 -1.7120
 1301TIP3    H225319   4.202   4.224   3.064 -0.0248  2.1414  0.2802
 1302TIP3   OH225320   5.404   2.587  14.266 -0.0838  0.0287 -0.4293
 1302TIP3    H125321   5.420   2.525  14.338  0.6221  1.4665  0.6863
 1302TIP3    H225322   5.376   2.667  14.310 -0.2173  0.7529 -1.8133
 1303TIP3   OH225323   5.862   3.768  16.609 -0.4507  0.0065 -0.2281
 1303TIP3    H125324   5.818   3.683  16.602 -0.7718  0.0894  0.7993
 1303TIP3    H225325   5.950   3.752  16.573 -0.6836 -0.6272 -0.5158
 1304TIP3   OH225326   6.483   3.868  11.607 -0.4109 -0.0648 -0.0662
 1304TIP3    H125327   6.393   3.837  11.595 -0.3011 -0.6907  0.7381
 1304TIP3    H225328   6.473   3.962  11.626 -0.8541 -0.0183 -0.4964
 1305TIP3   OH225329   0.589   0.221   0.599 -0.2470 -0.5784  0.6629
 1305TIP3    H125330   0.612   0.234   0.692 -1.0384 -2.5179  1.1493
 1305TIP3    H225331   0.663   0.172   0.563 -1.2360 -2.3308  0.9799
 1306TIP3   OH225332   3.289   2.459   1.131  0.2762 -0.0577 -0.1011
 1306TIP3    H125333   3.258   2.407   1.205 -1.3053  1.7403  0.5407
 1306TIP3    H225334   3.211   2.507   1.101  0.9109 -0.6739 -2.8687
 1307TIP3   OH225335   1.990   5.300   2.073  0.3242 -0.5574 -0.1370
 1307TIP3    H125336   2.009   5.387   2.109  0.9508 -0.6254 -0.2905
 1307TIP3    H225337   2.075   5.270   2.038  0.9338 -2.6647  2.9775
 1308TIP3   OH225338   3.849   5.148   2.441  0.6694 -0.5681 -0.1125
 1308TIP3    H125339   3.776   5.206   2.417  0.9725  0.1525  0.6705
 1308TIP3    H225340   3.905   5.147   2.364 -0.1780 -1.1411 -0.7310
 1309TIP3   OH225341   6.186   1.002  17.211 -0.2478  0.4235 -0.0232
 1309TIP3    H125342   6.096   0.972  17.197 -1.3502  3.6523 -0.2710
 1309TIP3    H225343   6.182   1.051  17.294  1.3873  0.2500  0.1720
 1310TIP3   OH225344   3.351   3.292  11.523  0.5416  0.2435  0.3669
 1310TIP3    H125345   3.308   3.217  11.482 -1.2730  1.2254  0.3930
 1310TIP3    H225346   3.409   3.326  11.456 -1.7356  1.2964 -1.1278
 1311TIP3   OH225347   4.008   5.965  15.360 -0.0697 -0.6843  0.4850
 1311TIP3    H125348   3.989   5.886  15.308  0.4129 -0.8978  0.6345
 1311TIP3    H225349   4.042   5.932  15.443  2.0619 -0.2886 -0.1964
 1312TIP3   OH225350   0.027   5.017  15.788 -0.4319  0.7994  0.6406
 1312TIP3    H125351   0.063   4.997  15.874  0.0877 -0.2865  0.1707
 1312TIP3    H225352  -0.043   4.953  15.776 -0.1779  0.6325  0.0457
 1313TIP3   OH225353   2.523   3.416   3.508  0.1401  0.8206 -0.3674
 1313TIP3    H125354   2.574   3.335   3.500 -2.3374 -0.6056 -2.0772
 1313TIP3    H225355   2.564   3.476   3.445 -1.4099 -0.9477 -3.1349
 1314TIP3   OH225356   0.847   4.700   0.436 -0.0354 -0.4779  0.0457
 1314TIP3    H125357   0.926   4.654   0.409  0.5619 -0.8649  2.3009
 1314TIP3    H225358   0.879   4.771   0.492 -1.2515 -0.2934  0.5211
 1315TIP3   OH225359   1.248   1.464   2.250  0.0025  0.3220  0.3379
 1315TIP3    H125360   1.240   1.490   2.158 -1.5168 -1.6207 -0.1302
 1315TIP3    H225361   1.179   1.514   2.295 -0.8417 -0.5266 -0.0065
 1316TIP3   OH225362   4.919   0.715  15.675  0.2568  0.2252 -0.4553
 1316TIP3    H125363   5.010   0.697  15.696  0.1722  1.1929  0.7304
 1316TIP3    H225364   4.923   0.779  15.604  0.5029  0.0192 -0.6287
 1317TIP3   OH225365   1.226   1.660  14.654  0.1262  0.3459  0.6380
 1317TIP3    H125366   1.246   1.681  14.562 -1.3826  0.2251  0.2726
 1317TIP3    H225367   1.312   1.655  14.696  0.9115 -0.6672 -0.9952
 1318TIP3   OH225368   1.361   5.671   2.297 -0.1910  0.6396  0.0846
 1318TIP3    H125369   1.348   5.619   2.217 -1.1923  0.2779  0.4700
 1318TIP3    H225370   1.454   5.664   2.314 -0.1138 -0.0623 -0.5379
 1319TIP3   OH225371   2.948   5.139   2.333  0.0573 -0.3696 -0.1718
 1319TIP3    H125372   2.968   5.100   2.248  0.5581 -1.0143  0.2377
 1319TIP3    H225373   3.033   5.165   2.369  0.1158 -2.4058  1.2264
 1320TIP3   OH225374   0.710   4.067  12.862 -0.1136 -0.3620  0.2027
 1320TIP3    H125375   0.674   4.095  12.778  0.0191 -0.8500 -0.0172
 1320TIP3    H225376   0.650   4.104  12.927 -0.1817  0.0653 -0.1056
 1321TIP3   OH225377   1.890   6.475   0.278 -0.2402 -0.5594  0.6618
 1321TIP3    H125378   1.821   6.471   0.344  0.1697  0.3115  1.1550
 1321TIP3    H225379   1.856   6.426   0.204 -1.9156  0.9677  0.4095
 1322TIP3   OH225380   4.550   6.721   1.010 -0.1511 -0.4938  0.4785
 1322TIP3    H125381   4.488   6.755   0.945 -1.1394 -2.6654  0.2521
 1322TIP3    H225382   4.517   6.754   1.094 -1.1985 -1.0414  0.2879
 1323TIP3   OH225383   6.774   1.771  11.527  0.3408 -0.2681  0.2373
 1323TIP3    H125384   6.842   1.721  11.481  1.1465  2.3019 -1.4251
 1323TIP3    H225385   6.692   1.729  11.500  0.9990 -0.6846 -1.2011
 1324TIP3   OH225386   2.888   4.963  12.018 -0.7402 -0.5065  0.1899
 1324TIP3    H125387   2.891   5.057  12.037 -3.0860 -0.4245  0.3058
 1324TIP3    H225388   2.956   4.926  12.074  1.3567  1.2806 -1.0694
 1325TIP3   OH225389   1.761   4.612  14.453 -0.1173  0.5032 -0.1824
 1325TIP3    H125390   1.815   4.539  14.424 -0.8611  0.3666 -1.2522
 1325TIP3    H225391   1.812   4.690  14.432 -0.1092  0.3564 -0.7020
 1326TIP3   OH225392   3.898   4.543   2.024 -0.4168 -0.7831 -0.0893
 1326TIP3    H125393   3.819   4.524   1.973 -1.8191  0.2718  1.6422
 1326TIP3    H225394   3.893   4.484   2.099  0.5363 -0.8261 -0.0516
 1327TIP3   OH225395   3.082   0.121   3.511  0.4767  0.3750  0.8881
 1327TIP3    H125396   3.121   0.087   3.431  0.4333  0.5652  0.7845
 1327TIP3    H225397   3.112   0.063   3.580 -1.3274 -1.1482  0.4334
 1328TIP3   OH225398   4.223   4.371   0.064 -0.4413 -0.0737 -0.4533
 1328TIP3    H125399   4.239   4.448   0.009  1.2080 -1.1580 -1.5368
 1328TIP3    H225400   4.296   4.371   0.126 -0.7927 -0.4024 -0.0356
 1329TIP3   OH225401   4.297   3.011  12.902  1.0034 -0.2002  0.6699
 1329TIP3    H125402   4.278   3.036  12.812 -3.0648  1.5768  1.9096
 1329TIP3    H225403   4.266   2.920  12.908  1.2139 -0.2971  0.3374
 1330TIP3   OH225404   5.583   4.271  13.306  0.1554  0.3377  0.1218
 1330TIP3    H125405   5.651   4.331  13.275  0.3892  0.1130  0.2014
 1330TIP3    H225406   5.627   4.212  13.367 -0.1368  0.2712  0.2728
 1331TIP3   OH225407   0.679   1.066  16.581 -0.2496 -0.5037 -0.2748
 1331TIP3    H125408   0.705   1.109  16.662 -0.0026 -1.6424  0.2524
 1331TIP3    H225409   0.584   1.073  16.579 -0.1272  1.4097 -0.9542
 1332TIP3   OH225410   2.230   6.197   3.738  0.1403 -0.4126  0.1092
 1332TIP3    H125411   2.324   6.206   3.726  0.1812 -1.2308 -0.1862
 1332TIP3    H225412   2.217   6.202   3.833  0.5229 -0.7475  0.1754
 1333TIP3   OH225413   6.781   4.989   1.540  0.2010  0.2016 -0.2948
 1333TIP3    H125414   6.834   4.917   1.573 -0.7047 -0.5051 -0.3397
 1333TIP3    H225415   6.708   4.995   1.602  0.7552  1.7053  0.2443
 1334TIP3   OH225416   4.170   2.775  14.028  0.0426  0.5149  0.0831
 1334TIP3    H125417   4.081   2.765  13.993 -0.7282  3.8609  0.8803
 1334TIP3    H225418   4.227   2.761  13.952 -1.1022 -2.4194 -0.2723
 1335TIP3   OH225419   4.831   3.063  13.124  0.4973 -0.3853 -0.1287
 1335TIP3    H125420   4.736   3.061  13.129  0.5401 -1.1689  0.3616
 1335TIP3    H225421   4.849   3.093  13.035 -0.2060  0.8506  0.1337
 1336TIP3   OH225422   1.555   3.787   3.574  1.0017 -0.1162  0.4690
 1336TIP3    H125423   1.503   3.834   3.510  0.1778 -1.8505 -0.1737
 1336TIP3    H225424   1.645   3.798   3.545  0.8696  1.4521  0.6088
 1337TIP3   OH225425   6.128   4.421  13.127 -0.4332 -0.2526  0.0213
 1337TIP3    H125426   6.105   4.378  13.045 -0.7583  1.2725 -0.6873
 1337TIP3    H225427   6.108   4.513  13.113  0.3937  0.1650  1.4916
 1338TIP3   OH225428   4.914   6.317  11.811 -0.2386 -0.0853 -0.4395
 1338TIP3    H125429   4.932   6.240  11.866  2.4799  1.4878  1.0441
 1338TIP3    H225430   4.986   6.319  11.749  0.3080  1.7887  0.2036
 1339TIP3   OH225431   5.442   3.326  14.800 -0.1339 -0.0036 -0.2677
 1339TIP3    H125432   5.512   3.301  14.740  1.6560  1.0114  1.3387
 1339TIP3    H225433   5.451   3.265  14.874 -1.0513  0.0375 -0.1135
 1340TIP3   OH225434   1.505   4.870  16.797 -0.5061 -0.0365 -0.0302
 1340TIP3    H125435   1.533   4.877  16.889  0.0521 -0.8135 -0.1381
 1340TIP3    H225436   1.492   4.961  16.770 -1.7892  0.1571  1.1580
 1341TIP3   OH225437   0.100   4.210   2.365  0.1540 -0.3178 -0.3557
 1341TIP3    H125438   0.027   4.149   2.381 -1.4083  1.8701  1.1321
 1341TIP3    H225439   0.089   4.237   2.274 -1.5063  0.7473  0.1430
 1342TIP3   OH225440   5.706   4.246   4.781 -0.0035  0.4643 -0.2195
 1342TIP3    H125441   5.722   4.209   4.694  1.0806 -0.6097  0.4232
 1342TIP3    H225442   5.786   4.295   4.801 -0.6065  1.4403 -0.1954
 1343TIP3   OH225443   1.833   1.872  15.113  0.2646  0.2392 -0.1403
 1343TIP3    H125444   1.770   1.937  15.145  0.8431 -0.4657  2.5274
 1343TIP3    H225445   1.789   1.833  15.037 -1.9895  0.6516  0.8898
 1344TIP3   OH225446   6.326   6.767   2.116  0.5631 -0.7044 -0.2702
 1344TIP3    H125447   6.381   6.712   2.060  1.0278  0.1905 -0.7077
 1344TIP3    H225448   6.385   6.797   2.185  0.5512 -0.0132 -0.5519
 1345TIP3   OH225449   6.391   0.377   4.094 -0.4205  0.3581  0.6820
 1345TIP3    H125450   6.318   0.391   4.034  0.4587 -1.2796 -0.8412
 1345TIP3    H225451   6.406   0.462   4.135 -0.9504  1.5426 -1.5309
 1346TIP3   OH225452   3.381   1.118   5.111 -0.2211  0.0392 -0.1340
 1346TIP3    H125453   3.381   1.027   5.140 -1.7925  0.2563  0.6031
 1346TIP3    H225454   3.430   1.117   5.029  1.2652 -1.1762  0.7281
 1347TIP3   OH225455   3.676   3.193  15.925 -0.2598 -0.3976 -0.0245
 1347TIP3    H125456   3.742   3.254  15.891 -1.1181 -0.4861 -1.9242
 1347TIP3    H225457   3.727   3.118  15.958  0.7213  0.7509  1.1206
 1348TIP3   OH225458   2.097   5.927   3.203 -0.0717 -0.0205 -0.4782
 1348TIP3    H125459   2.067   5.841   3.176  1.4703 -0.3730 -1.1296
 1348TIP3    H225460   2.022   5.985   3.187 -1.7476 -1.5228  1.6999
 1349TIP3   OH225461   5.495   3.900  16.685  0.1955 -0.0001  0.3226
 1349TIP3    H125462   5.568   3.926  16.628 -0.4329 -0.0609 -0.5072
 1349TIP3    H225463   5.477   3.809  16.662  0.2963 -0.1965  1.0039
 1350TIP3   OH225464   3.016   4.008  12.860  0.1163 -0.3277 -0.0378
 1350TIP3    H125465   3.085   4.020  12.794  0.1769  1.6244  0.3475
 1350TIP3    H225466   2.995   4.097  12.889 -1.3072 -1.0329  1.1525
 1351TIP3   OH225467   3.517   3.795  11.016  0.4885  1.0878  0.3642
 1351TIP3    H125468   3.532   3.849  10.938 -1.6663  2.0330  0.5918
 1351TIP3    H225469   3.594   3.738  11.019 -0.4877 -0.6689 -3.8648
 1352TIP3   OH225470   5.885   1.193   3.495  0.4920 -0.1249 -0.2233
 1352TIP3    H125471   5.956   1.166   3.436  0.6125  0.7303 -0.4720
 1352TIP3    H225472   5.849   1.110   3.527  1.1167 -0.5833 -0.6711
 1353TIP3   OH225473   3.150   5.968  15.132 -0.1100 -0.0248 -0.2110
 1353TIP3    H125474   3.149   5.907  15.205  1.3681 -1.4838 -1.3701
 1353TIP3    H225475   3.088   6.036  15.156 -0.7507 -1.2732  1.7213
 1354TIP3   OH225476   2.601   6.361   3.828 -0.3794  0.5672 -0.0748
 1354TIP3    H125477   2.615   6.278   3.874  0.4406  0.1991 -0.9651
 1354TIP3    H225478   2.577   6.423   3.897 -0.4889 -0.2885  0.6656
 1355TIP3   OH225479   0.453   1.722   0.130  0.1280 -0.4507  0.4227
 1355TIP3    H125480   0.421   1.693   0.216 -0.8681 -1.3086 -0.2184
 1355TIP3    H225481   0.467   1.640   0.082  1.7862 -0.0099  0.1616
 1356TIP3   OH225482   6.225   5.149  11.643  0.2473 -0.2825 -0.0555
 1356TIP3    H125483   6.256   5.234  11.673  1.8850 -1.2669  1.1946
 1356TIP3    H225484   6.191   5.107  11.722  0.6055 -1.2493 -0.3976
 1357TIP3   OH225485   1.073   3.170  11.824  0.0680 -0.2990  0.2663
 1357TIP3    H125486   0.995   3.115  11.820  0.6007 -1.0829  0.4726
 1357TIP3    H225487   1.064   3.232  11.752 -1.2556  0.2872  0.9366
 1358TIP3   OH225488   3.562   4.558   0.902  0.6145  0.9213  0.3394
 1358TIP3    H125489   3.499   4.492   0.932 -0.1977  2.4222  2.0200
 1358TIP3    H225490   3.638   4.507   0.875 -0.8858 -0.8506 -0.6628
 1359TIP3   OH225491   6.717   6.308  15.164 -0.4608 -0.0298  0.0230
 1359TIP3    H125492   6.726   6.215  15.143 -0.9731  0.4468 -2.4356
 1359TIP3    H225493   6.807   6.341  15.169 -0.3000 -0.4679 -0.0243
 1360TIP3   OH225494   4.725   6.098   3.832  0.7958  0.4167  0.2370
 1360TIP3    H125495   4.696   6.017   3.873  1.1371  0.0277 -0.2799
 1360TIP3    H225496   4.785   6.138   3.895  0.7131  0.2092  0.4439
 1361TIP3   OH225497   0.568   5.587   5.867 -0.6162 -0.1973 -0.6852
 1361TIP3    H125498   0.521   5.631   5.796 -0.9180  0.7788  0.1128
 1361TIP3    H225499   0.640   5.646   5.888 -0.8663 -0.2134  0.2130
 1362TIP3   OH225500   4.921   1.069   1.803 -0.3977  0.7236  1.1613
 1362TIP3    H125501   4.968   1.105   1.728 -1.2582  1.3739  0.9290
 1362TIP3    H225502   4.985   1.012   1.845  0.3235  0.9059  0.3462
 1363TIP3   OH225503   4.814   3.178   0.601  0.3563  0.5084  0.6147
 1363TIP3    H125504   4.888   3.209   0.654 -0.0202 -2.2192  2.8248
 1363TIP3    H225505   4.850   3.107   0.548 -0.9953 -2.1600  3.1085
 1364TIP3   OH225506   3.255   3.954   4.270  0.8407  0.0354  0.0228
 1364TIP3    H125507   3.220   3.984   4.354 -1.6987  0.6760 -1.1910
 1364TIP3    H225508   3.324   4.017   4.249  1.9375 -0.4974  1.8946
 1365TIP3   OH225509   3.235   1.252  13.234  0.4095 -0.2298  0.3112
 1365TIP3    H125510   3.167   1.187  13.215  1.2359 -0.9632 -0.1671
 1365TIP3    H225511   3.189   1.321  13.281 -0.1898 -1.8506  2.1740
 1366TIP3   OH225512   4.653   1.015   4.214 -0.2837 -0.5854  0.5701
 1366TIP3    H125513   4.649   1.083   4.281  0.4689  0.0895 -0.0603
 1366TIP3    H225514   4.590   0.949   4.242 -0.2848 -0.1009  1.7154
 1367TIP3   OH225515   0.455   4.710  16.735 -0.2994 -0.4312 -0.1498
 1367TIP3    H125516   0.476   4.667  16.818  0.7174 -0.7088 -0.5442
 1367TIP3    H225517   0.467   4.642  16.669  0.4124  0.1927 -0.6750
 1368TIP3   OH225518   3.393   4.484  14.229  0.3339 -1.0882 -0.8291
 1368TIP3    H125519   3.458   4.460  14.295  0.6325  0.2407 -0.6202
 1368TIP3    H225520   3.424   4.444  14.148  0.5445 -1.8202 -0.3944
 1369TIP3   OH225521   0.471   1.259   3.943 -0.3911 -1.0618  0.4631
 1369TIP3    H125522   0.486   1.320   4.016  2.8255  0.6943 -1.5840
 1369TIP3    H225523   0.541   1.194   3.952  1.2938  0.2963 -2.1290
 1370TIP3   OH225524   0.886   0.488  13.380 -0.4650 -0.0584 -0.4545
 1370TIP3    H125525   0.882   0.395  13.404 -1.4650 -0.3547 -1.7051
 1370TIP3    H225526   0.797   0.520  13.394 -0.1443  0.7092 -0.1058
 1371TIP3   OH225527   1.290   2.771  14.545  0.2548 -0.6533 -0.2229
 1371TIP3    H125528   1.383   2.757  14.526  1.0062  1.2313  1.8648
 1371TIP3    H225529   1.284   2.761  14.640 -1.6957 -0.7521 -0.3450
 1372TIP3   OH225530   4.835   1.027   5.693  0.4513  0.1587  0.0256
 1372TIP3    H125531   4.807   1.013   5.783  0.9577 -0.8046  0.0370
 1372TIP3    H225532   4.782   1.101   5.663  0.1293  0.3483  1.0398
 1373TIP3   OH225533   3.670   1.952  14.985  0.1866  0.4010  0.1722
 1373TIP3    H125534   3.637   1.975  14.898  1.7284  0.8586 -0.3121
 1373TIP3    H225535   3.634   2.020  15.043 -0.8576  0.0862 -0.1000
 1374TIP3   OH225536   2.417   3.562  14.351  0.6564 -0.2731 -0.4464
 1374TIP3    H125537   2.409   3.526  14.262 -0.1195 -0.1075 -0.4462
 1374TIP3    H225538   2.337   3.534  14.396  0.7776  0.1336  0.0245
 1375TIP3   OH225539   2.746   4.618  12.666  0.4676 -0.3970  0.6199
 1375TIP3    H125540   2.737   4.712  12.679  0.4263 -0.2764 -0.2879
 1375TIP3    H225541   2.823   4.608  12.610  0.1726 -0.8740  0.2914
 1376TIP3   OH225542   4.454   4.651   2.590 -0.2132  0.7423  0.1990
 1376TIP3    H125543   4.510   4.581   2.624  0.0038  1.1986  0.8080
 1376TIP3    H225544   4.472   4.653   2.496 -1.4653 -1.1132 -0.0927
 1377TIP3   OH225545   2.305   4.964  16.179 -0.0645 -0.0916  0.1245
 1377TIP3    H125546   2.279   4.883  16.135  1.4598 -0.9381  0.7568
 1377TIP3    H225547   2.400   4.963  16.178 -0.0378  2.0554 -0.4725
 1378TIP3   OH225548   2.819   5.906   3.243  0.2639 -0.0043  0.4281
 1378TIP3    H125549   2.914   5.918   3.233  0.1448  0.5280 -0.0866
 1378TIP3    H225550   2.782   5.940   3.162 -0.3172 -0.9752  0.2893
 1379TIP3   OH225551   0.158   5.753   2.857  0.7227  0.0320 -0.1434
 1379TIP3    H125552   0.166   5.666   2.819 -0.0132 -0.1409  0.0996
 1379TIP3    H225553   0.185   5.742   2.948  2.7751  0.5062 -0.6723
 1380TIP3   OH225554   6.333   6.542   4.595  0.1047 -0.4534  0.4885
 1380TIP3    H125555   6.394   6.529   4.523  0.6544  1.8567  0.4972
 1380TIP3    H225556   6.272   6.468   4.589  0.9868 -1.0471 -1.4633
 1381TIP3   OH225557   0.117   6.578  16.209  0.3875 -0.7473  0.1583
 1381TIP3    H125558   0.062   6.507  16.242  2.3852 -1.2936  2.5414
 1381TIP3    H225559   0.088   6.656  16.257  0.8556 -0.7823  0.5025
 1382TIP3   OH225560   5.884   0.577   6.152 -0.1752  0.3088 -0.1328
 1382TIP3    H125561   5.885   0.672   6.157 -0.7925  0.3847 -1.2327
 1382TIP3    H225562   5.880   0.548   6.243  2.5594  1.2780  0.3432
 1383TIP3   OH225563   5.363   3.605   6.061 -0.3682  0.3663 -0.8099
 1383TIP3    H125564   5.442   3.634   6.016 -0.2883  0.1506 -0.8107
 1383TIP3    H225565   5.337   3.679   6.116  0.2008  0.2003 -0.3219
 1384TIP3   OH225566   3.788   5.624   2.193  0.0284 -0.3014 -0.3874
 1384TIP3    H125567   3.780   5.682   2.117  0.2412  1.1596  0.6806
 1384TIP3    H225568   3.775   5.681   2.268 -1.6203 -1.9983  0.6551
 1385TIP3   OH225569   5.876   4.650  16.830  0.3938 -0.7017 -0.1558
 1385TIP3    H125570   5.948   4.713  16.824 -0.4731  0.7296  3.1906
 1385TIP3    H225571   5.902   4.592  16.902 -0.9527 -1.2456 -0.1120
 1386TIP3   OH225572   3.137   3.277  16.213  0.0327 -0.3820 -0.0460
 1386TIP3    H125573   3.058   3.326  16.238  0.7278  1.2010 -0.9050
 1386TIP3    H225574   3.201   3.298  16.281  0.0171 -0.9346  0.1438
 1387TIP3   OH225575   5.552   4.016  15.162 -0.3787 -0.3293  0.0716
 1387TIP3    H125576   5.641   4.044  15.142 -0.0943 -0.7198  0.7962
 1387TIP3    H225577   5.538   3.939  15.107  0.2715 -1.1815  1.0934
 1388TIP3   OH225578   3.786   5.938   3.825  0.0350  0.1269  0.2263
 1388TIP3    H125579   3.708   5.988   3.802  0.3006  0.1045 -0.7692
 1388TIP3    H225580   3.795   5.873   3.754  1.9320  1.2480 -0.6102
 1389TIP3   OH225581   1.547   1.501   5.394 -0.0221 -0.1113  0.0281
 1389TIP3    H125582   1.642   1.497   5.400  0.0866 -0.2430 -1.7033
 1389TIP3    H225583   1.516   1.436   5.458  1.0730 -0.9331 -0.2628
 1390TIP3   OH225584   2.673   6.401   1.868 -0.0675  0.2276 -0.1726
 1390TIP3    H125585   2.660   6.307   1.879 -0.5548  0.1419 -1.3842
 1390TIP3    H225586   2.686   6.412   1.774  1.2304  1.2259  0.1091
 1391TIP3   OH225587   4.211   3.700   5.047 -0.2454  0.4818  0.0838
 1391TIP3    H125588   4.246   3.767   5.105  1.1163  0.2240 -0.3994
 1391TIP3    H225589   4.285   3.640   5.032 -0.8763 -0.0488 -1.0335
 1392TIP3   OH225590   5.982   5.444  11.884 -0.0161  0.4098 -0.2800
 1392TIP3    H125591   5.938   5.383  11.826 -0.7059  2.0009 -1.4733
 1392TIP3    H225592   5.928   5.445  11.963  1.0001 -1.8601  0.4739
 1393TIP3   OH225593   0.420   5.044   1.075 -0.0393  0.2926 -0.4109
 1393TIP3    H125594   0.385   5.122   1.031  1.7654  1.4587  0.1532
 1393TIP3    H225595   0.386   5.050   1.164  2.6996  2.2467  0.5783
 1394TIP3   OH225596   3.343   2.946  14.445 -0.7480  1.0165  0.1585
 1394TIP3    H125597   3.315   3.005  14.375 -0.9130 -0.8884 -1.4185
 1394TIP3    H225598   3.288   2.970  14.520 -2.4528  1.2937 -1.1530
 1395TIP3   OH225599   2.618   3.019   0.562  0.6729  0.0201 -0.0941
 1395TIP3    H125600   2.554   2.967   0.515 -2.3960  4.0308 -0.6536
 1395TIP3    H225601   2.692   3.027   0.502  0.7203 -2.6080 -0.4312
 1396TIP3   OH225602   5.762   4.947  13.009  0.0325 -0.3159 -0.0802
 1396TIP3    H125603   5.817   5.012  13.053 -0.2999 -0.8413  1.1168
 1396TIP3    H225604   5.821   4.873  12.994 -0.5460 -1.2467  2.0374
 1397TIP3   OH225605   5.358   3.591  15.855 -0.0153  0.6605 -0.3971
 1397TIP3    H125606   5.318   3.504  15.859 -0.1930  0.7888  1.1998
 1397TIP3    H225607   5.452   3.575  15.860  0.0052  0.5013 -1.2855
 1398TIP3   OH225608   4.492   1.564   2.199  0.0416  0.4684  0.0729
 1398TIP3    H125609   4.413   1.579   2.148  0.3429  1.4619 -0.1050
 1398TIP3    H225610   4.542   1.501   2.147 -1.4178 -1.5687  1.0394
 1399TIP3   OH225611   1.642   3.971   1.921  0.1106  0.2914 -0.4697
 1399TIP3    H125612   1.567   3.912   1.915  0.8854 -0.5755 -1.9865
 1399TIP3    H225613   1.707   3.921   1.971 -0.3713  1.1325  1.0529
 1400TIP3   OH225614   4.227   2.476  16.553 -0.4258 -0.4395  0.6476
 1400TIP3    H125615   4.233   2.405  16.617  0.2713 -0.5130  0.5006
 1400TIP3    H225616   4.317   2.507  16.543 -0.4212 -0.9379 -0.8846
 1401TIP3   OH225617   3.484   6.264   0.244  0.0532 -0.2710  0.7817
 1401TIP3    H125618   3.411   6.214   0.281 -0.2655 -1.4510 -1.3769
 1401TIP3    H225619   3.449   6.303   0.164  1.3481  0.4697  0.5570
 1402TIP3   OH225620   4.007   0.004  11.501 -0.9011  0.3850  0.0388
 1402TIP3    H125621   4.068   0.064  11.544 -0.5261 -0.4923  0.7455
 1402TIP3    H225622   3.926   0.012  11.550 -0.5126 -0.5176  0.8477
 1403TIP3   OH225623   4.125   5.537  10.764 -0.1398 -0.2576 -0.6229
 1403TIP3    H125624   4.074   5.543  10.683 -2.7893 -1.3958  0.9113
 1403TIP3    H225625   4.181   5.460  10.751  0.7963  0.6544 -2.0907
 1404TIP3   OH225626   5.976   1.686   3.776  0.0202  0.4529  0.5834
 1404TIP3    H125627   5.966   1.712   3.868  2.0679 -0.5683  1.1507
 1404TIP3    H225628   5.917   1.611   3.766  0.0215  0.3676  1.1828
 1405TIP3   OH225629   6.277   2.748   1.400 -0.4867  0.2178  0.4495
 1405TIP3    H125630   6.359   2.708   1.370 -0.8478 -1.1792  1.3074
 1405TIP3    H225631   6.283   2.839   1.369 -0.2989 -0.8274 -2.7056
 1406TIP3   OH225632   3.827   4.213   3.515  0.3404  0.0181  0.3514
 1406TIP3    H125633   3.774   4.276   3.564 -0.0731  0.9468 -1.2627
 1406TIP3    H225634   3.838   4.140   3.576 -0.3657  1.0285  1.7424
 1407TIP3   OH225635   3.738   4.529   5.834  0.0410  0.3085 -0.3304
 1407TIP3    H125636   3.819   4.526   5.885  0.3382 -0.7332 -0.8598
 1407TIP3    H225637   3.690   4.450   5.859 -1.4205  1.5690  0.9553
 1408TIP3   OH225638   1.761   3.714  16.273  0.3066 -0.3197  0.2035
 1408TIP3    H125639   1.676   3.738  16.310 -0.2124 -1.5599 -0.1478
 1408TIP3    H225640   1.741   3.642  16.213  1.7118 -1.1733  0.7328
 1409TIP3   OH225641   5.693   0.983   2.775 -0.1208 -0.5276 -0.1873
 1409TIP3    H125642   5.783   0.960   2.799 -0.2938 -0.1061  0.8819
 1409TIP3    H225643   5.702   1.033   2.694  0.7541  0.8705  0.7431
 1410TIP3   OH225644   2.339   2.272  12.694 -0.0746  0.5168 -0.2469
 1410TIP3    H125645   2.419   2.223  12.710 -0.4918 -0.4072 -0.9618
 1410TIP3    H225646   2.360   2.361  12.723  1.6812  0.6152 -1.6872
 1411TIP3   OH225647   3.986   0.932  14.829  0.3989 -0.1363  0.2266
 1411TIP3    H125648   4.023   0.865  14.887  1.2691 -0.6955 -0.9617
 1411TIP3    H225649   4.056   0.952  14.767 -0.1366  1.3051  0.0800
 1412TIP3   OH225650   4.683   1.609  15.599  0.2153  0.7557 -0.4681
 1412TIP3    H125651   4.649   1.656  15.676  1.5332  0.0478  0.5508
 1412TIP3    H225652   4.714   1.678  15.541  2.0155  1.1885  0.9650
 1413TIP3   OH225653   3.782   1.992   1.863 -0.2077 -0.3460  0.7305
 1413TIP3    H125654   3.695   1.954   1.860 -0.0128 -0.7197 -0.8038
 1413TIP3    H225655   3.830   1.948   1.793  1.1951 -0.1126  1.5226
 1414TIP3   OH225656   2.038   6.349  13.107  0.0822  0.2716 -0.6200
 1414TIP3    H125657   2.076   6.315  13.026  1.2820  0.7078 -0.2517
 1414TIP3    H225658   1.960   6.295  13.121 -0.7176  0.8648 -2.5984
 1415TIP3   OH225659   4.228   4.327  14.540  0.0541 -0.4815  1.0800
 1415TIP3    H125660   4.272   4.290  14.617  1.7642  0.7166  0.7231
 1415TIP3    H225661   4.296   4.329  14.472 -2.0430 -3.5884 -1.1907
 1416TIP3   OH225662   6.540   6.374   2.703 -0.1192  0.0887  0.1681
 1416TIP3    H125663   6.473   6.323   2.748  0.5799 -0.7352  0.2872
 1416TIP3    H225664   6.501   6.394   2.617 -0.9599  0.6068  0.6616
 1417TIP3   OH225665   6.628   2.255  15.560  0.0637 -0.3624  0.0486
 1417TIP3    H125666   6.659   2.253  15.650 -2.0183  0.1894  0.8149
 1417TIP3    H225667   6.685   2.317  15.516  1.0772 -0.6042  0.9987
 1418TIP3   OH225668   4.363   3.242  15.778 -0.1805 -0.6988  0.7819
 1418TIP3    H125669   4.358   3.147  15.775  1.7082 -0.7846 -3.5257
 1418TIP3    H225670   4.292   3.272  15.721 -0.4191  0.4899  1.6700
 1419TIP3   OH225671   1.107   0.709   0.923  0.2797  0.1555 -0.6664
 1419TIP3    H125672   1.095   0.803   0.907 -0.9652  0.3470  1.1883
 1419TIP3    H225673   1.018   0.675   0.933  0.7447 -1.1236 -0.7441
 1420TIP3   OH225674   4.199   3.734  12.273 -0.6193  0.0079 -0.5916
 1420TIP3    H125675   4.201   3.799  12.202 -0.5275  0.5091 -0.1326
 1420TIP3    H225676   4.220   3.784  12.352 -1.3453 -0.4343 -0.1124
 1421TIP3   OH225677   2.600   0.613   2.910  0.3856 -0.3574 -0.2875
 1421TIP3    H125678   2.551   0.694   2.918  1.6635  0.2844  1.4173
 1421TIP3    H225679   2.536   0.544   2.928 -0.2816  0.3814  0.1833
 1422TIP3   OH225680   2.866   4.761   1.516 -0.2689 -0.0816  0.0971
 1422TIP3    H125681   2.801   4.751   1.447 -1.6365  1.7206  1.0716
 1422TIP3    H225682   2.902   4.848   1.503  1.2248 -0.6736  0.1918
 1423TIP3   OH225683   0.293   5.037   5.523  0.5362 -0.5997 -0.1825
 1423TIP3    H125684   0.251   4.994   5.598  0.5031  2.6218  1.7565
 1423TIP3    H225685   0.369   5.081   5.561 -0.6453  2.8467 -1.5873
 1424TIP3   OH225686   3.414   5.770  14.804 -0.2493  0.0883  0.1395
 1424TIP3    H125687   3.495   5.719  14.795  0.0584  0.8076 -1.3853
 1424TIP3    H225688   3.361   5.743  14.729 -1.2875 -0.1126  0.9388
 1425TIP3   OH225689   4.112   3.880  16.566  0.1857 -0.7108 -0.1478
 1425TIP3    H125690   4.073   3.930  16.495  0.7143 -0.7903 -0.4986
 1425TIP3    H225691   4.205   3.874  16.543  0.4811 -0.2146  0.8494
 1426TIP3   OH225692   6.310   5.582  17.002 -0.2781 -0.3002  0.5827
 1426TIP3    H125693   6.302   5.577  16.907  0.2591 -3.5314  0.6179
 1426TIP3    H225694   6.366   5.658  17.018 -0.2617  0.1905 -1.6990
 1427TIP3   OH225695   1.908   6.680  12.855 -0.3897 -0.4468 -0.4827
 1427TIP3    H125696   1.936   6.597  12.815  0.5632 -0.4979  0.2781
 1427TIP3    H225697   1.965   6.691  12.931 -1.0027  0.5467 -0.1525
 1428TIP3   OH225698   6.103   6.640   4.028  0.2656  0.0861  0.0854
 1428TIP3    H125699   6.109   6.604   3.940  1.3249  0.1831  0.1081
 1428TIP3    H225700   6.055   6.574   4.078 -0.6192  0.1759 -0.6408
 1429TIP3   OH225701   3.323   0.714   5.722 -0.0493  0.1216 -0.1424
 1429TIP3    H125702   3.301   0.785   5.783  0.2659  0.4443 -0.3986
 1429TIP3    H225703   3.342   0.640   5.779 -2.6033 -0.4180  0.0546
 1430TIP3   OH225704   1.283   5.919   2.243  0.1465  0.2183  0.3060
 1430TIP3    H125705   1.353   5.955   2.188  0.2654  0.3042  0.5130
 1430TIP3    H225706   1.311   5.829   2.261  0.9489  0.7222  1.6397
 1431TIP3   OH225707   3.940   3.335  12.103  0.4237  0.0537  0.0333
 1431TIP3    H125708   3.979   3.411  12.060  0.9488 -0.0002  0.4179
 1431TIP3    H225709   4.004   3.265  12.092  0.4637 -0.0229  0.6974
 1432TIP3   OH225710   0.489   6.726  13.725 -0.1428 -0.0319 -0.4464
 1432TIP3    H125711   0.448   6.812  13.713  1.4667  0.7317 -0.5318
 1432TIP3    H225712   0.415   6.667  13.742 -1.3445  1.1886 -1.3151
 1433TIP3   OH225713   2.578   0.825  14.728 -0.3138 -0.6345  0.0826
 1433TIP3    H125714   2.545   0.784  14.647 -1.9768 -2.0112  1.4105
 1433TIP3    H225715   2.565   0.758  14.795  1.9410  0.1477  1.3442
 1434TIP3   OH225716   0.379   3.261   3.348  0.1284  0.3906 -0.7063
 1434TIP3    H125717   0.433   3.190   3.383 -1.0635  0.2660  0.9726
 1434TIP3    H225718   0.432   3.340   3.361 -0.6119  0.4609  2.2952
 1435TIP3   OH225719   0.200   1.698   1.851  0.1074  0.8158 -0.3617
 1435TIP3    H125720   0.280   1.699   1.905 -0.8102  0.7615  1.0312
 1435TIP3    H225721   0.193   1.607   1.821  1.5466  1.2286 -1.9915
 1436TIP3   OH225722   5.558   3.440   0.058 -0.3494 -0.3606  0.2169
 1436TIP3    H125723   5.543   3.534   0.068 -3.2286 -0.9841  2.5646
 1436TIP3    H225724   5.477   3.406   0.020  1.1624 -1.7402 -1.8722
 1437TIP3   OH225725   1.560   6.235  15.175 -0.6959  0.5655  0.5210
 1437TIP3    H125726   1.584   6.175  15.247 -1.6428  0.3195  0.6292
 1437TIP3    H225727   1.594   6.320  15.203  2.1334 -0.1876 -0.3645
 1438TIP3   OH225728   0.462   0.674   4.643  0.2062  0.2973 -0.1563
 1438TIP3    H125729   0.541   0.701   4.597 -0.2968  0.9424 -0.6462
 1438TIP3    H225730   0.465   0.578   4.641  1.0081  0.3166 -0.1032
 1439TIP3   OH225731   4.425   1.936  14.002 -0.1082  0.1265  0.7510
 1439TIP3    H125732   4.516   1.949  14.030  0.1780  0.8028 -0.4705
 1439TIP3    H225733   4.419   1.982  13.918 -1.3638 -0.5952  0.4383
 1440TIP3   OH225734   6.676   0.405   5.009  0.2761 -0.1320  0.6879
 1440TIP3    H125735   6.580   0.409   5.008  0.3004  0.2250 -0.2210
 1440TIP3    H225736   6.699   0.350   4.934  0.8423  1.0044  0.0229
 1441TIP3   OH225737   4.244   0.226   2.942 -0.3164 -0.2020 -0.8710
 1441TIP3    H125738   4.287   0.252   2.860  0.6452 -0.5020 -0.4615
 1441TIP3    H225739   4.295   0.152   2.973 -1.2636 -0.6870 -0.4875
 1442TIP3   OH225740   3.830   0.354   0.759 -0.1502  0.5161 -0.3850
 1442TIP3    H125741   3.752   0.326   0.808  0.7196 -1.3508 -0.0255
 1442TIP3    H225742   3.896   0.371   0.826 -0.1559  1.9163 -0.7024
 1443TIP3   OH225743   1.673   5.606  17.010  0.1053  0.0680  0.3447
 1443TIP3    H125744   1.609   5.535  17.002  0.3503  0.0437 -1.6533
 1443TIP3    H225745   1.728   5.580  17.084 -1.2140 -0.6994  1.0757
 1444TIP3   OH225746   6.171   0.969  13.406  0.2183 -0.1447 -0.5843
 1444TIP3    H125747   6.085   0.931  13.423  0.1740  0.5900  0.9175
 1444TIP3    H225748   6.230   0.894  13.402 -0.1852 -0.5320  0.4058
 1445TIP3   OH225749   1.624   0.863  14.552  0.0388  0.7514  0.5733
 1445TIP3    H125750   1.609   0.800  14.623 -0.3045 -0.2749 -0.3897
 1445TIP3    H225751   1.543   0.913  14.548  0.3967  1.4216  1.4930
 1446TIP3   OH225752   5.291   3.699   1.483 -0.6857 -0.2034 -0.2610
 1446TIP3    H125753   5.271   3.691   1.576 -1.1265 -0.4308 -0.3699
 1446TIP3    H225754   5.215   3.744   1.446  0.5656  2.0805 -0.1164
 1447TIP3   OH225755   6.305   0.158   2.411  0.0711  0.8301  0.7885
 1447TIP3    H125756   6.378   0.101   2.387 -0.4309  0.7145 -0.5138
 1447TIP3    H225757   6.232   0.098   2.427  0.0831  0.9872  1.4698
 1448TIP3   OH225758   2.747   0.719  13.719 -0.1146 -0.1953  0.0403
 1448TIP3    H125759   2.843   0.723  13.723 -0.1216 -0.5395  0.6108
 1448TIP3    H225760   2.719   0.811  13.723  0.1354 -0.1741  1.4720
 1449TIP3   OH225761   3.191   3.835   0.619 -0.2639 -0.7917 -0.7628
 1449TIP3    H125762   3.111   3.878   0.650  1.5923  1.2195  1.4172
 1449TIP3    H225763   3.257   3.904   0.619  1.0434 -1.9369 -4.5677
 1450TIP3   OH225764   1.846   3.667   0.527  0.7641 -0.0770 -0.5758
 1450TIP3    H125765   1.891   3.695   0.606  0.7190  1.9469 -1.2451
 1450TIP3    H225766   1.913   3.671   0.459  0.7999 -1.7889 -0.6640
 1451TIP3   OH225767   5.127   1.150  14.885  0.9756  0.0242 -0.4926
 1451TIP3    H125768   5.083   1.199  14.954  1.0191 -1.5980  0.7128
 1451TIP3    H225769   5.056   1.121  14.827  0.6613 -0.8209  0.3057
 1452TIP3   OH225770   4.884   4.339  16.097  0.6919  0.0022 -0.6258
 1452TIP3    H125771   4.858   4.256  16.137  0.8251 -0.2619 -1.0760
 1452TIP3    H225772   4.831   4.345  16.017 -1.3766  1.7052  0.8092
 1453TIP3   OH225773   3.326   1.752  11.795  0.5120 -0.1579 -0.0167
 1453TIP3    H125774   3.238   1.746  11.832 -0.0453  2.0735 -0.9021
 1453TIP3    H225775   3.313   1.780  11.705  2.1087 -0.2466 -0.2914
 1454TIP3   OH225776   3.806   5.660   5.990 -0.0751  0.3484 -0.0281
 1454TIP3    H125777   3.854   5.737   6.019 -0.9023  0.7671  0.2382
 1454TIP3    H225778   3.723   5.663   6.038 -0.5650 -0.1113 -0.8213
 1455TIP3   OH225779   4.570   2.612  13.973 -0.4819  0.2238 -0.1251
 1455TIP3    H125780   4.611   2.592  13.889 -0.9559 -1.1132 -0.0456
 1455TIP3    H225781   4.640   2.654  14.024  0.4243 -0.8330 -0.4594
 1456TIP3   OH225782   2.479   4.118  14.636 -0.6657  0.3233 -0.4289
 1456TIP3    H125783   2.564   4.076  14.647 -1.2991 -1.1591 -1.0374
 1456TIP3    H225784   2.498   4.212  14.640  1.0143  0.0160 -0.7177
 1457TIP3   OH225785   3.228   3.468   6.321 -0.2898 -0.3021 -0.8226
 1457TIP3    H125786   3.152   3.492   6.268 -0.7457 -1.1262 -0.5499
 1457TIP3    H225787   3.218   3.519   6.401 -0.0263  0.3352 -1.1890
 1458TIP3   OH225788   4.078   5.052   1.934  0.6839  0.5263  0.5599
 1458TIP3    H125789   4.017   5.125   1.930 -0.6125 -0.5040  1.0555
 1458TIP3    H225790   4.023   4.974   1.926  1.7768 -0.4586  2.2060
 1459TIP3   OH225791   0.471   5.805  11.223 -0.2244 -0.1349  0.4055
 1459TIP3    H125792   0.493   5.755  11.302  1.8340  2.5048  1.5755
 1459TIP3    H225793   0.423   5.881  11.255 -0.6710  0.2025 -1.0430
 1460TIP3   OH225794   3.470   5.138   6.546 -0.0239  0.2757  0.0704
 1460TIP3    H125795   3.502   5.220   6.583 -0.4101 -0.8970  3.2404
 1460TIP3    H225796   3.380   5.130   6.580  0.2897 -1.7932  0.4959
 1461TIP3   OH225797   1.487   5.150   4.319 -0.0093 -0.1143  0.0273
 1461TIP3    H125798   1.393   5.137   4.309 -0.1147  0.9798 -0.5603
 1461TIP3    H225799   1.494   5.232   4.368  0.6383 -0.3374  0.3151
 1462TIP3   OH225800   5.274   6.543  15.738 -0.3946  0.5591 -0.2337
 1462TIP3    H125801   5.343   6.478  15.726 -0.8974 -0.0831  0.3139
 1462TIP3    H225802   5.321   6.626  15.749  0.3519 -0.0505  1.3619
 1463TIP3   OH225803   6.442   6.225   6.395 -0.1706  0.1800 -0.0514
 1463TIP3    H125804   6.442   6.292   6.326 -0.8516  0.7041  0.4513
 1463TIP3    H225805   6.350   6.204   6.408  0.0419 -0.9151 -0.2433
 1464TIP3   OH225806   0.249   5.881   4.328 -0.4526 -0.0527  0.0119
 1464TIP3    H125807   0.250   5.888   4.232  0.9584 -1.1949 -0.0673
 1464TIP3    H225808   0.254   5.972   4.358  1.1884  0.2206 -1.0055
 1465TIP3   OH225809   0.744   4.359  14.953 -0.2867  1.0506 -0.0234
 1465TIP3    H125810   0.688   4.436  14.955 -1.5840  0.1033  2.9972
 1465TIP3    H225811   0.794   4.364  15.034  0.5072 -0.6351 -0.3909
 1466TIP3   OH225812   4.004   1.026  12.524 -0.6912  0.2306  0.5162
 1466TIP3    H125813   3.965   0.938  12.528  0.2128 -0.1347  1.3724
 1466TIP3    H225814   4.001   1.049  12.431 -2.4978  0.0024  0.5078
 1467TIP3   OH225815   6.062   1.594  15.627 -0.4007  0.4325 -0.6359
 1467TIP3    H125816   6.082   1.518  15.574  0.6593  0.0659  0.2551
 1467TIP3    H225817   6.113   1.581  15.707  0.1673  2.3014 -0.6723
 1468TIP3   OH225818   4.898   2.407   5.940 -0.4346  0.5671  0.2533
 1468TIP3    H125819   4.842   2.484   5.952 -1.8952 -0.2257 -1.2643
 1468TIP3    H225820   4.887   2.384   5.848  2.9223  0.7636 -0.2749
 1469TIP3   OH225821   6.150   0.842  16.921  0.1562 -0.3922  0.1366
 1469TIP3    H125822   6.087   0.878  16.984  0.7439 -0.4382  0.7517
 1469TIP3    H225823   6.113   0.758  16.896 -0.5423  0.0296 -0.2753
 1470TIP3   OH225824   6.771   2.559   2.771  0.3194  0.5260 -0.2969
 1470TIP3    H125825   6.774   2.654   2.762 -1.0488  0.6652  0.7170
 1470TIP3    H225826   6.679   2.536   2.766  0.5376 -0.6317  0.7694
 1471TIP3   OH225827   0.967   2.589   4.866 -0.2008 -0.6250  0.2917
 1471TIP3    H125828   0.900   2.611   4.932  0.0114 -1.8709  0.9373
 1471TIP3    H225829   0.963   2.494   4.859  0.3432 -0.5638 -0.9227
 1472TIP3   OH225830   3.386   4.327  14.770  0.5835  0.1917  1.0636
 1472TIP3    H125831   3.424   4.364  14.850 -0.5973  0.5893  1.4429
 1472TIP3    H225832   3.321   4.265  14.801 -0.9578  1.4595  0.4005
 1473TIP3   OH225833   1.713   0.420   3.740  0.7098  0.1033  0.0610
 1473TIP3    H125834   1.728   0.466   3.658 -1.0944 -0.4196 -0.5818
 1473TIP3    H225835   1.666   0.483   3.795 -1.7941 -0.8860 -0.8328
 1474TIP3   OH225836   0.823   3.764   1.458  0.9555 -0.3488 -0.0914
 1474TIP3    H125837   0.808   3.754   1.364  3.4418 -0.9732 -0.4553
 1474TIP3    H225838   0.915   3.743   1.470  0.1658 -2.4362  2.8207
 1475TIP3   OH225839   2.909   2.336   4.441 -0.3313 -0.1299 -0.3530
 1475TIP3    H125840   2.828   2.287   4.426 -0.4466  0.1026 -0.4924
 1475TIP3    H225841   2.899   2.372   4.529  0.2983 -1.4036  0.2582
 1476TIP3   OH225842   3.107   5.457  12.128  0.2904 -0.5696  0.2529
 1476TIP3    H125843   3.156   5.492  12.054  1.2412  0.6330  1.4422
 1476TIP3    H225844   3.137   5.366  12.136  0.1857 -0.7032 -0.8111
 1477TIP3   OH225845   5.116   6.160   1.379  0.2534  0.1450 -0.2162
 1477TIP3    H125846   5.138   6.217   1.306 -0.4023 -0.3541 -0.8102
 1477TIP3    H225847   5.021   6.164   1.386  0.2839 -0.0520  0.4143
 1478TIP3   OH225848   2.347   6.451  11.754  0.8049  0.0322 -0.0909
 1478TIP3    H125849   2.320   6.359  11.756  2.8670 -0.5684  1.8967
 1478TIP3    H225850   2.289   6.495  11.816  1.7803 -0.5268  1.2470
 1479TIP3   OH225851   3.765   0.295  17.021 -0.4465  0.0577 -0.1178
 1479TIP3    H125852   3.859   0.284  17.005 -0.7434 -0.0086 -1.8280
 1479TIP3    H225853   3.724   0.223  16.975 -1.4335  0.7544 -0.3351
 1480TIP3   OH225854   2.816   2.805   0.297 -0.0029  0.0195  0.5215
 1480TIP3    H125855   2.801   2.756   0.217 -1.8622  1.5645 -0.1235
 1480TIP3    H225856   2.910   2.824   0.297  0.0532 -0.2240 -1.1558
 1481TIP3   OH225857   0.696   3.947  11.492  0.2648  0.2002  0.3546
 1481TIP3    H125858   0.629   4.012  11.472  0.5260 -0.5309 -3.2761
 1481TIP3    H225859   0.669   3.910  11.576 -2.3279  1.8566  0.3166
 1482TIP3   OH225860   0.678   0.977   0.311 -0.0452 -0.1457 -0.4651
 1482TIP3    H125861   0.692   0.965   0.217  1.9680  1.1948 -0.3647
 1482TIP3    H225862   0.644   0.893   0.341  0.0348 -0.8422 -2.2522
 1483TIP3   OH225863   6.579   6.429  14.520  0.0628 -0.0513 -0.1934
 1483TIP3    H125864   6.633   6.374  14.462 -0.3542 -1.5782  0.8321
 1483TIP3    H225865   6.495   6.383  14.524 -1.1777  2.0576 -1.3965
 1484TIP3   OH225866   2.727   4.161  12.353  0.7778 -0.0562 -0.7877
 1484TIP3    H125867   2.666   4.225  12.389 -0.1619  0.0780 -2.5798
 1484TIP3    H225868   2.811   4.183  12.393 -0.1466  0.3165  1.0158
 1485TIP3   OH225869   2.995   3.622  16.830 -0.8424  0.3752 -0.0341
 1485TIP3    H125870   2.910   3.586  16.805  0.4546 -1.7753 -1.5366
 1485TIP3    H225871   3.059   3.568  16.784  1.4063  1.2851  1.8749
 1486TIP3   OH225872   6.721   0.039   5.459 -0.0450  0.1332 -0.4237
 1486TIP3    H125873   6.712   0.127   5.422  1.2592 -0.1557 -1.4853
 1486TIP3    H225874   6.758  -0.013   5.388  1.7583 -0.6354  1.0222
 1487TIP3   OH225875   3.479   3.436  16.741 -0.0152 -0.0499  0.1100
 1487TIP3    H125876   3.505   3.520  16.703  1.8453 -0.5750  0.1422
 1487TIP3    H225877   3.490   3.373  16.670  0.0222 -0.4851  0.5021
 1488TIP3   OH225878   5.594   6.528  12.989 -0.8364 -0.0923  0.4314
 1488TIP3    H125879   5.500   6.533  12.967 -0.5729  0.8366 -0.5721
 1488TIP3    H225880   5.638   6.527  12.904  0.0243 -1.7999  0.8811
 1489TIP3   OH225881   6.689   2.920   2.281 -0.5631 -0.3846  0.2514
 1489TIP3    H125882   6.747   2.987   2.243  0.4232  0.2894  2.8083
 1489TIP3    H225883   6.613   2.918   2.223 -0.3418  2.5342 -0.2244
 1490TIP3   OH225884   4.477   4.708   0.965 -0.2963 -0.1681 -0.7969
 1490TIP3    H125885   4.417   4.758   0.909  1.0060  0.7704 -1.3555
 1490TIP3    H225886   4.560   4.709   0.919  0.7198  0.3495  1.0128
 1491TIP3   OH225887   4.280   5.197   0.557 -0.0333 -0.4277 -0.0458
 1491TIP3    H125888   4.369   5.174   0.582  0.3701  1.2271  0.0985
 1491TIP3    H225889   4.290   5.272   0.498 -1.3489  0.1016  0.3939
 1492TIP3   OH225890   4.780   3.546   0.997  0.5296  0.1772 -0.1301
 1492TIP3    H125891   4.768   3.637   1.022 -3.0461  0.2425 -1.8330
 1492TIP3    H225892   4.839   3.550   0.922 -0.3523  1.1646 -0.7812
 1493TIP3   OH225893   6.003   4.348   4.508  0.3624 -0.0027  0.1709
 1493TIP3    H125894   6.069   4.331   4.576  0.9880 -1.9386 -0.8841
 1493TIP3    H225895   6.038   4.305   4.430 -2.2194 -1.1505 -0.3908
 1494TIP3   OH225896   4.692   0.705   4.464  0.3929  0.6103  0.6168
 1494TIP3    H125897   4.779   0.723   4.500  1.0490 -0.5054 -0.3630
 1494TIP3    H225898   4.669   0.619   4.501  0.0942  0.5059  0.1945
 1495TIP3   OH225899   2.835   4.696   4.449  0.2319  0.3433 -0.3316
 1495TIP3    H125900   2.817   4.785   4.419 -0.3509  0.6591  0.9360
 1495TIP3    H225901   2.776   4.641   4.397 -1.0267  0.9239  0.4410
 1496TIP3   OH225902   1.853   4.705   1.830 -0.0321 -0.1583 -0.5568
 1496TIP3    H125903   1.900   4.759   1.767 -0.0134 -0.6963 -1.0152
 1496TIP3    H225904   1.793   4.652   1.776  0.8026 -1.4552 -0.2499
 1497TIP3   OH225905   6.176   6.408  12.119  0.8725 -0.0262 -0.1122
 1497TIP3    H125906   6.175   6.318  12.085 -0.2396  0.1504 -0.5912
 1497TIP3    H225907   6.176   6.463  12.040  0.6362  0.3857  0.1709
 1498TIP3   OH225908   6.653   2.787  16.586 -0.6586  0.2562  0.8028
 1498TIP3    H125909   6.693   2.704  16.560  0.7137  1.2449 -0.3141
 1498TIP3    H225910   6.597   2.765  16.660  1.0862 -1.3668  1.6656
 1499TIP3   OH225911   2.404   2.358   0.839  0.1472 -0.0020 -0.0904
 1499TIP3    H125912   2.386   2.311   0.921 -3.4088 -0.0937 -0.8482
 1499TIP3    H225913   2.406   2.290   0.772  1.2716  0.2621 -0.3301
 1500TIP3   OH225914   1.974   5.539   5.606  0.8631  0.1892  0.0544
 1500TIP3    H125915   1.984   5.444   5.600  0.6766  0.2364 -1.0631
 1500TIP3    H225916   2.062   5.573   5.589  0.5923  0.2763 -1.1935
 1501TIP3   OH225917   5.160   4.743  10.540 -0.2691  0.0952  0.8485
 1501TIP3    H125918   5.086   4.725  10.598  0.8075 -1.9617  1.6406
 1501TIP3    H225919   5.222   4.672  10.558  1.4847  1.2510 -0.4813
 1502TIP3   OH225920   2.051   2.117   0.608  0.0149  0.2424 -0.4147
 1502TIP3    H125921   2.012   2.042   0.562  0.2508 -0.2036  0.1038
 1502TIP3    H225922   1.997   2.126   0.687  1.5376 -0.9969  0.8065
 1503TIP3   OH225923   6.704   1.560   0.064  0.1816  0.0240  0.1553
 1503TIP3    H125924   6.695   1.526  -0.024  0.2594 -0.4270  0.3219
 1503TIP3    H225925   6.740   1.648   0.052  0.4362 -0.1351 -0.2457
 1504TIP3   OH225926   6.009   0.082  10.822 -0.3792 -0.2404 -0.0896
 1504TIP3    H125927   6.034   0.159  10.873 -2.0835  1.1826 -1.3342
 1504TIP3    H225928   6.078   0.073  10.757 -0.9999  1.2539 -0.9752
 1505TIP3   OH225929   3.246   0.377  13.870 -0.1107 -0.7642  0.6743
 1505TIP3    H125930   3.274   0.457  13.915 -1.3098 -1.6684  3.1234
 1505TIP3    H225931   3.151   0.388  13.860 -0.4574 -2.3475  2.0686
 1506TIP3   OH225932   3.666   3.639  15.125  0.1849  0.1608 -0.0255
 1506TIP3    H125933   3.638   3.567  15.181 -0.9472  1.5289  1.2102
 1506TIP3    H225934   3.586   3.674  15.087  0.7262  0.7317 -0.6763
 1507TIP3   OH225935   3.018   1.574   4.946 -0.3849  0.0594  0.0970
 1507TIP3    H125936   2.926   1.587   4.966 -0.2447 -0.8269  1.3914
 1507TIP3    H225937   3.043   1.651   4.894 -2.1130 -0.2515 -1.2404
 1508TIP3   OH225938   0.162   0.445   0.776  0.2402 -0.1626 -0.5151
 1508TIP3    H125939   0.089   0.406   0.728  1.1966 -2.0201 -0.5044
 1508TIP3    H225940   0.226   0.469   0.709 -0.0309  0.7237 -0.4619
 1509TIP3   OH225941   1.437   5.940  12.061  0.3212  0.0175  0.1829
 1509TIP3    H125942   1.486   6.016  12.029  0.1695  0.6503  1.3927
 1509TIP3    H225943   1.499   5.868  12.056  1.3007  0.7436  1.3939
 1510TIP3   OH225944   0.279   0.593  11.352  0.5813 -0.9899 -0.7623
 1510TIP3    H125945   0.314   0.678  11.324  0.9732 -0.2332  1.8823
 1510TIP3    H225946   0.354   0.549  11.392 -0.7952 -0.4188  2.6135
 1511TIP3   OH225947   6.639   4.229  15.562  0.1689 -0.7726 -0.3067
 1511TIP3    H125948   6.605   4.317  15.547  0.8394 -0.6140 -0.9540
 1511TIP3    H225949   6.714   4.222  15.502  1.2547 -1.1234  1.0819
 1512TIP3   OH225950   6.757   3.354  11.788  0.5433  0.2969 -0.5122
 1512TIP3    H125951   6.844   3.394  11.797  1.0549 -0.9414  0.0981
 1512TIP3    H225952   6.725   3.346  11.877 -0.2981  0.9531 -0.7545
 1513TIP3   OH225953   4.522   2.180   5.960  0.0794 -0.3387  0.0394
 1513TIP3    H125954   4.561   2.098   5.990  0.5338  0.6583  2.3251
 1513TIP3    H225955   4.571   2.204   5.882  0.5372 -1.7880 -0.1158
 1514TIP3   OH225956   2.129   5.933   1.869  0.2458  0.4341 -0.2954
 1514TIP3    H125957   2.138   5.945   1.774 -0.5363 -1.0348 -0.5593
 1514TIP3    H225958   2.096   5.844   1.879  1.1927  0.2681  1.4115
 1515TIP3   OH225959   6.624   2.580  11.632  0.1861  0.1930 -0.1154
 1515TIP3    H125960   6.529   2.578  11.645  0.3022  1.4066  1.0684
 1515TIP3    H225961   6.650   2.488  11.631 -0.7044 -0.1090  1.9538
 1516TIP3   OH225962   5.600   2.432  13.228 -0.4362  0.3973  0.2361
 1516TIP3    H125963   5.630   2.347  13.197  1.0504  1.0011 -0.0656
 1516TIP3    H225964   5.540   2.413  13.299  1.0555 -0.8794  1.1777
 1517TIP3   OH225965   3.742   0.977  11.539  0.7874 -0.5017  0.4520
 1517TIP3    H125966   3.686   0.950  11.466  0.9672  1.6931 -0.5264
 1517TIP3    H225967   3.681   0.990  11.612  0.4177 -1.1085  0.2650
 1518TIP3   OH225968   6.402   1.235  15.596  0.3293 -0.3252  0.1621
 1518TIP3    H125969   6.329   1.205  15.541  1.1569 -0.8313 -0.6698
 1518TIP3    H225970   6.453   1.293  15.539  0.2945  0.4384  0.9048
 1519TIP3   OH225971   0.855   4.698  14.940  0.1626 -0.1899  0.0774
 1519TIP3    H125972   0.764   4.726  14.938  0.6001  1.2099 -0.5844
 1519TIP3    H225973   0.864   4.640  14.864 -0.1184 -0.1353  0.0015
 1520TIP3   OH225974   4.689   4.512  10.102 -0.0586  0.5988  0.5196
 1520TIP3    H125975   4.754   4.582  10.114 -1.3333  1.5307  2.1263
 1520TIP3    H225976   4.616   4.554  10.057 -0.0344 -0.1866 -0.2759
 1521TIP3   OH225977   0.142   2.476   1.489  0.2034 -0.2937  0.3802
 1521TIP3    H125978   0.056   2.435   1.499  0.7379 -1.6248 -0.3243
 1521TIP3    H225979   0.203   2.402   1.482  1.2814  0.6313 -0.0933
 1522TIP3   OH225980   1.947   3.108   3.565 -0.5495 -0.4565  0.0825
 1522TIP3    H125981   1.927   3.107   3.659 -1.3621 -2.0720 -0.1005
 1522TIP3    H225982   1.877   3.057   3.524 -0.9496  1.3537 -1.5753
 1523TIP3   OH225983   6.280   6.304  13.360  0.1525 -0.2392 -0.1399
 1523TIP3    H125984   6.239   6.372  13.305  0.4107  0.4285  0.4830
 1523TIP3    H225985   6.371   6.334  13.371 -0.0225 -0.1099  1.0450
 1524TIP3   OH225986   4.850   6.771   3.476 -0.3112  0.0845  0.1669
 1524TIP3    H125987   4.793   6.822   3.419  1.0101  1.9844  0.4632
 1524TIP3    H225988   4.827   6.800   3.564  1.5569  1.4477  0.2554
 1525TIP3   OH225989   4.534   2.453  14.891  0.1833  0.0367 -0.7335
 1525TIP3    H125990   4.458   2.455  14.950  0.5039  0.9919 -0.3326
 1525TIP3    H225991   4.565   2.363  14.893 -0.7140 -0.2711 -0.6012
 1526TIP3   OH225992   4.150   6.647   4.695 -0.2374  0.5896  0.7564
 1526TIP3    H125993   4.102   6.596   4.629 -0.2584  0.3702  0.9384
 1526TIP3    H225994   4.186   6.581   4.754  0.7136  0.7195  0.3428
 1527TIP3   OH225995   0.650   1.881  13.050 -0.6549  0.0074 -0.5144
 1527TIP3    H125996   0.583   1.822  13.015  0.8653 -0.8675 -2.0474
 1527TIP3    H225997   0.712   1.824  13.094 -0.8502  0.7985  0.7941
 1528TIP3   OH225998   3.872   5.460  15.342 -0.7887  0.3915 -0.1892
 1528TIP3    H125999   3.824   5.489  15.419  0.2011 -0.8818  0.9247
 1528TIP3    H226000   3.898   5.541  15.298 -1.7042  1.1233  0.5949
 1529TIP3   OH226001   1.600   1.332  15.256 -0.0254 -0.2522  0.0173
 1529TIP3    H126002   1.618   1.426  15.267  1.9615 -0.5188 -0.6878
 1529TIP3    H226003   1.507   1.323  15.274 -0.5587  2.0994 -1.4330
 1530TIP3   OH226004   4.193   4.664  10.416 -0.2158  0.4303 -0.1240
 1530TIP3    H126005   4.196   4.578  10.458 -2.0662  1.6606  2.6001
 1530TIP3    H226006   4.285   4.687  10.403  0.3197 -1.9922 -1.0835
 1531TIP3   OH226007   6.575   4.782   0.317 -0.0096 -0.6958 -0.0312
 1531TIP3    H126008   6.670   4.769   0.313  0.1875  0.6053  0.3866
 1531TIP3    H226009   6.549   4.803   0.228  0.2095 -0.2484  0.0109
 1532TIP3   OH226010   4.680   5.848   3.429  0.1028  0.4359  0.2829
 1532TIP3    H126011   4.600   5.886   3.466 -0.5431  0.4780 -1.1246
 1532TIP3    H226012   4.676   5.756   3.454 -2.2678 -0.4022 -2.7917
 1533TIP3   OH226013   1.562   4.925   2.888  0.1867  0.2776 -0.2633
 1533TIP3    H126014   1.506   4.911   2.811 -1.2247  0.2717  0.7614
 1533TIP3    H226015   1.503   4.918   2.963  0.9281  3.5604  0.6877
 1534TIP3   OH226016   4.314   2.014   1.360  0.4257 -0.2619  0.3411
 1534TIP3    H126017   4.260   2.071   1.415  0.2460 -1.3481  1.2974
 1534TIP3    H226018   4.337   1.941   1.416  0.6842 -1.1272 -0.8775
 1535TIP3   OH226019   1.341   5.992  13.105 -0.0880 -0.4083 -0.3924
 1535TIP3    H126020   1.353   6.078  13.065 -0.1651 -1.0107 -1.7570
 1535TIP3    H226021   1.252   5.994  13.140  0.3394  0.4842  0.6420
 1536TIP3   OH226022   2.746   6.291  13.289 -0.1688  0.0759 -0.3925
 1536TIP3    H126023   2.836   6.306  13.261 -0.9045 -0.6248 -3.2547
 1536TIP3    H226024   2.707   6.237  13.220 -2.2771 -1.1707  1.6722
 1537TIP3   OH226025   4.254   3.200   2.148  0.3648 -0.8613 -0.1266
 1537TIP3    H126026   4.288   3.189   2.060 -1.2057  0.0118 -0.8613
 1537TIP3    H226027   4.159   3.203   2.137  0.1622 -0.4344  1.5578
 1538TIP3   OH226028   0.957   3.435   4.852  0.0145 -0.1303 -0.1449
 1538TIP3    H126029   1.031   3.490   4.878  0.0514 -0.3217  0.1658
 1538TIP3    H226030   0.889   3.455   4.916 -0.2124  0.0693 -0.4490
 1539TIP3   OH226031   3.553   4.165   1.595  0.1937 -0.5193  0.2643
 1539TIP3    H126032   3.521   4.249   1.628  0.3099 -0.9134  1.4130
 1539TIP3    H226033   3.513   4.100   1.652 -0.0819 -1.2658 -0.7663
 1540TIP3   OH226034   4.459   4.746  12.645 -0.1672 -0.0827 -0.2970
 1540TIP3    H126035   4.511   4.668  12.628 -0.7164 -0.5751  0.2483
 1540TIP3    H226036   4.459   4.794  12.562  0.5055 -0.4594 -0.5150
 1541TIP3   OH226037   3.957   1.654  13.597  0.2147 -0.4520  0.1085
 1541TIP3    H126038   4.015   1.608  13.537  0.8390 -1.1716  1.2473
 1541TIP3    H226039   3.917   1.585  13.649 -0.9112  0.1121  0.0179
 1542TIP3   OH226040   3.136   2.974   0.131  0.2534 -0.2443  0.0282
 1542TIP3    H126041   3.187   2.966   0.051  1.1220 -0.5896  0.6063
 1542TIP3    H226042   3.068   3.038   0.111  2.1743  1.7865 -0.1017
 1543TIP3   OH226043   2.319   2.942  14.506  0.1898 -1.1540 -0.0050
 1543TIP3    H126044   2.293   2.913  14.419  0.4270  0.4625 -0.6214
 1543TIP3    H226045   2.248   2.912  14.563 -2.5547  2.1814 -1.4978
 1544TIP3   OH226046   1.541   3.642  11.321  0.0770  0.5220 -0.5384
 1544TIP3    H126047   1.542   3.576  11.390 -0.0057  0.9071 -0.1633
 1544TIP3    H226048   1.602   3.610  11.255 -0.5229 -0.2955 -0.7037
 1545TIP3   OH226049   6.774   0.308   5.279 -0.0806  0.5889 -0.4818
 1545TIP3    H126050   6.774   0.340   5.188  0.5031 -1.5364 -1.2716
 1545TIP3    H226051   6.867   0.292   5.298 -0.4037 -1.1688 -0.3392
 1546TIP3   OH226052   4.736   5.349   1.036 -0.4127  0.0184  0.3399
 1546TIP3    H126053   4.653   5.318   0.999 -1.2436  1.6850  0.7476
 1546TIP3    H226054   4.711   5.397   1.114  1.2266 -2.3545  2.4075
 1547TIP3   OH226055   1.987   0.628   3.251  0.5236  0.3368 -0.3312
 1547TIP3    H126056   1.986   0.555   3.313 -1.0611 -0.5307 -1.3685
 1547TIP3    H226057   2.049   0.691   3.290 -2.9466  1.3801  3.9553
 1548TIP3   OH226058   5.983   2.478  11.755 -0.3946  0.0597  0.1522
 1548TIP3    H126059   6.023   2.501  11.839  1.6565 -0.8455 -0.5496
 1548TIP3    H226060   5.978   2.383  11.755 -0.5476  0.0578 -0.6737
 1549TIP3   OH226061   3.924   6.366   3.282  0.2184 -0.1812  0.0694
 1549TIP3    H126062   3.871   6.361   3.202 -0.3809 -0.7120  0.4972
 1549TIP3    H226063   3.901   6.451   3.321  1.6166  0.7495 -1.0786
 1550TIP3   OH226064   1.969   0.113   5.127 -0.2937 -0.2546  0.2680
 1550TIP3    H126065   1.987   0.199   5.164 -0.2732 -0.5872  1.0445
 1550TIP3    H226066   1.898   0.129   5.065 -0.5203  0.2680  0.6535
 1551TIP3   OH226067   2.151   6.381   2.233 -0.7152  0.0553 -0.4918
 1551TIP3    H126068   2.159   6.302   2.180  1.0166  0.1161 -0.3394
 1551TIP3    H226069   2.081   6.360   2.296  0.5612 -1.8169  0.3340
 1552TIP3   OH226070   3.110   0.363  16.584  0.4689  0.0940 -0.2701
 1552TIP3    H126071   3.161   0.289  16.550 -1.0492 -0.6364 -1.0084
 1552TIP3    H226072   3.136   0.370  16.675 -0.4583 -2.3197  0.2180
 1553TIP3   OH226073   0.203   5.639  16.235  0.2231 -0.3906  0.2765
 1553TIP3    H126074   0.225   5.547  16.244 -3.0079 -1.5396 -2.5092
 1553TIP3    H226075   0.209   5.657  16.141 -3.3720  1.0046  0.2032
 1554TIP3   OH226076   4.235   1.679  14.953  0.5124 -0.0916  0.3595
 1554TIP3    H126077   4.306   1.703  14.893  0.1521  0.4293  0.1352
 1554TIP3    H226078   4.264   1.598  14.993 -0.2218 -1.6397 -2.1250
 1555TIP3   OH226079   3.546   3.783   4.698 -0.6121  0.3681  0.1623
 1555TIP3    H126080   3.464   3.823   4.669  0.8305  1.6869 -2.2649
 1555TIP3    H226081   3.558   3.707   4.641  0.6326  1.1366 -0.6541
 1556TIP3   OH226082   3.452   0.128   2.713  0.1098 -0.2138  0.3387
 1556TIP3    H126083   3.406   0.166   2.788  0.2343  3.7243 -1.4241
 1556TIP3    H226084   3.542   0.158   2.723  0.7693 -2.0753  0.1118
 1557TIP3   OH226085   5.152   3.943   3.038  0.0142  0.3155  0.2592
 1557TIP3    H126086   5.135   3.869   3.097  1.5928 -0.2446  0.0233
 1557TIP3    H226087   5.167   4.017   3.097 -1.5211  0.4622  0.4952
 1558TIP3   OH226088   1.174   5.281  12.536  0.0256  0.0244  0.7584
 1558TIP3    H126089   1.174   5.186  12.537 -1.2780  0.0233  1.9231
 1558TIP3    H226090   1.267   5.305  12.544  0.2426 -1.1497  1.8811
 1559TIP3   OH226091   3.384   5.179   3.839 -0.3239  0.1685 -0.0438
 1559TIP3    H126092   3.405   5.171   3.932 -0.1913  2.4069  0.1234
 1559TIP3    H226093   3.325   5.254   3.833  1.2649  1.3240 -2.0053
 1560TIP3   OH226094   3.938   0.449   0.033  0.3018  0.7106  0.4161
 1560TIP3    H126095   3.925   0.376   0.094 -3.9518  0.0446 -1.1330
 1560TIP3    H226096   3.960   0.407  -0.050  0.1899  1.3256  0.0784
 1561TIP3   OH226097   1.195   0.895  12.595 -0.3830 -0.0244  0.1607
 1561TIP3    H126098   1.168   0.953  12.524 -0.5229  0.4511  0.5976
 1561TIP3    H226099   1.165   0.808  12.567 -0.5982  0.1883 -0.2789
 1562TIP3   OH226100   5.875   4.304   6.026  0.1400 -0.4019  0.3204
 1562TIP3    H126101   5.937   4.377   6.031 -0.8596  0.3680  2.1183
 1562TIP3    H226102   5.789   4.346   6.028 -0.4608 -1.4889 -1.6907
 1563TIP3   OH226103   4.566   3.574  11.768  0.6079  0.1273 -0.6449
 1563TIP3    H126104   4.647   3.535  11.802  0.8887  2.4259  1.5294
 1563TIP3    H226105   4.498   3.545  11.829 -0.0444 -0.9400 -1.8582
 1564TIP3   OH226106   3.714   2.116  14.737  0.2096 -0.1217  0.2420
 1564TIP3    H126107   3.793   2.169  14.734 -0.0726  0.3404  0.7124
 1564TIP3    H226108   3.644   2.179  14.757 -0.5232 -0.2720 -1.7943
 1565TIP3   OH226109   1.756   3.928   1.056  0.3233  0.1172  0.4382
 1565TIP3    H126110   1.696   3.907   1.128 -3.0908  0.4516 -2.2407
 1565TIP3    H226111   1.766   3.846   1.008  0.4363  0.5719 -0.3136
 1566TIP3   OH226112   3.665   2.280   5.066 -0.0411  0.5475 -0.1821
 1566TIP3    H126113   3.660   2.198   5.115  1.1760 -0.2760 -1.3776
 1566TIP3    H226114   3.717   2.338   5.122  0.2198  0.0536  0.0946
 1567TIP3   OH226115   3.607   2.743  14.082 -0.5138 -0.0469 -0.0872
 1567TIP3    H126116   3.682   2.765  14.137 -0.2668 -0.1756 -0.3660
 1567TIP3    H226117   3.533   2.790  14.120 -0.1948  0.4495 -0.0826
 1568TIP3   OH226118   4.471   0.472  12.180 -0.1032 -0.3420 -0.2568
 1568TIP3    H126119   4.409   0.417  12.228 -1.1793  0.1849 -1.0253
 1568TIP3    H226120   4.444   0.562  12.200 -0.5188 -0.1123 -1.7625
 1569TIP3   OH226121   5.426   1.645   0.593  0.1506  0.3827  0.2687
 1569TIP3    H126122   5.338   1.672   0.619 -0.2503  0.3856 -1.0290
 1569TIP3    H226123   5.477   1.726   0.593 -0.6044  0.8877 -1.8780
 1570TIP3   OH226124   6.035   6.133   1.431 -0.3510  0.2062  0.1143
 1570TIP3    H126125   6.077   6.172   1.508 -1.2958  1.3070  0.0814
 1570TIP3    H226126   6.096   6.064   1.403  0.2582  0.1522  1.5164
 1571TIP3   OH226127   3.018   2.012   0.531 -0.0446  0.1619 -0.3279
 1571TIP3    H126128   3.063   1.974   0.606  1.4883  0.7043 -0.9594
 1571TIP3    H226129   2.983   2.095   0.564  0.5441  0.3553 -0.1850
 1572TIP3   OH226130   4.264   2.813   3.994  0.0938  0.6100 -0.2078
 1572TIP3    H126131   4.284   2.906   3.988 -0.2047  0.7719  1.0968
 1572TIP3    H226132   4.181   2.809   4.042  0.4326 -0.3513  0.3175
 1573TIP3   OH226133   2.186   6.171   4.939 -0.3760 -0.2051  0.1226
 1573TIP3    H126134   2.172   6.077   4.940 -1.2399 -0.0873 -0.0949
 1573TIP3    H226135   2.142   6.201   4.859  0.0060  0.3615  0.1190
 1574TIP3   OH226136   3.509   5.770   6.436 -0.5722 -0.1693  0.3076
 1574TIP3    H126137   3.549   5.846   6.394  0.1607 -0.2661  0.8365
 1574TIP3    H226138   3.582   5.713   6.461 -1.1688 -1.5340 -0.9889
 1575TIP3   OH226139   2.738   3.656   6.264  0.0930  0.6358 -0.7528
 1575TIP3    H126140   2.669   3.711   6.302  0.3626 -0.1862  0.9543
 1575TIP3    H226141   2.791   3.717   6.212 -0.8320  1.6029 -0.5828
 1576TIP3   OH226142   6.441   6.752  15.836  0.1031  0.4235 -0.1577
 1576TIP3    H126143   6.473   6.664  15.854 -2.1770 -0.8199 -1.9252
 1576TIP3    H226144   6.467   6.769  15.745 -0.9154  0.9173 -0.3605
 1577TIP3   OH226145   3.682   5.639  12.780  0.0732 -0.2636  0.5647
 1577TIP3    H126146   3.759   5.685  12.813  0.5488  0.8891 -1.9810
 1577TIP3    H226147   3.717   5.575  12.718 -0.8039 -2.1023  1.9362
 1578TIP3   OH226148   0.500   3.429   1.632 -0.2759 -0.0707 -0.6263
 1578TIP3    H126149   0.587   3.400   1.605  0.8422  1.6455  0.9737
 1578TIP3    H226150   0.514   3.470   1.717 -2.6835  0.1321 -0.2873
 1579TIP3   OH226151   0.636   4.485   5.309 -0.7066 -0.0687  0.1849
 1579TIP3    H126152   0.612   4.393   5.319 -2.5916  0.4163  0.3283
 1579TIP3    H226153   0.581   4.516   5.236 -1.5025  1.4112  1.3804
 1580TIP3   OH226154   2.087   5.551   0.266 -0.4208  0.0796  0.8459
 1580TIP3    H126155   2.115   5.586   0.182 -1.3765  0.4807  0.6862
 1580TIP3    H226156   2.002   5.512   0.249 -0.0984 -0.8609  1.3857
 1581TIP3   OH226157   1.802   6.580  17.094  0.4170 -0.2288 -0.3552
 1581TIP3    H126158   1.722   6.560  17.044 -0.7145  1.9415  0.5085
 1581TIP3    H226159   1.806   6.513  17.161  0.1587 -1.2505 -1.3350
 1582TIP3   OH226160   2.710   4.015  13.072 -0.7099  0.1254 -0.2390
 1582TIP3    H126161   2.769   4.033  13.146  2.4636  0.7699 -2.8237
 1582TIP3    H226162   2.756   3.950  13.020 -1.9847  1.1362 -2.6950
 1583TIP3   OH226163   3.892   1.510  15.940 -0.2163 -0.0202  0.4552
 1583TIP3    H126164   3.920   1.419  15.949  0.0752  0.1659  1.4556
 1583TIP3    H226165   3.797   1.507  15.947 -0.1397 -0.1287  1.5708
 1584TIP3   OH226166   0.132   1.236   2.906  0.0520 -0.4439 -0.5193
 1584TIP3    H126167   0.175   1.217   2.989 -1.6774 -1.3839  0.1914
 1584TIP3    H226168   0.139   1.155   2.856 -0.6798 -0.5334 -0.4858
 1585TIP3   OH226169   1.051   3.221  14.191  0.3907  1.0935 -0.5866
 1585TIP3    H126170   1.093   3.210  14.276 -2.1785 -0.6010  0.5356
 1585TIP3    H226171   1.054   3.134  14.150 -1.7872  0.9711 -0.5526
 1586TIP3   OH226172   2.869   5.918  15.578 -0.1711  0.5003  0.8026
 1586TIP3    H126173   2.944   5.975  15.563 -1.0004  1.5426  0.5150
 1586TIP3    H226174   2.837   5.898  15.491  0.2279 -0.5591  0.9004
 1587TIP3   OH226175   2.100   2.907   2.443  0.3108  0.6024 -0.3304
 1587TIP3    H126176   2.053   2.982   2.479 -1.1012 -0.1361 -0.5986
 1587TIP3    H226177   2.062   2.831   2.488  0.0960 -0.1423 -1.7497
 1588TIP3   OH226178   2.107   1.569   3.284  0.1455 -0.7454 -0.2636
 1588TIP3    H126179   2.071   1.644   3.332 -1.5790 -1.6399 -0.1264
 1588TIP3    H226180   2.168   1.529   3.346  1.2139  0.6232 -0.3995
 1589TIP3   OH226181   1.896   0.282  12.768  0.5877  0.1196  0.3365
 1589TIP3    H126182   1.990   0.288  12.749  0.6224 -1.6247 -0.0850
 1589TIP3    H226183   1.892   0.271  12.863  0.7980  0.2909  0.3687
 1590TIP3   OH226184   1.672   0.566  13.393  0.2583 -0.3380 -0.5383
 1590TIP3    H126185   1.678   0.537  13.484  0.0220 -0.7054 -0.6400
 1590TIP3    H226186   1.628   0.651  13.398  0.3865 -0.2859 -0.2964
 1591TIP3   OH226187   4.689   1.321  16.042 -0.5282 -0.1007  0.4381
 1591TIP3    H126188   4.729   1.391  16.093  0.3529 -0.8284  0.7546
 1591TIP3    H226189   4.627   1.366  15.984  0.7497  1.0533 -0.0633
 1592TIP3   OH226190   5.362   1.991   3.582  0.0770  0.7019 -0.0550
 1592TIP3    H126191   5.278   2.033   3.566 -0.4069 -0.4153 -0.5642
 1592TIP3    H226192   5.424   2.063   3.592 -0.9118  1.5352  0.1981
 1593TIP3   OH226193   0.929   1.443   3.267  0.5803  0.4291 -0.1756
 1593TIP3    H126194   0.982   1.387   3.210  2.0426  0.3901  1.1622
 1593TIP3    H226195   0.932   1.529   3.226 -1.1702 -0.3072 -1.9186
 1594TIP3   OH226196   3.028   6.035  11.310 -0.1665 -0.3220  0.1477
 1594TIP3    H126197   3.075   5.951  11.310  0.7335  0.1525  1.8192
 1594TIP3    H226198   3.088   6.095  11.265  0.1384 -0.0774  0.8825
 1595TIP3   OH226199   2.153   1.057   2.015  0.6671 -0.5644  0.2538
 1595TIP3    H126200   2.238   1.077   1.975 -0.1700 -1.4028 -2.0623
 1595TIP3    H226201   2.167   0.975   2.062  1.1115 -0.7693 -0.2314
 1596TIP3   OH226202   1.256   3.032  16.370 -0.1204  0.0691  0.2168
 1596TIP3    H126203   1.227   3.058  16.457  2.0566 -0.4346  1.1152
 1596TIP3    H226204   1.319   2.961  16.385 -0.3366 -0.5915 -1.8044
 1597TIP3   OH226205   1.031   0.400   3.048  0.9703  0.0602  0.4665
 1597TIP3    H126206   1.086   0.324   3.029 -1.1723 -1.1623 -1.0076
 1597TIP3    H226207   1.026   0.447   2.965 -0.6889 -0.1537  0.4414
 1598TIP3   OH226208   5.058   1.291  11.690  0.3505 -0.3041  0.3835
 1598TIP3    H126209   5.088   1.350  11.621 -0.3496  0.8917  1.0999
 1598TIP3    H226210   5.119   1.307  11.763  1.1963 -1.6856  0.0002
 1599TIP3   OH226211   1.382   4.430  13.936  0.3007  0.1337 -0.7489
 1599TIP3    H126212   1.431   4.501  13.894  0.5395  1.3075  1.4700
 1599TIP3    H226213   1.440   4.399  14.006 -0.8392 -0.5993 -0.1275
 1600TIP3   OH226214   3.498   5.179   2.873  0.1869 -0.0195  0.4166
 1600TIP3    H126215   3.548   5.259   2.893  0.2753 -0.1265  0.6213
 1600TIP3    H226216   3.429   5.177   2.938  0.5542 -0.4383  0.7921
 1601TIP3   OH226217   4.033   0.078   1.291  0.1692  0.2486  0.2983
 1601TIP3    H126218   4.011   0.041   1.205  1.0798 -0.7197  0.4782
 1601TIP3    H226219   4.091   0.152   1.271  0.7727 -0.2769  0.1073
 1602TIP3   OH226220   2.616   5.860  13.613  0.3039 -0.0613  0.4391
 1602TIP3    H126221   2.642   5.807  13.688  0.2308  1.2186  1.3821
 1602TIP3    H226222   2.550   5.807  13.568  2.3172 -2.0526 -0.3111
 1603TIP3   OH226223   5.000   3.571  15.523 -0.3996  0.2120 -0.2431
 1603TIP3    H126224   5.011   3.476  15.520  1.7374  0.4480 -0.4268
 1603TIP3    H226225   4.974   3.595  15.435 -0.6926 -0.1727 -0.2626
 1604TIP3   OH226226   2.793   2.692   5.075  0.3910  0.4481 -0.1076
 1604TIP3    H126227   2.755   2.716   4.990  2.3748  0.7509 -0.9297
 1604TIP3    H226228   2.835   2.608   5.059  1.0839  0.6840  0.4905
 1605TIP3   OH226229   0.020   3.582  11.415 -0.6513 -0.2083  0.3921
 1605TIP3    H126230   0.037   3.668  11.453 -0.3954 -0.2049  0.2729
 1605TIP3    H226231  -0.053   3.547  11.466 -0.7368  0.0661  0.4616
 1606TIP3   OH226232   4.046   5.016   4.143  0.4833 -0.4407 -0.0710
 1606TIP3    H126233   3.965   4.987   4.184  1.1318 -1.6973  0.3817
 1606TIP3    H226234   4.020   5.051   4.058 -0.4362 -1.7172 -0.3262
 1607TIP3   OH226235   3.951   5.997   2.156  0.7271  0.0979  0.6878
 1607TIP3    H126236   3.991   6.080   2.181  1.9608 -0.4250  0.4879
 1607TIP3    H226237   3.992   5.932   2.214 -1.2041 -0.1911  1.7596
 1608TIP3   OH226238   5.013   4.062   0.145  0.0683 -0.7386  0.3428
 1608TIP3    H126239   5.052   4.119   0.078 -1.8186  1.1211  0.7796
 1608TIP3    H226240   4.936   4.025   0.102 -0.9975  0.2487  1.3712
 1609TIP3   OH226241   0.649   2.261   1.628 -0.0020 -0.0755 -0.1316
 1609TIP3    H126242   0.586   2.200   1.665  0.9494  0.1253  1.8922
 1609TIP3    H226243   0.629   2.263   1.534 -1.7802 -1.4094  0.2001
 1610TIP3   OH226244   4.612   4.005   2.199  0.2849  0.4789  0.5867
 1610TIP3    H126245   4.677   4.071   2.223  2.0828 -1.1654  0.3567
 1610TIP3    H226246   4.661   3.940   2.148 -1.5044 -0.8640  0.5362
 1611TIP3   OH226247   2.300   5.888   2.561  0.2433  0.3470 -0.0732
 1611TIP3    H126248   2.232   5.826   2.534  0.0041  1.3514 -1.8517
 1611TIP3    H226249   2.381   5.837   2.563 -0.1520 -0.2868 -0.3182
 1612TIP3   OH226250   2.097   2.577  16.436 -0.1794  0.3979  0.4836
 1612TIP3    H126251   2.192   2.588  16.440 -0.1333 -0.2125  1.1192
 1612TIP3    H226252   2.077   2.576  16.342  0.7545 -2.0442  0.2737
 1613TIP3   OH226253   3.543   5.077  12.409 -0.2307 -0.1446  0.2021
 1613TIP3    H126254   3.451   5.050  12.415 -0.0981 -0.4720  0.7142
 1613TIP3    H226255   3.540   5.172  12.416 -0.5137 -0.1684  0.4264
 1614TIP3   OH226256   0.509   3.351  12.111 -0.5247  0.0622  0.1385
 1614TIP3    H126257   0.502   3.331  12.205  0.4103 -0.3080  0.1416
 1614TIP3    H226258   0.476   3.273  12.067 -0.0077 -0.1739  0.1625
 1615TIP3   OH226259   6.604   0.845   3.822  0.1208  0.3729  0.4254
 1615TIP3    H126260   6.594   0.890   3.738  1.3125 -0.4586 -0.1920
 1615TIP3    H226261   6.604   0.914   3.888 -2.1385  0.9405 -0.1356
 1616TIP3   OH226262   6.069   4.659   2.390 -0.3255 -0.2806 -0.5212
 1616TIP3    H126263   6.155   4.669   2.349 -1.0293 -1.7604 -2.4570
 1616TIP3    H226264   6.018   4.610   2.326 -2.0720 -0.9973  1.3740
 1617TIP3   OH226265   1.699   3.119  14.836 -0.8302  0.1996 -0.6057
 1617TIP3    H126266   1.671   3.173  14.910 -1.8018 -0.3513 -0.5597
 1617TIP3    H226267   1.642   3.042  14.840  0.3921 -0.7377 -0.7831
 1618TIP3   OH226268   1.883   5.213  13.125 -0.3401 -0.5605  0.8199
 1618TIP3    H126269   1.882   5.231  13.031  1.2074  3.0171  1.4158
 1618TIP3    H226270   1.816   5.145  13.137 -0.6925 -0.9664 -2.8056
 1619TIP3   OH226271   1.171   5.555  13.864  0.9407 -0.3811 -0.3485
 1619TIP3    H126272   1.258   5.549  13.905  1.4037  1.1651 -1.0687
 1619TIP3    H226273   1.186   5.604  13.783 -0.6713  0.2639 -0.2759
 1620TIP3   OH226274   0.723   0.785   5.412 -1.0642  0.3379 -0.4030
 1620TIP3    H126275   0.783   0.859   5.405 -1.1598  0.3384 -1.3040
 1620TIP3    H226276   0.657   0.802   5.345 -0.5414 -1.0702 -1.2912
 1621TIP3   OH226277   0.111   2.012  11.527  0.0753 -0.0887  0.3256
 1621TIP3    H126278   0.205   2.017  11.509  0.3596  1.1093  2.0391
 1621TIP3    H226279   0.096   1.919  11.548  0.7645 -0.3876 -0.4603
 1622TIP3   OH226280   5.040   0.356  13.750 -0.3881 -0.2774 -0.1271
 1622TIP3    H126281   5.131   0.328  13.749 -0.2477  0.1308  0.5340
 1622TIP3    H226282   5.040   0.441  13.706 -0.3389  0.0162  0.4271
 1623TIP3   OH226283   4.862   0.256   0.935 -0.0392  0.5818  0.2576
 1623TIP3    H126284   4.845   0.246   0.841  0.1290  0.4373  0.2411
 1623TIP3    H226285   4.859   0.167   0.969  0.1592  0.6078  0.3437
 1624TIP3   OH226286   5.512   0.446   2.631 -0.0352 -0.2833 -0.1519
 1624TIP3    H126287   5.436   0.407   2.588 -0.1966 -1.3882  1.1014
 1624TIP3    H226288   5.585   0.389   2.606  0.3940  0.7586 -1.3287
 1625TIP3   OH226289   3.990   0.912  16.553  0.0549 -0.5988 -0.1427
 1625TIP3    H126290   3.927   0.972  16.512  0.1312 -0.5035 -0.1219
 1625TIP3    H226291   4.075   0.950  16.532  0.0725 -0.0776  0.8450
 1626TIP3   OH226292   4.310   5.312  11.915  0.4792  0.2476  0.2429
 1626TIP3    H126293   4.309   5.406  11.895  0.5534  0.4400  1.1017
 1626TIP3    H226294   4.234   5.277  11.869 -0.1493  0.9176  0.7507
 1627TIP3   OH226295   1.488   2.214   0.873 -0.0725 -0.2128 -0.2773
 1627TIP3    H126296   1.461   2.282   0.812 -2.8358 -0.1488  0.9572
 1627TIP3    H226297   1.540   2.154   0.820 -0.4907  1.0426 -2.1609
 1628TIP3   OH226298   2.090   5.603  16.620  0.1378  0.0152 -0.2023
 1628TIP3    H126299   2.064   5.608  16.528 -2.6566  0.6271  0.5798
 1628TIP3    H226300   2.127   5.690  16.639 -0.3738  0.2861 -0.4366
 1629TIP3   OH226301   4.491   3.421  17.045 -0.4205 -0.3046  0.3835
 1629TIP3    H126302   4.496   3.412  16.950 -2.4844  0.2792  0.1973
 1629TIP3    H226303   4.556   3.488  17.066 -0.3735 -0.0083 -0.6808
 1630TIP3   OH226304   0.616   3.968  16.416  0.3079 -0.2346  0.2694
 1630TIP3    H126305   0.565   3.902  16.368  1.3721  0.0071 -1.2019
 1630TIP3    H226306   0.617   4.044  16.358  1.9725 -0.0837  0.4775
 1631TIP3   OH226307   0.196   5.036  13.194 -0.0036 -0.2025 -0.3833
 1631TIP3    H126308   0.119   5.051  13.139  0.6768 -0.3037 -1.3745
 1631TIP3    H226309   0.270   5.037  13.133  0.6592 -1.4234  0.3647
 1632TIP3   OH226310   1.249   2.193   0.995  0.5593  0.0072  0.1670
 1632TIP3    H126311   1.184   2.261   0.977 -0.8712 -0.9996  1.4018
 1632TIP3    H226312   1.316   2.206   0.929 -0.8769  1.1180 -1.1091
 1633TIP3   OH226313   6.394   2.614   2.572  0.5337  0.1077 -0.5928
 1633TIP3    H126314   6.429   2.605   2.483  0.4857 -1.0844 -0.5013
 1633TIP3    H226315   6.301   2.632   2.559  1.0917  3.0156 -0.8318
 1634TIP3   OH226316   6.259   1.549   2.848 -0.0339  0.1198 -0.1811
 1634TIP3    H126317   6.273   1.641   2.872  0.9035  0.8507 -3.2937
 1634TIP3    H226318   6.163   1.540   2.847 -0.2406  2.0166 -3.0578
 1635TIP3   OH226319   6.442   2.787  16.420 -0.9050 -0.1967 -0.0729
 1635TIP3    H126320   6.450   2.713  16.360 -1.0595 -0.2469 -0.0311
 1635TIP3    H226321   6.515   2.776  16.481 -1.5285 -0.8943  0.5598
 1636TIP3   OH226322   4.229   3.052   2.611  0.3351  0.2628  0.4787
 1636TIP3    H126323   4.199   3.056   2.520 -0.8656  0.4928  0.8828
 1636TIP3    H226324   4.303   3.113   2.614 -0.3588  1.1497 -0.0733
 1637TIP3   OH226325   5.646   0.712   4.485 -0.1605  0.1483  0.2529
 1637TIP3    H126326   5.675   0.623   4.506  1.2461  0.8460  1.3774
 1637TIP3    H226327   5.567   0.700   4.432 -0.3415 -1.7530  0.9249
 1638TIP3   OH226328   3.602   0.540  16.697  0.0800 -0.1488  0.8696
 1638TIP3    H126329   3.671   0.589  16.652 -0.3955  0.3996  0.7287
 1638TIP3    H226330   3.587   0.463  16.642 -1.2185  1.0335 -0.4877
 1639TIP3   OH226331   4.653   2.978  16.375 -0.0158  0.8147 -0.0177
 1639TIP3    H126332   4.719   2.955  16.310  1.4642  1.0810  1.3754
 1639TIP3    H226333   4.621   3.064  16.348 -0.1230  0.4993 -0.9313
 1640TIP3   OH226334   3.883   2.616   1.425 -0.0779 -0.2846  0.0040
 1640TIP3    H126335   3.904   2.706   1.401 -2.1851  0.3859  0.5304
 1640TIP3    H226336   3.813   2.591   1.364 -1.2977 -0.6492  1.5205
 1641TIP3   OH226337   5.145   2.500  16.066 -0.2928  0.5420 -0.2747
 1641TIP3    H126338   5.177   2.425  16.118  0.4261  1.0638  0.0389
 1641TIP3    H226339   5.212   2.512  15.999 -0.2759  1.0677 -0.1628
 1642TIP3   OH226340   5.001   4.779  10.829  0.1614  0.4692 -0.0871
 1642TIP3    H126341   4.912   4.754  10.854  0.4719  1.2601  1.8981
 1642TIP3    H226342   5.005   4.873  10.848  1.0603  0.6861 -1.2814
 1643TIP3   OH226343   5.758   2.673  17.039  0.0634 -0.0684 -0.2595
 1643TIP3    H126344   5.715   2.598  17.080 -0.5993  1.3076  1.6269
 1643TIP3    H226345   5.703   2.695  16.965 -0.3774 -0.7224 -0.1291
 1644TIP3   OH226346   4.146   5.712   3.900 -0.1778  0.1566 -0.3979
 1644TIP3    H126347   4.088   5.774   3.945 -0.4526 -0.1986 -0.2607
 1644TIP3    H226348   4.126   5.723   3.807 -1.3344 -0.8328 -0.2696
 1645TIP3   OH226349   1.781   5.021   6.220  0.6972 -0.1196  0.2197
 1645TIP3    H126350   1.692   4.988   6.209  0.7147 -0.3227  0.6937
 1645TIP3    H226351   1.838   4.945   6.209  0.8553  0.1199 -0.7102
 1646TIP3   OH226352   5.640   5.442  11.747 -0.2731  0.4117 -0.1776
 1646TIP3    H126353   5.706   5.373  11.753 -1.0619 -0.1687  1.9116
 1646TIP3    H226354   5.691   5.521  11.728  0.8089 -0.3944 -0.6954
 1647TIP3   OH226355   3.656   3.491   4.892  0.6316 -0.7935 -0.7996
 1647TIP3    H126356   3.699   3.415   4.854  0.7037 -0.5527 -1.2012
 1647TIP3    H226357   3.589   3.515   4.828 -1.2432 -2.1876  0.5694
 1648TIP3   OH226358   0.634   6.039   3.691 -0.3124  0.1265  0.2804
 1648TIP3    H126359   0.721   6.061   3.723  0.6659 -0.0359 -2.1906
 1648TIP3    H226360   0.597   6.122   3.661  0.2008 -0.2512 -1.4691
 1649TIP3   OH226361   5.536   0.707  14.445 -0.1145  0.1018  1.3043
 1649TIP3    H126362   5.597   0.741  14.380  0.6209  0.1458  2.0081
 1649TIP3    H226363   5.542   0.612  14.437 -1.6060  0.1026 -0.1395
 1650TIP3   OH226364   4.377   6.566  14.127  0.2208 -0.7432 -0.4555
 1650TIP3    H126365   4.319   6.615  14.185  1.9752 -0.0147  0.7231
 1650TIP3    H226366   4.362   6.603  14.040  0.3979  0.8161  0.1784
 1651TIP3   OH226367   5.234   4.964  13.693 -0.5041 -0.0137 -0.2048
 1651TIP3    H126368   5.268   4.980  13.605  0.1026  1.2496  0.2570
 1651TIP3    H226369   5.261   4.874  13.713 -0.4332 -0.2184 -1.2066
 1652TIP3   OH226370   4.030   3.223   0.359 -0.6286 -0.4256  0.0483
 1652TIP3    H126371   4.042   3.129   0.344 -2.6327 -0.4263 -1.7523
 1652TIP3    H226372   4.005   3.258   0.274 -0.0203  1.7533  0.7203
 1653TIP3   OH226373   4.267   4.900  17.188  0.3176  0.3529  0.4573
 1653TIP3    H126374   4.345   4.953  17.171  1.0874 -0.2921  1.9131
 1653TIP3    H226375   4.224   4.944  17.261 -0.4799  0.4809 -0.0868
 1654TIP3   OH226376   5.144   0.483  14.605  0.3743  0.1668  0.1307
 1654TIP3    H126377   5.192   0.402  14.589 -0.6659 -0.6693  1.1208
 1654TIP3    H226378   5.087   0.493  14.529  0.0217 -0.3944  0.3205
 1655TIP3   OH226379   1.206   3.732   4.612 -0.8311 -0.7679 -0.1767
 1655TIP3    H126380   1.290   3.685   4.604 -1.4386 -1.6921 -1.4947
 1655TIP3    H226381   1.204   3.763   4.702  0.8014 -0.9881 -0.0433
 1656TIP3   OH226382   3.505   4.395  15.050  0.1306  0.6920  0.1806
 1656TIP3    H126383   3.525   4.477  15.095  0.4615  1.7936 -1.8923
 1656TIP3    H226384   3.586   4.345  15.052  1.3446  2.4362 -2.6144
 1657TIP3   OH226385   0.009   6.014  11.477  0.3618 -0.2324  0.6294
 1657TIP3    H126386   0.018   5.921  11.499 -1.5436 -0.5033  0.3395
 1657TIP3    H226387  -0.005   6.057  11.561  0.7496 -0.2688  0.7137
 1658TIP3   OH226388   2.902   2.719  13.420  0.2502  0.0689  0.7660
 1658TIP3    H126389   2.889   2.644  13.362 -0.2423  0.6527  0.1178
 1658TIP3    H226390   2.950   2.782  13.366 -3.0048  1.9273 -0.1044
 1659TIP3   OH226391   0.686   4.110  12.567 -0.0137 -0.6123 -0.0491
 1659TIP3    H126392   0.720   4.161  12.493  0.3300 -0.9349 -0.1176
 1659TIP3    H226393   0.703   4.019  12.543 -0.3826 -0.7455  0.1930
 1660TIP3   OH226394   5.218   0.394   5.190 -0.1114  0.2768 -0.0982
 1660TIP3    H126395   5.217   0.475   5.139  1.1750  0.4906  0.2028
 1660TIP3    H226396   5.210   0.325   5.125  0.2897  0.6004 -0.4989
 1661TIP3   OH226397   4.717   1.365   3.064 -0.0538  0.1075  0.2601
 1661TIP3    H126398   4.665   1.445   3.074 -1.4335 -0.4797 -1.8372
 1661TIP3    H226399   4.657   1.303   3.022  1.8922 -1.0741 -0.8464
 1662TIP3   OH226400   1.924   2.111  14.442  0.3835 -0.2489  0.0098
 1662TIP3    H126401   2.012   2.076  14.432 -0.7256 -2.4499 -2.6935
 1662TIP3    H226402   1.923   2.192  14.390  0.8467 -0.1317  0.1848
 1663TIP3   OH226403   2.436   5.420   5.827 -0.8754  0.4672 -0.4165
 1663TIP3    H126404   2.348   5.384   5.826 -1.2727  1.3261  1.2387
 1663TIP3    H226405   2.483   5.367   5.891 -0.4422  0.5672 -0.6462
 1664TIP3   OH226406   0.695   3.855  14.994  0.5188 -0.1788  0.0398
 1664TIP3    H126407   0.767   3.915  14.977 -0.0051 -0.2231 -2.5956
 1664TIP3    H226408   0.653   3.843  14.909 -1.6937 -1.3197  1.2362
 1665TIP3   OH226409   1.426   5.283   6.248  0.2525 -0.3280 -0.7330
 1665TIP3    H126410   1.392   5.258   6.334 -0.0433 -1.7231 -1.2407
 1665TIP3    H226411   1.355   5.332   6.207  1.2118  2.3517  0.6772
 1666TIP3   OH226412   0.173   3.441  15.075  0.0448 -0.3007  0.6057
 1666TIP3    H126413   0.110   3.507  15.103 -0.9807 -0.6148 -0.8935
 1666TIP3    H226414   0.127   3.358  15.085  0.4303 -0.5795  0.1051
 1667TIP3   OH226415   6.281   2.700  13.631 -0.3075  0.4802 -0.5371
 1667TIP3    H126416   6.254   2.790  13.609 -0.3623  0.2437 -1.4637
 1667TIP3    H226417   6.198   2.652  13.637 -0.2592  0.4225 -0.3215
 1668TIP3   OH226418   6.361   2.926  16.718 -0.3143 -0.0241  0.0801
 1668TIP3    H126419   6.369   2.866  16.792 -1.0605 -0.6769 -0.3660
 1668TIP3    H226420   6.400   3.008  16.750  0.4789 -0.6617  0.7733
 1669TIP3   OH226421   6.370   2.371  12.910 -0.4446 -0.1928 -0.0643
 1669TIP3    H126422   6.287   2.416  12.927 -0.0831  0.1540  0.8062
 1669TIP3    H226423   6.345   2.282  12.884 -1.1751  0.5727 -2.0517
 1670TIP3   OH226424   3.590   0.979  12.554 -0.3021  0.4038  0.0237
 1670TIP3    H126425   3.626   1.055  12.600 -2.1140  0.7161  0.9580
 1670TIP3    H226426   3.612   0.905  12.609  0.4022  0.3751 -0.2820
 1671TIP3   OH226427   0.287   4.501   4.443  0.5577 -0.3213  0.8856
 1671TIP3    H126428   0.339   4.507   4.363 -0.6668  0.0018  0.0829
 1671TIP3    H226429   0.339   4.546   4.510  1.8033 -1.0174  0.3811
 1672TIP3   OH226430   4.572   5.705   5.645 -0.7123  0.1132  0.0993
 1672TIP3    H126431   4.566   5.610   5.655 -0.3383  0.3771  3.3516
 1672TIP3    H226432   4.659   5.727   5.677 -0.0536  1.4184 -2.4122
 1673TIP3   OH226433   4.774   0.954  16.991  0.2549  0.2020  0.4577
 1673TIP3    H126434   4.736   1.040  16.973 -0.8245 -0.2898  0.3393
 1673TIP3    H226435   4.756   0.903  16.912 -1.5622 -0.9643  1.5844
 1674TIP3   OH226436   3.842   4.324   3.907 -0.3552  0.2096 -0.8799
 1674TIP3    H126437   3.906   4.256   3.929 -0.2962  0.5068 -0.1297
 1674TIP3    H226438   3.763   4.299   3.955  0.1143  1.4652  0.6051
 1675TIP3   OH226439   2.170   1.014   0.261 -0.1674  0.4699  0.1655
 1675TIP3    H126440   2.253   1.057   0.281 -0.6063  0.5627  1.8643
 1675TIP3    H226441   2.159   0.950   0.331  0.1208 -1.9484 -1.9211
 1676TIP3   OH226442   1.561   4.301   1.031  0.1340  0.4151  0.2006
 1676TIP3    H126443   1.600   4.228   0.981  0.5034  0.9555 -0.3142
 1676TIP3    H226444   1.475   4.313   0.992 -0.1876 -0.1783  0.7252
 1677TIP3   OH226445   1.914   0.569   5.148  1.0925  0.2255 -0.4876
 1677TIP3    H126446   1.851   0.506   5.110  0.1926 -0.1343  1.5383
 1677TIP3    H226447   1.862   0.620   5.210  2.0688  2.2654 -1.3175
 1678TIP3   OH226448   4.341   6.039  17.064 -0.2234  0.1185 -0.3743
 1678TIP3    H126449   4.270   5.986  17.100  0.4492  0.6804  1.8937
 1678TIP3    H226450   4.301   6.122  17.041 -0.6944 -0.2940 -1.0476
 1679TIP3   OH226451   3.043   3.229   6.400  0.5858  0.2491  0.3539
 1679TIP3    H126452   3.109   3.194   6.340  0.0266  0.5300 -0.4259
 1679TIP3    H226453   3.074   3.318   6.419  1.4978 -0.3176  1.5836
 1680TIP3   OH226454   3.652   2.283   3.382 -0.3214  0.1881  0.2374
 1680TIP3    H126455   3.734   2.288   3.431  0.3644 -0.8147 -0.8200
 1680TIP3    H226456   3.595   2.346   3.427  0.9214  0.7015  1.1411
 1681TIP3   OH226457   6.570   3.826   1.612  0.4647 -0.3192 -0.0177
 1681TIP3    H126458   6.527   3.745   1.583  0.0992 -0.3487  0.5952
 1681TIP3    H226459   6.498   3.881   1.644  0.6425  0.5062 -1.0333
 1682TIP3   OH226460   4.915   4.287   4.843  0.2222  0.3130 -0.1808
 1682TIP3    H126461   4.957   4.268   4.927 -0.4729 -0.7168 -0.0524
 1682TIP3    H226462   4.889   4.379   4.850 -0.0812  0.1630  0.8580
 1683TIP3   OH226463   4.377   3.446   6.766 -0.4222  0.1731 -0.3832
 1683TIP3    H126464   4.472   3.454   6.761 -0.2789  0.1180  1.8898
 1683TIP3    H226465   4.348   3.529   6.804 -1.3101  0.2990 -1.3201
 1684TIP3   OH226466   3.055   2.519   4.302  0.3352  0.1350  0.0054
 1684TIP3    H126467   2.988   2.451   4.311 -0.6183  0.9142 -1.1402
 1684TIP3    H226468   3.026   2.589   4.360  0.0294  0.5715 -0.6719
 1685TIP3   OH226469   0.571   3.573   3.948 -0.1907  0.0850  0.1904
 1685TIP3    H126470   0.654   3.563   3.993  0.7836  0.9008 -1.3910
 1685TIP3    H226471   0.589   3.635   3.877 -1.3630 -2.0757 -2.0747
 1686TIP3   OH226472   0.818   2.693  12.561  0.1922 -0.0866 -0.4587
 1686TIP3    H126473   0.753   2.627  12.538 -0.0026  0.1562 -0.6079
 1686TIP3    H226474   0.803   2.764  12.498 -3.5709  2.7209  3.3644
 1687TIP3   OH226475   5.208   0.749   1.576  0.1628  0.2168 -0.1170
 1687TIP3    H126476   5.149   0.691   1.624 -0.8801  2.0204  0.8846
 1687TIP3    H226477   5.286   0.754   1.631  0.1871 -0.1114 -0.1217
 1688TIP3   OH226478   6.311   5.743   2.548 -0.0009  0.4565  0.4810
 1688TIP3    H126479   6.254   5.745   2.625  0.0629  0.4536  0.5277
 1688TIP3    H226480   6.397   5.770   2.580 -0.2243  1.5430  0.1998
 1689TIP3   OH226481   3.939   5.183   0.960  0.0578 -0.0376  0.1101
 1689TIP3    H126482   3.935   5.255   1.023 -1.4246 -0.2952  0.3269
 1689TIP3    H226483   3.909   5.222   0.878  1.2048  0.0919 -0.2518
 1690TIP3   OH226484   5.775   2.116  16.180 -0.5093 -0.2357 -0.0087
 1690TIP3    H126485   5.838   2.153  16.117  1.1143 -1.6348  0.7594
 1690TIP3    H226486   5.822   2.115  16.263 -2.0672  0.0307  0.8887
 1691TIP3   OH226487   6.774   2.335   3.469  0.5328  0.6383 -0.3640
 1691TIP3    H126488   6.687   2.373   3.472  1.0145  2.0007 -2.3717
 1691TIP3    H226489   6.780   2.294   3.383  1.3403 -0.8065  0.3546
 1692TIP3   OH226490   4.986   0.766  16.022  0.2471  0.4332 -0.2004
 1692TIP3    H126491   5.024   0.723  15.946 -0.3279 -0.6163  0.1009
 1692TIP3    H226492   5.060   0.783  16.080  0.6559  1.0271 -0.8904
 1693TIP3   OH226493   2.409   2.699   4.796  0.1485 -0.4254  0.5720
 1693TIP3    H126494   2.339   2.751   4.835 -1.5915 -2.3922  0.2064
 1693TIP3    H226495   2.388   2.697   4.702 -0.3386 -2.4385  0.6850
 1694TIP3   OH226496   2.036   3.312   3.416  0.2144 -0.2969 -0.7062
 1694TIP3    H126497   2.091   3.258   3.360  0.0835 -0.7200 -0.4239
 1694TIP3    H226498   2.001   3.252   3.482 -0.2412  0.0491 -0.6240
 1695TIP3   OH226499   5.716   4.069  14.733 -0.1496 -0.1909 -0.8107
 1695TIP3    H126500   5.715   4.036  14.643 -2.8509  0.2199 -0.9751
 1695TIP3    H226501   5.757   4.155  14.727  0.2730 -0.4372 -1.5325
 1696TIP3   OH226502   5.952   2.643   0.150 -1.0364 -0.8756  0.1916
 1696TIP3    H126503   6.021   2.586   0.115 -0.3175 -0.2751  0.6141
 1696TIP3    H226504   5.932   2.606   0.236 -0.6275 -0.5400  0.4315
 1697TIP3   OH226505   0.244   5.677  17.036  0.0368 -0.1222  0.1857
 1697TIP3    H126506   0.206   5.726  16.964 -2.5986 -1.1126  0.8571
 1697TIP3    H226507   0.169   5.644  17.085  1.7751 -1.4509  2.0280
 1698TIP3   OH226508   2.722   5.687   2.120  0.5880  0.2529  0.7745
 1698TIP3    H126509   2.692   5.772   2.153  1.2258  0.1830  1.5762
 1698TIP3    H226510   2.817   5.697   2.113  0.7256 -0.5720  1.4018
 1699TIP3   OH226511   1.723   4.330  16.288  0.1393 -0.5699 -0.3500
 1699TIP3    H126512   1.792   4.317  16.224  0.8796  1.1034  0.0946
 1699TIP3    H226513   1.647   4.359  16.237  1.9240  4.9959 -0.1521
 1700TIP3   OH226514   1.155   3.463  16.521 -0.2159 -0.0923  0.5151
 1700TIP3    H126515   1.249   3.472  16.538  0.0055  3.3784 -1.9371
 1700TIP3    H226516   1.143   3.370  16.503  2.4062 -0.8973  2.6093
 1701TIP3   OH226517   1.034   2.367  11.950 -0.0923  0.4097 -0.0739
 1701TIP3    H126518   1.098   2.417  12.002  0.5550 -0.2229 -0.2544
 1701TIP3    H226519   1.086   2.328  11.880 -0.8160  0.5189 -0.6757
 1702TIP3   OH226520   3.019   0.098   4.109 -0.5898  0.0709 -0.1353
 1702TIP3    H126521   3.018   0.186   4.072  1.7284 -0.3571 -1.3410
 1702TIP3    H226522   2.986   0.109   4.199 -0.7579  2.0671 -0.4176
 1703TIP3   OH226523   4.865   1.032  12.102  0.1840  0.1646 -0.4529
 1703TIP3    H126524   4.933   1.042  12.035  0.5938 -1.1956 -0.2554
 1703TIP3    H226525   4.828   0.945  12.085 -0.1963  0.1107  0.6372
 1704TIP3   OH226526   4.182   3.270   6.523 -0.1345 -0.5191 -0.5098
 1704TIP3    H126527   4.138   3.204   6.470 -0.2436 -1.1186  0.3183
 1704TIP3    H226528   4.112   3.330   6.549  0.1003  0.4372 -1.9760
 1705TIP3   OH226529   6.030   3.936   4.138 -0.1622  0.2010 -0.2983
 1705TIP3    H126530   6.068   3.848   4.141 -0.6839 -0.0207 -0.0204
 1705TIP3    H226531   6.020   3.954   4.045 -0.5462 -0.2523 -0.3468
 1706TIP3   OH226532   5.158   0.479  16.102 -0.5836  1.2873 -0.0551
 1706TIP3    H126533   5.106   0.482  16.022 -1.4297  1.6262  0.5043
 1706TIP3    H226534   5.153   0.569  16.137 -1.8067  0.6837  1.3763
 1707TIP3   OH226535   4.381   2.963   1.873 -0.0160  0.3904 -0.4309
 1707TIP3    H126536   4.294   2.980   1.837 -0.8916  1.6743  2.1890
 1707TIP3    H226537   4.441   3.009   1.815 -1.3079  1.6742 -0.7591
 1708TIP3   OH226538   5.498   2.002  15.401  0.2139 -0.2900  0.3451
 1708TIP3    H126539   5.561   2.053  15.351  0.4664 -2.8131 -2.0101
 1708TIP3    H226540   5.547   1.969  15.475  0.1733  2.3993  1.6416
 1709TIP3   OH226541   6.170   4.758  14.117 -0.1332 -0.2822 -0.7091
 1709TIP3    H126542   6.216   4.824  14.169  1.4871 -0.7414 -1.5212
 1709TIP3    H226543   6.142   4.804  14.038  1.5106 -0.6661 -1.5462
 1710TIP3   OH226544   4.848   4.816  12.803  0.2918 -0.0943 -0.0325
 1710TIP3    H126545   4.911   4.867  12.855 -0.6289 -0.6055  1.6212
 1710TIP3    H226546   4.762   4.843  12.835 -0.2451 -1.7217 -0.0193
 1711TIP3   OH226547   3.035   2.408  16.920  0.3907  0.0138  0.3408
 1711TIP3    H126548   3.046   2.381  17.011  3.0410 -0.7614 -0.1582
 1711TIP3    H226549   2.940   2.405  16.905  0.0524 -1.5892  2.5437
 1712TIP3   OH226550   5.732   0.785  17.030  0.1689  0.1574 -0.1718
 1712TIP3    H126551   5.681   0.756  16.955  2.3501  0.1851 -1.6929
 1712TIP3    H226552   5.747   0.878  17.015  1.8031 -0.1405 -0.4064
 1713TIP3   OH226553   1.030   4.379  13.555  0.5552  0.3293 -0.5694
 1713TIP3    H126554   0.967   4.445  13.584  1.4041  0.7383  0.3457
 1713TIP3    H226555   0.979   4.298  13.551 -0.2904  0.8714 -0.8957
 1714TIP3   OH226556   0.580   4.751   1.718  0.1715  0.3406 -0.1343
 1714TIP3    H126557   0.627   4.726   1.639 -2.8526 -0.3884 -1.8000
 1714TIP3    H226558   0.521   4.821   1.690 -0.1766  0.8115  1.7098
 1715TIP3   OH226559   5.024   3.345   0.732  0.0512  0.1517 -0.2603
 1715TIP3    H126560   5.080   3.369   0.658 -0.9281  2.5167 -0.2805
 1715TIP3    H226561   4.976   3.425   0.752 -1.9600 -1.3170  0.9592
 1716TIP3   OH226562   3.145   4.433   5.482 -0.0791 -0.5872  0.0024
 1716TIP3    H126563   3.234   4.448   5.514 -0.3208  0.6375  0.1533
 1716TIP3    H226564   3.103   4.519   5.489 -0.7174 -0.7319 -1.7952
 1717TIP3   OH226565   3.113   6.036   3.661 -0.0696  0.1468  0.2438
 1717TIP3    H126566   3.039   6.074   3.709  0.2553  0.7205  0.2986
 1717TIP3    H226567   3.184   6.100   3.672 -0.7266  1.5701 -3.1847
 1718TIP3   OH226568   4.876   2.103   5.517  0.1690 -0.6067  0.1398
 1718TIP3    H126569   4.807   2.113   5.451  0.3783 -1.7172 -0.2526
 1718TIP3    H226570   4.854   2.023   5.564  0.3982 -0.1824  0.9775
 1719TIP3   OH226571   0.448   1.536   1.944 -0.2741  0.1699  0.3802
 1719TIP3    H126572   0.537   1.570   1.933 -0.6629  1.3287  0.7105
 1719TIP3    H226573   0.460   1.447   1.977  0.7601  0.8121  1.7720
 1720TIP3   OH226574   4.915   6.389  12.637  0.9298  0.1128  0.2065
 1720TIP3    H126575   4.938   6.476  12.603 -0.2912  1.0668  1.7517
 1720TIP3    H226576   4.826   6.375  12.604  1.6705 -1.2254 -1.2809
 1721TIP3   OH226577   1.461   0.818  11.646  0.5238 -0.0201  0.4945
 1721TIP3    H126578   1.417   0.887  11.597  1.4866  1.7396  2.0257
 1721TIP3    H226579   1.391   0.771  11.691 -0.0030  1.0532  0.7972
 1722TIP3   OH226580   6.362   4.138   0.911  0.1015 -1.2370  0.4204
 1722TIP3    H126581   6.401   4.051   0.905 -2.5634 -2.5199  0.9845
 1722TIP3    H226582   6.351   4.165   0.820  0.8316 -1.5225  0.2389
 1723TIP3   OH226583   5.915   4.211   4.220  0.4058 -0.0612 -0.3514
 1723TIP3    H126584   5.880   4.182   4.304 -0.6182  0.5253 -0.5736
 1723TIP3    H226585   6.006   4.182   4.221  0.2501 -0.5310  0.7341
 1724TIP3   OH226586   2.968   4.629   3.320  0.1763  0.0609 -0.1844
 1724TIP3    H126587   3.047   4.682   3.312  1.0219 -1.2026 -0.3630
 1724TIP3    H226588   2.922   4.642   3.237  1.2053 -0.7720 -0.9064
 1725TIP3   OH226589   3.945   0.349   1.948  0.0372  0.0960  0.0662
 1725TIP3    H126590   3.852   0.351   1.926  0.3798  1.4719 -1.3417
 1725TIP3    H226591   3.990   0.350   1.864  1.3801  4.3226  0.6931
 1726TIP3   OH226592   2.876   3.863  11.218  0.2650  0.7735 -0.0123
 1726TIP3    H126593   2.869   3.799  11.288  2.8369  0.0760 -0.3702
 1726TIP3    H226594   2.847   3.816  11.139  3.4139 -0.4181 -0.5169
 1727TIP3   OH226595   3.759   2.826   5.995 -0.3414  0.1381 -0.5625
 1727TIP3    H126596   3.827   2.850   5.933  0.6944  0.6443  0.7469
 1727TIP3    H226597   3.802   2.830   6.081 -2.4157  2.1024  0.4453
 1728TIP3   OH226598   4.162   4.322  16.444  0.3449  0.0467 -0.2865
 1728TIP3    H126599   4.253   4.316  16.417  0.3143 -2.2283  0.0432
 1728TIP3    H226600   4.163   4.381  16.519  1.6699 -0.6212  0.2316
 1729TIP3   OH226601   3.278   2.660   1.355 -0.5341 -0.1272 -0.2864
 1729TIP3    H126602   3.306   2.609   1.280 -1.9927  0.8269 -1.5000
 1729TIP3    H226603   3.336   2.736   1.356  1.4992 -1.6196  1.3975
 1730TIP3   OH226604   3.077   6.273  13.913  0.1400  0.6555 -0.2455
 1730TIP3    H126605   3.003   6.261  13.973  1.2002 -2.9203  0.4120
 1730TIP3    H226606   3.151   6.292  13.970  0.1342  2.4263 -0.7986
 1731TIP3   OH226607   4.840   1.251  11.874 -0.4458 -0.5773  0.0772
 1731TIP3    H126608   4.911   1.277  11.815 -0.2436 -0.0917  0.5301
 1731TIP3    H226609   4.880   1.251  11.961 -0.8920 -0.7245  0.2827
 1732TIP3   OH226610   3.000   1.655  11.395 -0.5364 -0.0581 -0.4106
 1732TIP3    H126611   3.028   1.583  11.451 -0.4761  0.5781  0.3859
 1732TIP3    H226612   2.983   1.614  11.310  0.7205 -0.7941 -0.3143
 1733TIP3   OH226613   3.632   1.626  12.729 -0.1235 -0.5085 -0.5971
 1733TIP3    H126614   3.550   1.611  12.776  0.6889  2.7985  2.0302
 1733TIP3    H226615   3.697   1.574  12.777  0.3388  1.3381  0.8272
 1734TIP3   OH226616   5.743   2.463   4.239  0.0156 -0.4936 -0.7587
 1734TIP3    H126617   5.706   2.375   4.235  1.0877 -0.9535 -0.8915
 1734TIP3    H226618   5.788   2.466   4.324 -2.8986  1.1269  0.8009
 1735TIP3   OH226619   3.924   3.319   2.811  0.2259 -0.1115 -0.0298
 1735TIP3    H126620   3.881   3.333   2.895  0.1074  1.4185 -0.3183
 1735TIP3    H226621   3.865   3.361   2.748  1.4751  0.8123 -0.5901
 1736TIP3   OH226622   0.278   2.131   4.029 -0.2712  0.0771  0.0176
 1736TIP3    H126623   0.301   2.187   4.103 -1.7167  1.8241 -0.8097
 1736TIP3    H226624   0.349   2.142   3.966  1.2429 -1.8529  1.3572
 1737TIP3   OH226625   0.083   5.046  16.399  0.2279 -0.0847 -0.4498
 1737TIP3    H126626   0.041   4.960  16.391  0.4037 -0.0479 -1.8817
 1737TIP3    H226627   0.065   5.090  16.316  1.3433  0.7190 -0.2891
 1738TIP3   OH226628   0.669   4.926   2.916 -0.2649 -0.4645  0.1404
 1738TIP3    H126629   0.745   4.869   2.901 -0.3388 -0.6165  0.3347
 1738TIP3    H226630   0.704   4.999   2.966 -0.1254 -0.2278 -0.3003
 1739TIP3   OH226631   0.969   6.506   4.115  0.3273 -0.4245  0.1200
 1739TIP3    H126632   1.001   6.448   4.184  1.6116  0.3286  0.1657
 1739TIP3    H226633   1.046   6.529   4.064 -0.4921 -0.3690 -1.1218
 1740TIP3   OH226634   6.780   0.797  13.506 -0.1345 -0.1651  0.2742
 1740TIP3    H126635   6.720   0.752  13.565  0.0751 -1.3510 -0.3939
 1740TIP3    H226636   6.771   0.750  13.423 -0.3966  1.4549 -0.6365
 1741TIP3   OH226637   2.655   0.079   3.085  0.4191 -0.5755  0.0846
 1741TIP3    H126638   2.620   0.100   3.171 -0.0335  0.3409 -0.3169
 1741TIP3    H226639   2.645  -0.016   3.077 -0.7478 -0.4954  0.5054
 1742TIP3   OH226640   6.633   0.888  13.869  0.4690  0.3310 -0.1236
 1742TIP3    H126641   6.635   0.974  13.826 -0.2596  1.6995  2.4784
 1742TIP3    H226642   6.545   0.883  13.907  1.0042 -0.9667  0.9649
 1743TIP3   OH226643   2.866   2.438   2.927 -0.4253  0.3729 -0.8759
 1743TIP3    H126644   2.792   2.437   2.867 -1.0875 -1.2683 -0.0765
 1743TIP3    H226645   2.903   2.526   2.918 -2.7008  1.3640 -0.9899
 1744TIP3   OH226646   6.063   0.162  13.727  0.3928  0.3792  0.8127
 1744TIP3    H126647   6.073   0.067  13.720  1.1304  0.5401 -0.5326
 1744TIP3    H226648   6.121   0.197  13.659  0.3632  1.7986  1.5099
 1745TIP3   OH226649   3.016   6.264  13.259 -0.0003  0.3338 -0.0991
 1745TIP3    H126650   2.990   6.179  13.296  0.1421 -0.1356 -1.0584
 1745TIP3    H226651   3.110   6.256  13.246  0.1648  0.9785  0.6641
 1746TIP3   OH226652   6.075   3.112  13.399 -0.1140  0.5757  0.6536
 1746TIP3    H126653   5.989   3.081  13.371  0.1909 -1.7740  2.2116
 1746TIP3    H226654   6.070   3.116  13.494  1.4252  0.5893  0.7523
 1747TIP3   OH226655   4.990   6.344   5.282 -0.2407 -0.5109  0.8975
 1747TIP3    H126656   4.943   6.361   5.200  1.5482 -1.9209 -0.4488
 1747TIP3    H226657   4.928   6.293   5.335 -1.6473  0.9530  0.7338
 1748TIP3   OH226658   6.644   4.008   1.975 -0.1384 -0.0544 -0.7028
 1748TIP3    H126659   6.622   4.057   2.054  1.9133  1.9119 -1.3024
 1748TIP3    H226660   6.682   3.926   2.007 -0.3784  0.2385  0.3407
 1749TIP3   OH226661   3.913   2.460  17.100  0.0278  0.1538  0.4819
 1749TIP3    H126662   3.865   2.381  17.075  0.8189  0.0204 -0.6578
 1749TIP3    H226663   3.850   2.512  17.150 -0.6205 -1.0107  0.8975
 1750TIP3   OH226664   5.800   4.287  12.784  0.3312 -0.6424  0.2479
 1750TIP3    H126665   5.770   4.200  12.758  0.6683 -0.8307  0.4975
 1750TIP3    H226666   5.721   4.329  12.819 -0.0955 -0.4296 -0.9617
 1751TIP3   OH226667   2.526   3.981   4.943  0.0040  0.1202  0.4703
 1751TIP3    H126668   2.541   3.889   4.963 -1.4316 -0.5368 -1.3623
 1751TIP3    H226669   2.443   3.982   4.895  0.7345  2.2120 -0.8125
 1752TIP3   OH226670   4.883   6.216   0.152  0.3154  0.3230 -0.3793
 1752TIP3    H126671   4.964   6.171   0.174  0.1134  0.1852  0.0704
 1752TIP3    H226672   4.844   6.163   0.082  1.8360  1.7202 -2.3592
 1753TIP3   OH226673   3.112   3.997   0.135 -0.0835 -0.4116  0.1681
 1753TIP3    H126674   3.077   4.054   0.204  2.1704  3.6847 -1.9355
 1753TIP3    H226675   3.183   3.949   0.178 -0.3193  0.2738  1.3537
 1754TIP3   OH226676   4.601   2.368   4.850 -0.0480  0.0398  0.0716
 1754TIP3    H126677   4.528   2.405   4.901 -0.4623  1.0520 -1.2367
 1754TIP3    H226678   4.569   2.368   4.760  0.2832 -2.7357 -0.0575
 1755TIP3   OH226679   3.819   1.064  15.033  0.3673 -0.2277  0.2562
 1755TIP3    H126680   3.904   1.037  15.069 -0.1550 -2.4922 -0.1345
 1755TIP3    H226681   3.838   1.089  14.943  0.7646  0.0808  0.4253
 1756TIP3   OH226682   2.208   2.057   6.377  1.1082 -0.4831 -0.2364
 1756TIP3    H126683   2.293   2.022   6.405 -0.4319 -2.8663  1.5824
 1756TIP3    H226684   2.170   2.094   6.456  0.1114 -0.1224 -0.8767
 1757TIP3   OH226685   5.634   0.447  16.624 -0.1575 -0.3681 -0.8335
 1757TIP3    H126686   5.562   0.504  16.648 -1.0372 -0.1501 -3.8390
 1757TIP3    H226687   5.593   0.376  16.575  1.2850 -2.0799  0.3562
 1758TIP3   OH226688   0.322   6.652   1.861  0.4288 -0.1407 -0.2030
 1758TIP3    H126689   0.242   6.599   1.866  0.3347 -0.1097 -1.2940
 1758TIP3    H226690   0.298   6.736   1.899  0.1296 -0.3543  0.0788
 1759TIP3   OH226691   3.294   5.516   3.392 -0.0087 -0.2930  0.2324
 1759TIP3    H126692   3.387   5.504   3.412 -0.3706 -0.8026  1.6924
 1759TIP3    H226693   3.259   5.428   3.381 -0.4901 -0.1444  0.5211
 1760TIP3   OH226694   5.453   0.363  13.458 -0.2541  0.6191 -0.2468
 1760TIP3    H126695   5.431   0.277  13.495 -1.7621  1.0531 -0.0927
 1760TIP3    H226696   5.430   0.425  13.527  0.1356  1.1959 -0.6344
 1761TIP3   OH226697   6.139   4.930  14.585 -0.1464 -0.4866 -0.1992
 1761TIP3    H126698   6.128   4.972  14.670 -0.1574  1.3161 -1.0613
 1761TIP3    H226699   6.122   5.000  14.521 -1.3377 -2.0860 -1.6994
 1762TIP3   OH226700   0.381   1.398   4.179  0.6374  0.0500 -0.2028
 1762TIP3    H126701   0.337   1.345   4.246 -0.4534  0.7955 -0.3238
 1762TIP3    H226702   0.323   1.472   4.164 -0.2043 -1.2015 -3.5685
 1763TIP3   OH226703   1.468   6.311  17.098 -0.0889  0.0925 -0.4523
 1763TIP3    H126704   1.397   6.248  17.089 -0.3313  0.4103 -0.7731
 1763TIP3    H226705   1.541   6.272  17.049  0.3236 -0.7608  0.7827
 1764TIP3   OH226706   3.628   4.772   6.288  0.0269 -0.1490  0.1518
 1764TIP3    H126707   3.673   4.692   6.261  0.8179  0.4823 -0.4419
 1764TIP3    H226708   3.636   4.772   6.384 -0.8314 -1.2642  0.2314
 1765TIP3   OH226709   3.836   1.484  13.308 -1.1082  0.5472  0.3390
 1765TIP3    H126710   3.875   1.441  13.231 -1.0782  2.4094 -0.7316
 1765TIP3    H226711   3.868   1.434  13.383 -0.5245 -0.8529 -0.8215
 1766TIP3   OH226712   0.586   1.799  11.257  0.3075  0.1381 -0.0680
 1766TIP3    H126713   0.585   1.720  11.311 -0.2700 -1.1216 -1.8954
 1766TIP3    H226714   0.496   1.809  11.226 -0.2834  3.0553  2.2615
 1767TIP3   OH226715   4.524   1.760  12.837  0.5502 -0.8236 -0.0830
 1767TIP3    H126716   4.570   1.679  12.860 -0.2562 -1.6661 -1.3809
 1767TIP3    H226717   4.448   1.731  12.787 -0.0586  0.7081 -0.0696
 1768TIP3   OH226718   0.124   0.979  12.136  0.0487  0.3865  0.1174
 1768TIP3    H126719   0.101   0.887  12.150  1.8154  0.3222  2.8637
 1768TIP3    H226720   0.205   0.975  12.085  0.3806  0.4232  0.6459
 1769TIP3   OH226721   6.275   0.264   2.868 -0.0820  0.3048 -0.3483
 1769TIP3    H126722   6.195   0.247   2.918 -0.7311 -1.7210 -2.0578
 1769TIP3    H226723   6.345   0.228   2.923 -0.4409  1.0427  0.6145
 1770TIP3   OH226724   2.844   0.828   3.605  0.2815  0.1484 -0.1641
 1770TIP3    H126725   2.937   0.846   3.620 -0.1035  1.3977  0.8179
 1770TIP3    H226726   2.803   0.914   3.603 -0.7593 -0.3647 -1.3319
 1771TIP3   OH226727   3.852   1.599   4.655 -0.6109 -0.4087 -0.3886
 1771TIP3    H126728   3.763   1.566   4.642 -1.6250  1.5007  1.3511
 1771TIP3    H226729   3.867   1.591   4.750  1.1517 -0.8796 -0.6783
 1772TIP3   OH226730   0.515   4.553  15.004 -0.4495  0.7863 -0.3081
 1772TIP3    H126731   0.439   4.502  15.031 -1.5952  2.4821 -0.2422
 1772TIP3    H226732   0.478   4.629  14.958  1.1388  2.1857  0.6550
 1773TIP3   OH226733   0.028   5.350   3.197  0.0287 -0.4002 -0.3136
 1773TIP3    H126734  -0.022   5.342   3.116 -0.3406  0.6488 -0.1963
 1773TIP3    H226735   0.016   5.441   3.223  0.6312 -0.5835  0.6072
 1774TIP3   OH226736   5.807   0.640  16.467  0.0311  0.2107 -0.4761
 1774TIP3    H126737   5.737   0.645  16.533  0.1319  2.0475 -0.4960
 1774TIP3    H226738   5.761   0.630  16.384 -0.3498  3.3721 -0.7222
 1775TIP3   OH226739   4.315   5.986  15.511  0.2011  0.1794  0.1711
 1775TIP3    H126740   4.274   5.946  15.587  0.4818  0.6504  0.5676
 1775TIP3    H226741   4.343   5.912  15.458 -0.4485 -0.1482  0.2758
 1776TIP3   OH226742   1.917   2.108  15.798 -0.1359 -0.2241  0.3469
 1776TIP3    H126743   1.929   2.071  15.886 -0.9206 -1.1719  0.0543
 1776TIP3    H226744   1.887   2.035  15.745  0.1428  0.3981 -0.6778
 1777TIP3   OH226745   0.586   6.564  16.838  0.2170  0.1060  0.0454
 1777TIP3    H126746   0.631   6.625  16.897  1.5876 -2.0492  1.3226
 1777TIP3    H226747   0.656   6.505  16.807 -1.2873 -1.6946 -0.0055
 1778TIP3   OH226748   0.518   3.318  12.613 -0.1418 -0.0371 -0.2243
 1778TIP3    H126749   0.445   3.373  12.643  0.4715  1.1519 -0.8767
 1778TIP3    H226750   0.498   3.231  12.646 -1.2327  0.5467  0.6723
 1779TIP3   OH226751   4.089   5.816   1.950 -0.1046 -0.0977 -0.4392
 1779TIP3    H126752   4.059   5.888   2.006 -0.3014 -0.5640  0.0578
 1779TIP3    H226753   4.040   5.826   1.869 -0.5975 -0.0478 -0.1330
 1780TIP3   OH226754   4.108   4.525  15.102  0.3630  0.3080  0.2829
 1780TIP3    H126755   4.082   4.437  15.073 -0.7638  1.1797 -1.3962
 1780TIP3    H226756   4.168   4.555  15.033  0.0663  1.1911  0.4105
 1781TIP3   OH226757   5.286   4.994  15.483 -0.1984 -0.1051 -0.1866
 1781TIP3    H126758   5.322   4.929  15.542  0.1647  1.1504  1.0213
 1781TIP3    H226759   5.207   5.026  15.528 -0.4152  0.2354 -0.7952
 1782TIP3   OH226760   3.865   3.604   4.348 -0.1163 -1.0656  0.3291
 1782TIP3    H126761   3.894   3.513   4.343  0.1898 -0.9460 -0.1435
 1782TIP3    H226762   3.925   3.645   4.410 -0.8172 -1.3953  1.2312
 1783TIP3   OH226763   5.119   6.385  10.921  0.0012 -0.3037  0.0891
 1783TIP3    H126764   5.106   6.417  11.010 -2.9805  0.7576 -0.6855
 1783TIP3    H226765   5.193   6.436  10.888  0.6856 -0.2140  1.6930
 1784TIP3   OH226766   3.139   2.441  12.986  0.0408 -0.4427 -0.1757
 1784TIP3    H126767   3.143   2.346  12.976 -2.1232 -0.4046 -1.7599
 1784TIP3    H226768   3.197   2.475  12.918 -0.6065 -0.5985 -0.8110
 1785TIP3   OH226769   4.197   2.501  15.885  0.2454 -0.0113 -0.2204
 1785TIP3    H126770   4.107   2.474  15.864 -0.1566  1.3339 -0.2914
 1785TIP3    H226771   4.187   2.584  15.931  1.5106  0.9410 -1.5917
 1786TIP3   OH226772   0.848   3.525  14.341 -0.5873 -0.1433  0.1214
 1786TIP3    H126773   0.819   3.453  14.286 -4.4342  0.7807  0.8161
 1786TIP3    H226774   0.877   3.592  14.278 -2.0581 -0.2530 -0.6885
 1787TIP3   OH226775   3.707   5.096  16.625  0.1923 -0.2093  0.0873
 1787TIP3    H126776   3.694   5.181  16.667 -1.1553  0.8111 -2.3178
 1787TIP3    H226777   3.787   5.107  16.573  1.2570 -1.1428  1.4637
 1788TIP3   OH226778   1.999   2.646  14.282  0.3064 -0.4766 -0.2117
 1788TIP3    H126779   1.964   2.560  14.260  1.7591 -1.0693 -0.2178
 1788TIP3    H226780   1.963   2.705  14.215 -2.3225 -0.6927  0.9603
 1789TIP3   OH226781   3.283   1.245   6.622  0.2628  0.2635 -0.4564
 1789TIP3    H126782   3.215   1.202   6.571 -0.6136  0.1571  0.7809
 1789TIP3    H226783   3.282   1.336   6.594  0.5182 -0.0232 -1.3962
 1790TIP3   OH226784   5.387   6.067  15.759 -0.5801  0.3233 -0.0349
 1790TIP3    H126785   5.381   5.974  15.739  1.4586  0.0586  0.5423
 1790TIP3    H226786   5.388   6.072  15.854  1.2131  0.7774 -0.0537
 1791TIP3   OH226787   4.645   1.060  15.995 -0.3018  0.3622  0.5372
 1791TIP3    H126788   4.655   1.033  16.086 -2.5589  1.8010  1.2548
 1791TIP3    H226789   4.640   1.155  15.999 -0.2386  0.4422 -1.1040
 1792TIP3   OH226790   5.693   4.836   5.154  0.0592 -0.2210  0.6860
 1792TIP3    H126791   5.645   4.892   5.093  1.4332  0.2088 -0.0235
 1792TIP3    H226792   5.638   4.833   5.232 -0.0160  2.1961  0.7745
 1793TIP3   OH226793   5.948   3.075   6.110 -0.2642 -0.1574 -0.1680
 1793TIP3    H126794   6.032   3.075   6.065 -0.3576  1.4747 -0.4024
 1793TIP3    H226795   5.965   3.031   6.193  0.2615 -1.8498 -1.1693
 1794TIP3   OH226796   6.528   1.102   4.331 -0.2682  0.5809 -0.5995
 1794TIP3    H126797   6.589   1.085   4.259  2.0771  2.7695  0.7837
 1794TIP3    H226798   6.564   1.053   4.405 -2.7484 -1.7760 -0.8707
 1795TIP3   OH226799   1.731   5.832   5.010  0.1768  0.2500 -0.6739
 1795TIP3    H126800   1.732   5.928   5.014  0.8058  0.2048  0.5227
 1795TIP3    H226801   1.795   5.810   4.943  0.1945  0.6530 -0.7931
 1796TIP3   OH226802   2.310   4.193   1.930 -0.1521  0.0661  0.1753
 1796TIP3    H126803   2.361   4.263   1.888  2.2889  0.1633  3.1587
 1796TIP3    H226804   2.230   4.237   1.960 -0.5130  0.6415 -1.5266
 1797TIP3   OH226805   3.096   1.708  14.312  0.5716 -0.0874  0.6598
 1797TIP3    H126806   3.150   1.632  14.336  1.2897  0.8739  2.1425
 1797TIP3    H226807   3.135   1.739  14.230  2.1877  0.4821  1.6168
 1798TIP3   OH226808   1.996   4.807   4.069 -0.1852 -0.3161 -0.1870
 1798TIP3    H126809   1.914   4.854   4.079 -0.0196  0.1320 -0.9421
 1798TIP3    H226810   2.045   4.857   4.004  0.6723 -0.5954  0.2356
 1799TIP3   OH226811   3.073   1.649   1.420  0.2672  0.2267 -0.0596
 1799TIP3    H126812   3.064   1.743   1.437  0.0045  0.1328  0.3103
 1799TIP3    H226813   3.066   1.608   1.506 -2.7691 -0.3939 -0.5431
 1800TIP3   OH226814   3.541   3.430  15.285 -0.2461  0.1218  0.1901
 1800TIP3    H126815   3.581   3.371  15.349 -0.4683 -0.1611  0.0679
 1800TIP3    H226816   3.505   3.501  15.338  2.2077  1.4580  0.1645
 1801TIP3   OH226817   1.513   1.838   5.242  0.1068 -0.3679 -0.1800
 1801TIP3    H126818   1.552   1.750   5.243  0.1974 -0.3327 -0.6292
 1801TIP3    H226819   1.533   1.873   5.328 -2.2785 -1.8088  1.0230
 1802TIP3   OH226820   4.061   5.851  15.614  0.1845 -0.1490 -0.3912
 1802TIP3    H126821   4.009   5.773  15.635 -0.1953  0.4901  1.0907
 1802TIP3    H226822   4.108   5.872  15.694  1.8903 -0.0414 -1.3854
 1803TIP3   OH226823   3.216   0.083  14.307 -0.5963 -0.2406 -0.3423
 1803TIP3    H126824   3.147   0.143  14.335  0.3406  0.5211  0.3911
 1803TIP3    H226825   3.291   0.104  14.364 -0.0017 -1.5687 -0.5979
 1804TIP3   OH226826   3.784   2.163  13.165  0.0961 -0.2870 -0.0145
 1804TIP3    H126827   3.737   2.197  13.089  0.4617  0.5346  0.1194
 1804TIP3    H226828   3.860   2.117  13.127  0.3096  0.1722 -0.1484
 1805TIP3   OH226829   4.543   4.135   3.669  0.6977  0.0057 -0.2464
 1805TIP3    H126830   4.636   4.142   3.688  0.9217  0.8571 -1.5493
 1805TIP3    H226831   4.500   4.174   3.746  1.3024 -2.2794  1.3080
 1806TIP3   OH226832   6.340   0.629  13.987 -0.1681  0.8820  0.6782
 1806TIP3    H126833   6.344   0.658  13.896  1.3568  1.0027  0.7594
 1806TIP3    H226834   6.366   0.706  14.038  1.0368  0.2303  1.0716
 1807TIP3   OH226835   4.293   3.123  12.305  0.6993  0.1933  0.2637
 1807TIP3    H126836   4.202   3.144  12.284 -0.1666 -2.4697  1.1426
 1807TIP3    H226837   4.289   3.082  12.392  2.9394  1.5166  1.0341
 1808TIP3   OH226838   0.993   5.546   4.633 -0.3397 -0.4231 -0.1106
 1808TIP3    H126839   1.017   5.606   4.562  0.2647 -0.9089 -0.3255
 1808TIP3    H226840   0.998   5.459   4.593 -2.0240 -0.5729 -0.0225
 1809TIP3   OH226841   4.614   1.980  16.239  0.2652  0.1620 -0.9607
 1809TIP3    H126842   4.568   1.897  16.249  2.1886 -1.0840 -2.2186
 1809TIP3    H226843   4.658   1.993  16.323  1.1843 -0.8641 -1.2740
 1810TIP3   OH226844   0.903   6.483   5.899 -0.4434  0.1260  0.2765
 1810TIP3    H126845   0.864   6.562   5.937 -1.4043  0.3179 -1.0591
 1810TIP3    H226846   0.857   6.411   5.940 -0.5759  0.3015  0.4388
 1811TIP3   OH226847   0.575   1.076   0.621  0.2888 -0.4394  0.4397
 1811TIP3    H126848   0.625   1.032   0.689  0.5802 -0.4192  0.2415
 1811TIP3    H226849   0.544   1.157   0.662 -0.1698 -0.7828  0.7744
 1812TIP3   OH226850   6.564   5.122   4.205 -0.1553  0.1655  0.0807
 1812TIP3    H126851   6.509   5.182   4.154 -0.3005  0.2556  0.3411
 1812TIP3    H226852   6.603   5.064   4.140 -1.3235 -0.5277 -0.0160
 1813TIP3   OH226853   5.004   0.200   5.033  0.0516  0.8359 -0.4806
 1813TIP3    H126854   4.982   0.112   5.003 -0.0505  0.5295  0.4875
 1813TIP3    H226855   4.980   0.257   4.960  1.0256 -0.0253 -1.4960
 1814TIP3   OH226856   4.238   5.447   0.095 -0.5551  0.5979  0.4638
 1814TIP3    H126857   4.264   5.511   0.161 -2.5835  0.9060  0.9991
 1814TIP3    H226858   4.213   5.370   0.145 -0.5647  0.2863 -0.0214
 1815TIP3   OH226859   2.325   2.969   4.531  0.3519  0.2672  0.0369
 1815TIP3    H126860   2.410   2.950   4.572  0.4506 -1.1797 -0.7792
 1815TIP3    H226861   2.324   3.064   4.521  1.3298  0.4191  1.2321
 1816TIP3   OH226862   6.353   3.800   2.071 -0.1578 -0.5347  0.4925
 1816TIP3    H126863   6.301   3.840   2.002  0.0090 -0.5040  0.3828
 1816TIP3    H226864   6.397   3.727   2.027 -0.0201 -0.4901  0.5568
 1817TIP3   OH226865   1.825   4.869  11.418 -0.5762 -0.0295  0.0898
 1817TIP3    H126866   1.806   4.820  11.337 -1.4126  0.7725 -0.1985
 1817TIP3    H226867   1.792   4.957  11.402  1.6234  0.8852  0.3127
 1818TIP3   OH226868   3.757   5.874   3.171 -0.6952  0.3216 -0.3209
 1818TIP3    H126869   3.674   5.900   3.211 -1.4842  0.8439 -2.2335
 1818TIP3    H226870   3.733   5.844   3.083  0.9614 -1.0007 -0.3530
 1819TIP3   OH226871   6.192   2.168   5.620  0.4320 -0.9104  0.4679
 1819TIP3    H126872   6.105   2.145   5.654 -0.0524 -0.2284 -0.2802
 1819TIP3    H226873   6.201   2.115   5.541  0.4482 -0.5347  0.2198
 1820TIP3   OH226874   0.527   2.461   2.163 -0.6869 -0.2635 -0.3068
 1820TIP3    H126875   0.476   2.494   2.237  1.0077  2.5792 -0.3522
 1820TIP3    H226876   0.492   2.508   2.087 -1.9486 -2.6586 -1.2678
 1821TIP3   OH226877   0.539   4.063   1.694  0.2143 -0.1699  1.0188
 1821TIP3    H126878   0.490   3.990   1.656 -0.9819  0.6934  0.8622
 1821TIP3    H226879   0.628   4.052   1.660 -0.5855  0.0086 -1.2348
 1822TIP3   OH226880   4.398   2.399   3.565  0.4914 -0.0193 -1.0799
 1822TIP3    H126881   4.470   2.366   3.619 -1.0248 -1.1762  0.3011
 1822TIP3    H226882   4.332   2.329   3.568 -0.7796  1.1127 -2.1294
 1823TIP3   OH226883   0.407   2.935   0.023  0.5615 -0.2609  0.2559
 1823TIP3    H126884   0.491   2.981   0.027  1.0566 -1.0420 -0.7760
 1823TIP3    H226885   0.341   3.005   0.026  1.2351  0.3310  1.4560
 1824TIP3   OH226886   4.500   0.263  13.559  0.2793  0.6069 -0.0463
 1824TIP3    H126887   4.418   0.311  13.546  0.4812  1.5082  1.8275
 1824TIP3    H226888   4.564   0.307  13.503 -0.5780 -0.3356 -1.8134
 1825TIP3   OH226889   1.886   1.191  11.424  0.1830 -0.3373  0.4434
 1825TIP3    H126890   1.816   1.230  11.476  0.4937 -0.6802  1.1252
 1825TIP3    H226891   1.962   1.246  11.440  0.3981 -0.7104  0.7192
 1826TIP3   OH226892   3.554   3.438   5.141 -0.3806 -0.7284  0.0293
 1826TIP3    H126893   3.548   3.345   5.164 -0.4566 -0.7588 -0.1125
 1826TIP3    H226894   3.609   3.439   5.063 -0.2669 -0.6415  0.1100
 1827TIP3   OH226895   6.035   6.164   4.708 -0.3888  0.0581 -0.3359
 1827TIP3    H126896   6.003   6.141   4.621 -0.1978 -1.4146 -0.0347
 1827TIP3    H226897   6.070   6.082   4.743 -2.7666  0.0374  2.1333
 1828TIP3   OH226898   4.514   2.595  16.463 -0.0797  0.4391  0.4068
 1828TIP3    H126899   4.604   2.583  16.492 -0.3447  1.1638  1.5491
 1828TIP3    H226900   4.514   2.566  16.372  1.8863  2.7620 -0.3718
 1829TIP3   OH226901   4.149   2.645   3.375  1.1701  0.1523  0.3913
 1829TIP3    H126902   4.131   2.553   3.354  0.2047  1.0903 -3.3276
 1829TIP3    H226903   4.074   2.673   3.426  2.1113 -1.4222  2.7569
 1830TIP3   OH226904   0.314   3.053   0.447  0.1078  0.2376 -0.1439
 1830TIP3    H126905   0.282   2.992   0.380  1.5328  1.4875 -2.0495
 1830TIP3    H226906   0.351   2.997   0.515  0.4495 -1.0624 -1.3707
 1831TIP3   OH226907   4.859   6.748  14.274 -0.1268 -0.0054 -0.1098
 1831TIP3    H126908   4.825   6.837  14.284  0.2760  0.2618 -1.0829
 1831TIP3    H226909   4.860   6.733  14.179  1.2745 -0.4717 -0.0357
 1832TIP3   OH226910   6.637   1.271   2.944  0.0385 -0.0557 -0.2404
 1832TIP3    H126911   6.732   1.259   2.951  0.1167  0.9859  0.5524
 1832TIP3    H226912   6.614   1.227   2.862  1.3787  0.6637 -1.0296
 1833TIP3   OH226913   6.679   4.796   5.412  0.3893 -0.0599 -0.7057
 1833TIP3    H126914   6.713   4.740   5.342  2.1611 -0.8978  0.7955
 1833TIP3    H226915   6.752   4.856   5.432  0.0658 -0.1244  0.7241
 1834TIP3   OH226916   4.755   0.965   3.946 -0.2507  0.1177 -0.0313
 1834TIP3    H126917   4.740   0.998   4.034  1.3180 -0.1431  0.3480
 1834TIP3    H226918   4.707   0.882   3.943 -0.0105 -0.0508  0.6912
 1835TIP3   OH226919   4.287   1.658  14.446 -0.7449 -0.5657  0.5369
 1835TIP3    H126920   4.321   1.747  14.441 -1.1355 -0.4954 -1.0343
 1835TIP3    H226921   4.363   1.602  14.428 -0.5631 -0.5403  1.2265
 1836TIP3   OH226922   4.254   5.250  15.222  0.1422 -0.0236 -0.6222
 1836TIP3    H126923   4.301   5.180  15.176 -0.2770 -0.0558 -1.0067
 1836TIP3    H226924   4.209   5.298  15.152  1.9451  1.7982 -0.5803
 1837TIP3   OH226925   3.778   0.170  14.584 -0.5607  0.2709 -0.5161
 1837TIP3    H126926   3.729   0.091  14.605 -0.6982  0.1224 -1.3586
 1837TIP3    H226927   3.789   0.167  14.489 -0.3926  1.1635 -0.5373
 1838TIP3   OH226928   2.401   0.331  17.151 -0.0150  0.0406  0.1079
 1838TIP3    H126929   2.370   0.284  17.228 -1.5528 -0.1727 -0.6312
 1838TIP3    H226930   2.367   0.420  17.161 -0.5494 -0.0907 -0.5169
 1839TIP3   OH226931   3.262   3.206  14.946 -0.0456 -0.6170  0.0807
 1839TIP3    H126932   3.247   3.283  14.891 -0.5311 -1.9379 -1.6718
 1839TIP3    H226933   3.343   3.227  14.993  0.0261  0.8122 -0.6283
 1840TIP3   OH226934   2.940   4.399  13.233 -0.4009  0.3376  0.7480
 1840TIP3    H126935   2.848   4.370  13.233 -0.3608  0.1904 -0.5686
 1840TIP3    H226936   2.935   4.492  13.254 -0.8495  0.3285  0.7006
 1841TIP3   OH226937   5.821   4.988   0.131  0.2618  0.2525  0.4744
 1841TIP3    H126938   5.881   5.010   0.203 -0.6412  1.1775  0.9506
 1841TIP3    H226939   5.749   5.050   0.140 -0.4932 -0.4844 -0.4485
 1842TIP3   OH226940   3.432   3.626  15.818 -0.3245 -0.3260  0.0065
 1842TIP3    H126941   3.431   3.715  15.784  1.4703 -0.4189 -0.3729
 1842TIP3    H226942   3.357   3.621  15.877 -2.1314  0.5478 -2.1533
 1843TIP3   OH226943   4.737   5.787   4.862  0.2079 -0.3375 -0.0399
 1843TIP3    H126944   4.771   5.869   4.896 -0.6174 -0.4136  1.0031
 1843TIP3    H226945   4.671   5.760   4.926 -1.2458 -0.5751 -1.5966
 1844TIP3   OH226946   3.869   2.615   1.755  0.1461  0.1170  0.6788
 1844TIP3    H126947   3.924   2.663   1.817  0.6817  0.2572  0.0871
 1844TIP3    H226948   3.910   2.628   1.670 -1.1835  0.8214  0.1196
 1845TIP3   OH226949   5.468   1.489   4.934 -0.1528 -0.5029  0.3157
 1845TIP3    H126950   5.527   1.552   4.893  0.8527 -0.4271  1.8633
 1845TIP3    H226951   5.463   1.417   4.871  0.2073  0.2470 -0.5925
 1846TIP3   OH226952   2.247   0.820  12.380  0.0579 -0.2051  0.3395
 1846TIP3    H126953   2.338   0.792  12.382  0.0627 -0.2840 -0.8202
 1846TIP3    H226954   2.226   0.840  12.472  1.0296 -0.8419  0.7048
 1847TIP3   OH226955   5.603   6.349   0.766  0.2811 -0.3534  0.4767
 1847TIP3    H126956   5.543   6.422   0.780  0.8082  0.0808  0.4684
 1847TIP3    H226957   5.653   6.374   0.689  1.7547  0.1286  1.5738
 1848TIP3   OH226958   4.865   3.628  14.686 -0.1382  0.3597  0.5997
 1848TIP3    H126959   4.810   3.588  14.619  0.3047  2.9850 -1.4332
 1848TIP3    H226960   4.949   3.583  14.678  0.8270  2.5542 -2.6828
 1849TIP3   OH226961   0.305   3.149  14.655 -0.0837  0.4890  0.3300
 1849TIP3    H126962   0.218   3.108  14.655 -0.0090  0.2831 -1.3058
 1849TIP3    H226963   0.323   3.168  14.747 -2.2797  1.4085  0.5864
 1850TIP3   OH226964   1.731   5.897  12.866 -0.7861 -0.2287  0.2804
 1850TIP3    H126965   1.646   5.901  12.823  0.0437 -0.4040 -1.3833
 1850TIP3    H226966   1.767   5.811  12.842  0.6094  0.5495 -0.4821
 1851TIP3   OH226967   4.564   4.243   0.311  0.3048  0.4557  0.0661
 1851TIP3    H126968   4.621   4.279   0.379  0.7468 -1.9722  1.0107
 1851TIP3    H226969   4.526   4.165   0.349 -1.7953  0.6854 -1.4452
 1852TIP3   OH226970   2.962   1.313   5.756  0.5747 -0.1294 -0.5092
 1852TIP3    H126971   3.035   1.373   5.773  1.4714 -1.1596 -0.6987
 1852TIP3    H226972   2.884   1.364   5.777  1.4192  0.4028  1.4510
 1853TIP3   OH226973   0.428   1.534  16.826  1.0551  0.1040  0.4231
 1853TIP3    H126974   0.433   1.628  16.843 -0.8777  0.3034  0.0129
 1853TIP3    H226975   0.386   1.527  16.740 -0.9178 -1.1479  1.4422
 1854TIP3   OH226976   2.610   3.262  16.290  0.0058  0.3540 -0.1688
 1854TIP3    H126977   2.679   3.214  16.244  2.0067  1.6488  1.3912
 1854TIP3    H226978   2.546   3.196  16.313  0.7856 -0.9037 -1.5105
 1855TIP3   OH226979   6.519   6.430  15.005  0.5927 -0.0958 -0.4305
 1855TIP3    H126980   6.597   6.413  15.059  0.8288 -0.9464 -1.0343
 1855TIP3    H226981   6.446   6.423  15.066  1.1158  2.8594  0.6076
 1856TIP3   OH226982   3.131   5.767  11.285  0.2321  0.0849  0.7064
 1856TIP3    H126983   3.188   5.770  11.208  2.6246 -2.2304  2.2724
 1856TIP3    H226984   3.070   5.696  11.267  1.0303 -0.7042  1.0679
 1857TIP3   OH226985   4.950   6.460  17.117 -1.0111  0.1005  0.2078
 1857TIP3    H126986   4.914   6.542  17.150 -0.0030  0.2505  0.9672
 1857TIP3    H226987   5.019   6.436  17.180 -2.1799 -2.0236  0.7453
 1858TIP3   OH226988   2.306   1.539   2.748 -0.6109  0.1234  0.1718
 1858TIP3    H126989   2.377   1.595   2.779 -1.0451 -0.1527  1.7329
 1858TIP3    H226990   2.302   1.467   2.811 -2.2961  0.1574  0.1423
 1859TIP3   OH226991   1.033   2.559   0.246 -0.0611  0.0230 -0.2313
 1859TIP3    H126992   1.056   2.470   0.218 -0.7416 -0.4578  0.6940
 1859TIP3    H226993   1.104   2.614   0.213  0.1830 -0.8127 -1.1236
 1860TIP3   OH226994   3.015   3.311   1.052 -0.0231 -0.1714  0.3537
 1860TIP3    H126995   2.948   3.351   1.107 -1.1954  0.5295 -1.5180
 1860TIP3    H226996   2.992   3.338   0.963  0.6772 -2.8889 -0.7035
 1861TIP3   OH226997   6.530   4.622  11.257  0.3606 -0.1942 -0.4546
 1861TIP3    H126998   6.476   4.545  11.237  2.0411 -1.2289 -1.1367
 1861TIP3    H226999   6.470   4.696  11.246 -0.9473 -1.3062 -1.1093
 1862TIP3   OH227000   0.266   2.125  10.668  0.0637  0.1271 -0.6626
 1862TIP3    H127001   0.218   2.054  10.625  0.5050 -0.2409 -0.5456
 1862TIP3    H227002   0.284   2.188  10.598 -0.3628  0.1422 -0.7581
 1863TIP3   OH227003   1.244   2.557  12.911 -0.1758 -0.1518  0.6017
 1863TIP3    H127004   1.264   2.650  12.912 -0.4087 -0.1024  0.6412
 1863TIP3    H227005   1.149   2.552  12.902 -0.0704 -0.3949 -0.4915
 1864TIP3   OH227006   3.264   5.946   5.441  0.1417  0.3238 -0.0503
 1864TIP3    H127007   3.334   5.881   5.450  1.2708  1.0613 -2.8604
 1864TIP3    H227008   3.185   5.899   5.466  0.7520 -2.6238 -3.1738
 1865TIP3   OH227009   3.013   0.304   5.251 -0.0534  0.1678  0.5328
 1865TIP3    H127010   2.919   0.317   5.240  0.1923  2.0989  0.5895
 1865TIP3    H227011   3.050   0.323   5.165  0.2079 -1.5620  0.2432
 1866TIP3   OH227012   1.953   0.269  15.720 -0.1774 -0.2484  0.2768
 1866TIP3    H127013   1.960   0.293  15.627  1.4678 -0.4308  0.3527
 1866TIP3    H227014   2.043   0.260  15.750 -0.7081 -1.2440  1.6342
 1867TIP3   OH227015   2.874   1.040   0.110 -0.4411  0.5527  0.0348
 1867TIP3    H127016   2.865   0.999   0.024  1.2601 -2.1971  1.1046
 1867TIP3    H227017   2.954   1.092   0.102  1.0117 -1.5181  0.5822
 1868TIP3   OH227018   5.174   1.582  14.880  0.1058 -0.2737  0.6664
 1868TIP3    H127019   5.145   1.571  14.971  1.2575 -2.4736  0.8178
 1868TIP3    H227020   5.111   1.531  14.829  1.2334 -1.6494  0.5881
 1869TIP3   OH227021   1.410   3.537   4.673 -0.2081  0.3449 -0.0215
 1869TIP3    H127022   1.414   3.451   4.715  0.3807  0.5501  0.3415
 1869TIP3    H227023   1.479   3.535   4.607 -0.1895  0.5422 -0.0087
 1870TIP3   OH227024   0.526   1.971   1.388 -0.0061 -0.2331  0.4761
 1870TIP3    H127025   0.449   1.933   1.344  1.6415 -0.5891 -2.2068
 1870TIP3    H227026   0.566   1.896   1.433 -1.5205  0.0681  2.3859
 1871TIP3   OH227027   0.031   5.220   1.865 -0.1544 -0.2184 -0.0174
 1871TIP3    H127028  -0.036   5.153   1.856  0.7684 -1.1680  0.0625
 1871TIP3    H227029  -0.003   5.294   1.815 -1.4438 -0.5299  0.3701
 1872TIP3   OH227030   3.457   6.527   4.784  0.2967  0.6727 -0.7334
 1872TIP3    H127031   3.408   6.450   4.812  0.2690  0.8621 -0.2524
 1872TIP3    H227032   3.391   6.594   4.769  0.3953  0.8866 -0.2211
 1873TIP3   OH227033   0.574   1.746   5.313 -0.1900  0.1584 -0.3293
 1873TIP3    H127034   0.479   1.734   5.315 -0.1115 -0.3252  1.1222
 1873TIP3    H227035   0.604   1.710   5.396  1.4816 -1.4701 -1.5944
 1874TIP3   OH227036   3.144   0.669   4.803  0.8334 -0.5179  0.4805
 1874TIP3    H127037   3.105   0.601   4.749  0.2034  0.8445 -0.8159
 1874TIP3    H227038   3.089   0.673   4.881 -0.7160  0.3075 -0.6296
 1875TIP3   OH227039   4.708   2.281  14.223  0.1795 -0.7769 -0.2768
 1875TIP3    H127040   4.624   2.236  14.215 -0.5831  0.7055 -0.7975
 1875TIP3    H227041   4.766   2.234  14.163  0.1195 -2.6641  1.0930
 1876TIP3   OH227042   3.613   6.022  13.046  0.3457  0.4370 -0.2460
 1876TIP3    H127043   3.571   5.981  12.970 -0.5538  1.0536 -0.0988
 1876TIP3    H227044   3.551   6.008  13.118  0.0495  1.9539 -0.1774
 1877TIP3   OH227045   5.658   4.642   2.547  0.2185  0.4716  0.1990
 1877TIP3    H127046   5.588   4.636   2.482 -0.2530 -1.1705  0.8407
 1877TIP3    H227047   5.628   4.588   2.620  1.7110  0.5563  0.8865
 1878TIP3   OH227048   1.302   5.196   0.470 -0.3838  1.0593 -0.7960
 1878TIP3    H127049   1.382   5.228   0.427 -0.6895  2.0192 -0.6595
 1878TIP3    H227050   1.248   5.275   0.483 -1.0755  0.5132 -0.3016
 1879TIP3   OH227051   3.978   3.114  13.925 -0.1373 -0.1551 -0.2290
 1879TIP3    H127052   4.055   3.120  13.869  1.0768  1.5787  1.5526
 1879TIP3    H227053   4.012   3.124  14.014 -2.2478 -0.9096  0.7010
 1880TIP3   OH227054   5.636   2.121   4.563 -0.2631 -0.3443  0.2283
 1880TIP3    H127055   5.671   2.167   4.639 -0.4031  0.5173 -0.2136
 1880TIP3    H227056   5.543   2.144   4.562 -0.1562  0.0803 -0.5015
 1881TIP3   OH227057   4.410   5.536   1.027 -0.6104 -0.1803 -0.1143
 1881TIP3    H127058   4.409   5.450   0.985  0.0035 -0.8582  1.2500
 1881TIP3    H227059   4.344   5.529   1.097 -0.2043  0.2939  0.3175
 1882TIP3   OH227060   6.506   1.202  11.225  0.1124  0.2832 -0.2796
 1882TIP3    H127061   6.599   1.195  11.244  0.3253 -0.9365 -1.6731
 1882TIP3    H227062   6.480   1.113  11.200 -1.2735  0.7525 -0.5482
 1883TIP3   OH227063   1.129   1.024  11.326  0.6050 -0.2154  0.0305
 1883TIP3    H127064   1.109   1.116  11.344  1.4603 -0.0231  0.0589
 1883TIP3    H227065   1.069   0.998  11.257 -0.9023 -0.1680  1.2993
 1884TIP3   OH227066   1.718   3.986   2.992 -0.4107 -0.0059 -0.3690
 1884TIP3    H127067   1.665   4.056   3.030  1.8133  0.8835  1.1742
 1884TIP3    H227068   1.771   3.953   3.064  0.5698 -1.4174 -1.6923
 1885TIP3   OH227069   4.453   3.372  16.768 -0.2415 -0.4815 -0.0573
 1885TIP3    H127070   4.485   3.301  16.713  1.0161 -1.3031  1.6928
 1885TIP3    H227071   4.483   3.452  16.724  1.5131 -1.1509 -0.0965
 1886TIP3   OH227072   4.982   6.630  15.569  0.5391 -0.9148 -0.2751
 1886TIP3    H127073   5.014   6.697  15.629  1.3265 -0.0064 -1.6783
 1886TIP3    H227074   4.916   6.676  15.516  0.9058 -1.2983 -1.0741
 1887TIP3   OH227075   5.412   4.628  12.631 -0.3538  0.3455  0.5955
 1887TIP3    H127076   5.346   4.574  12.586  0.9218 -0.9620  0.2267
 1887TIP3    H227077   5.455   4.676  12.560  0.8763 -0.8383  0.5164
 1888TIP3   OH227078   5.596   5.091  12.466  0.5399  0.6129 -0.0339
 1888TIP3    H127079   5.603   4.997  12.450 -0.4252  0.4477  0.4778
 1888TIP3    H227080   5.503   5.111  12.458  0.7054  1.4796  0.0920
 1889TIP3   OH227081   2.330   4.786  15.519 -0.2856 -0.3308  0.1972
 1889TIP3    H127082   2.387   4.862  15.504 -0.0375 -0.3009  1.2169
 1889TIP3    H227083   2.301   4.760  15.432  0.1245  0.5588 -0.2149
 1890TIP3   OH227084   6.500   1.974   2.675 -0.0449  0.3352  0.4832
 1890TIP3    H127085   6.512   1.880   2.685 -1.9007 -0.3168 -2.7782
 1890TIP3    H227086   6.589   2.010   2.677  0.8339 -1.7160 -0.3178
 1891TIP3   OH227087   5.269   1.962  16.358 -0.3415 -0.0809  0.2185
 1891TIP3    H127088   5.278   1.867  16.369 -1.5865 -0.0888  1.1319
 1891TIP3    H227089   5.309   1.979  16.272  1.2867 -1.2054  0.7288
 1892TIP3   OH227090   2.485   3.353   0.217 -0.7129  0.3412 -0.1778
 1892TIP3    H127091   2.539   3.371   0.140  0.6278  0.1325  0.7005
 1892TIP3    H227092   2.446   3.267   0.200  0.6868 -0.3387 -0.0254
 1893TIP3   OH227093   2.158   4.689   5.364  0.2268 -0.1828  0.0710
 1893TIP3    H127094   2.124   4.757   5.306  1.2568 -0.4262 -0.8384
 1893TIP3    H227095   2.196   4.624   5.305  0.1227 -1.0679  0.9740
 1894TIP3   OH227096   4.854   1.490   2.419  0.7786 -0.3492 -0.2494
 1894TIP3    H127097   4.841   1.565   2.361  1.9632  1.3686  1.6312
 1894TIP3    H227098   4.766   1.465   2.446  0.4585  1.7091  0.7120
 1895TIP3   OH227099   2.852   0.937  15.182 -0.7154  0.6095 -0.0633
 1895TIP3    H127100   2.810   0.853  15.201 -0.1716  0.9497  2.9628
 1895TIP3    H227101   2.927   0.914  15.126 -1.7997 -0.6350 -1.0276
 1896TIP3   OH227102   3.718   3.103  13.150 -0.2852 -0.2641 -0.3825
 1896TIP3    H127103   3.775   3.052  13.092 -1.4630 -0.3785 -1.4567
 1896TIP3    H227104   3.734   3.194  13.125 -0.7203 -0.3076 -0.8300
 1897TIP3   OH227105   2.610   0.644  16.219  0.0250  0.2478  0.4714
 1897TIP3    H127106   2.600   0.643  16.123 -0.2458  1.8491  0.4651
 1897TIP3    H227107   2.567   0.564  16.248  0.1482 -0.2765 -0.7557
 1898TIP3   OH227108   5.981   5.100   4.740  0.1491 -0.2633 -0.1489
 1898TIP3    H127109   5.940   5.182   4.713  0.5109  0.2003  0.6874
 1898TIP3    H227110   6.002   5.055   4.658  2.0565  1.5150 -0.6790
 1899TIP3   OH227111   4.955   4.092  13.906 -0.5084  0.5872  0.0071
 1899TIP3    H127112   5.019   4.147  13.952  1.5246 -0.8379 -1.0360
 1899TIP3    H227113   4.948   4.013  13.961  0.0516 -0.0576 -0.8398
 1900TIP3   OH227114   5.293   0.090  14.996 -0.5126 -0.8042  0.7406
 1900TIP3    H127115   5.254   0.156  14.938  0.6730  0.8710  1.8020
 1900TIP3    H227116   5.218   0.042  15.032 -1.3858 -0.1184 -0.1341
 1901TIP3   OH227117   5.577   3.716  14.655  0.4289  0.1233 -0.0710
 1901TIP3    H127118   5.623   3.777  14.597  0.9101  2.1837  2.3734
 1901TIP3    H227119   5.516   3.771  14.705  0.7573 -1.3919  2.0865
 1902TIP3   OH227120   2.292   0.901   5.596 -0.0864  0.5244  0.3015
 1902TIP3    H127121   2.256   0.840   5.661 -0.7574  2.3128  1.6723
 1902TIP3    H227122   2.387   0.891   5.603 -0.1593  0.6364  1.5209
 1903TIP3   OH227123   1.038   2.115   0.657 -0.3378 -0.3554 -0.4367
 1903TIP3    H127124   1.025   2.206   0.683 -2.6926 -1.1358  1.3616
 1903TIP3    H227125   1.000   2.109   0.569 -0.5386  0.2955 -0.3962
 1904TIP3   OH227126   5.704   0.056  13.065 -0.2778  0.8683  0.0322
 1904TIP3    H127127   5.775   0.018  13.013 -0.8155  1.1751 -0.9327
 1904TIP3    H227128   5.713   0.150  13.052  0.3065  1.0169  1.4458
 1905TIP3   OH227129   6.304   2.847   4.425  0.5912 -0.1725 -0.4797
 1905TIP3    H127130   6.263   2.835   4.510 -1.4904  0.4144 -1.3636
 1905TIP3    H227131   6.321   2.941   4.419 -1.1523  0.1045 -1.5107
 1906TIP3   OH227132   4.080   4.472  17.016  0.1402  0.2627  0.5136
 1906TIP3    H127133   4.092   4.377  17.018 -0.5695  0.2005  3.9003
 1906TIP3    H227134   4.138   4.505  17.085 -0.4030  2.2020  0.0792
 1907TIP3   OH227135   3.786   2.831   3.845 -0.2925 -0.1111 -0.0609
 1907TIP3    H127136   3.776   2.923   3.868 -0.8642  0.1507 -1.3534
 1907TIP3    H227137   3.873   2.825   3.807  0.2820 -0.3718  1.2476
 1908TIP3   OH227138   3.849   3.336  13.114  0.0890 -0.2492 -0.6450
 1908TIP3    H127139   3.807   3.404  13.167 -1.5163 -0.7052 -1.3173
 1908TIP3    H227140   3.886   3.384  13.039 -0.1801  0.0212 -0.6078
 1909TIP3   OH227141   5.165   1.545   6.342 -0.0052  0.2590  0.2369
 1909TIP3    H127142   5.125   1.461   6.320 -1.3620  0.1817  2.8806
 1909TIP3    H227143   5.238   1.523   6.399  0.6352  0.7831 -0.3698
 1910TIP3   OH227144   2.737   4.727   2.269 -0.4022 -0.5369 -0.3933
 1910TIP3    H127145   2.688   4.653   2.305 -0.8889 -0.2207 -0.4040
 1910TIP3    H227146   2.820   4.688   2.239 -0.1371 -0.8582  0.7264
 1911TIP3   OH227147   3.453   3.040   3.541 -0.2993 -0.1876 -0.6785
 1911TIP3    H127148   3.424   3.029   3.632  0.0918  0.4624 -0.4705
 1911TIP3    H227149   3.382   3.004   3.488 -0.8581  0.1130 -0.1349
 1912TIP3   OH227150   6.748   4.324  11.831  0.1837 -0.4376 -0.1591
 1912TIP3    H127151   6.763   4.408  11.788  0.9902 -1.1223 -1.2502
 1912TIP3    H227152   6.807   4.324  11.906  0.0150  0.0613 -0.0284
 1913TIP3   OH227153   2.044   0.248   3.065  0.0541  0.0163 -0.2858
 1913TIP3    H127154   2.053   0.195   3.145  1.0686  0.4832 -0.0732
 1913TIP3    H227155   1.993   0.324   3.092 -1.1708 -0.7086 -0.5262
 1914TIP3   OH227156   5.422   1.855  16.566 -0.2730 -0.0420  0.3992
 1914TIP3    H127157   5.409   1.946  16.591 -0.5811  0.1287 -0.3686
 1914TIP3    H227158   5.491   1.857  16.500 -1.9816 -0.0948 -1.4229
 1915TIP3   OH227159   1.609   1.820  12.008  0.0156 -0.1324 -0.7489
 1915TIP3    H127160   1.541   1.790  12.069  0.2495  1.3898  0.2798
 1915TIP3    H227161   1.584   1.910  11.987 -0.3295 -0.7713 -3.3097
 1916TIP3   OH227162   1.895   2.792  14.076  0.0760  0.5029 -0.6076
 1916TIP3    H127163   1.882   2.883  14.102  0.5409  0.0748  1.2175
 1916TIP3    H227164   1.809   2.763  14.045 -0.6145  0.9518  0.8362
 1917TIP3   OH227165   5.038   2.833   4.482 -0.0756 -0.4320  0.5632
 1917TIP3    H127166   4.948   2.818   4.455 -0.4863 -0.7309  2.0497
 1917TIP3    H227167   5.039   2.921   4.520  0.4772 -0.0414 -0.3371
 1918TIP3   OH227168   0.731   1.187  13.423  0.0430  1.0328  0.4891
 1918TIP3    H127169   0.666   1.221  13.484 -0.4774 -1.1652  1.1921
 1918TIP3    H227170   0.803   1.156  13.479 -0.3029 -0.7044  0.0008
 1919TIP3   OH227171   6.772   0.794   3.440 -0.1723  0.7644  0.0511
 1919TIP3    H127172   6.754   0.768   3.349  2.0163 -0.3311 -0.0895
 1919TIP3    H227173   6.823   0.874   3.432  0.3366  0.4645  0.3029
 1920TIP3   OH227174   6.049   2.295   5.986  0.5131  0.3549 -0.2882
 1920TIP3    H127175   6.016   2.344   6.062  1.2369 -0.6012  0.6634
 1920TIP3    H227176   6.100   2.224   6.024  0.0689 -0.7269 -1.6638
 1921TIP3   OH227177   4.539   3.007   5.181 -0.1549 -0.3907 -0.1926
 1921TIP3    H127178   4.459   3.008   5.129  0.3334 -0.5187 -0.9411
 1921TIP3    H227179   4.589   3.083   5.150  0.4522 -0.8709 -0.4131
 1922TIP3   OH227180   2.818   5.320  12.833  0.2246  0.1222  0.2684
 1922TIP3    H127181   2.822   5.225  12.829 -2.4136  0.0224 -0.8223
 1922TIP3    H227182   2.831   5.349  12.743  0.4662  0.7687  0.5064
 1923TIP3   OH227183   3.989   2.740  15.257 -0.6028 -0.0539  0.1543
 1923TIP3    H127184   4.025   2.811  15.309 -1.6924  0.4088  0.3022
 1923TIP3    H227185   3.894   2.753  15.261 -0.8840 -2.1332  1.0861
 1924TIP3   OH227186   3.425   5.013  11.505  0.3472 -0.0611 -0.2711
 1924TIP3    H127187   3.361   4.942  11.491  0.4158 -0.0559 -0.5942
 1924TIP3    H227188   3.419   5.030  11.599 -0.8394  0.6100 -0.4517
 1925TIP3   OH227189   3.082   0.833  12.738  0.1780 -0.3718  0.3663
 1925TIP3    H127190   3.079   0.796  12.650  1.6514  0.5908 -0.1039
 1925TIP3    H227191   3.168   0.810  12.771  1.3040  2.8994 -0.0830
 1926TIP3   OH227192   1.540   1.638   0.308  0.1165  0.3660  0.5354
 1926TIP3    H127193   1.506   1.728   0.305 -0.0651  0.5443  4.3875
 1926TIP3    H227194   1.467   1.587   0.344  0.7881 -1.0247 -0.0525
 1927TIP3   OH227195   6.314   3.258   5.148  0.2417 -0.0373  0.2084
 1927TIP3    H127196   6.262   3.301   5.216 -1.8871 -1.0260 -0.7407
 1927TIP3    H227197   6.317   3.166   5.174  1.4317 -0.0055  0.1962
 1928TIP3   OH227198   0.593   3.041  14.772  0.1883 -0.3070  0.2715
 1928TIP3    H127199   0.551   3.088  14.700  0.9139 -0.0146  0.0403
 1928TIP3    H227200   0.669   2.999  14.732  0.9342  0.3566  0.9958
 1929TIP3   OH227201   1.491   4.482  15.417  0.0251 -0.1998  0.1161
 1929TIP3    H127202   1.416   4.422  15.416  0.4803 -0.7620 -0.9146
 1929TIP3    H227203   1.493   4.521  15.330  0.0725  0.9083  0.6009
 1930TIP3   OH227204   5.400   6.494  14.565 -0.7294 -0.0572 -0.6387
 1930TIP3    H127205   5.461   6.557  14.527 -0.7256 -0.3899 -1.1819
 1930TIP3    H227206   5.354   6.543  14.634  0.2862  0.1440 -0.0930
 1931TIP3   OH227207   5.078   4.068  14.562  0.1466  0.3097  0.0242
 1931TIP3    H127208   5.084   3.981  14.602  0.3348 -0.3092 -1.3286
 1931TIP3    H227209   5.039   4.052  14.476 -0.0342  1.6021 -0.1400
 1932TIP3   OH227210   4.242   1.113   4.950  0.0392  0.5478 -0.2741
 1932TIP3    H127211   4.276   1.081   5.034  1.5787  1.3043 -0.5884
 1932TIP3    H227212   4.312   1.097   4.888 -1.1271 -0.0678 -1.4454
 1933TIP3   OH227213   5.551   6.269   5.287 -0.4677 -0.6992 -0.7671
 1933TIP3    H127214   5.492   6.344   5.280  1.6755  0.9736 -1.5093
 1933TIP3    H227215   5.574   6.265   5.380  0.6118  0.5694 -0.9526
 1934TIP3   OH227216   3.910   2.054  17.158  0.3204  0.3710  0.4077
 1934TIP3    H127217   3.929   2.075  17.249 -1.9169  0.1543  0.9490
 1934TIP3    H227218   3.927   1.960  17.151 -1.6113 -0.0615  1.1945
 1935TIP3   OH227219   4.603   1.712  12.526  0.3327  0.7391  0.2518
 1935TIP3    H127220   4.613   1.758  12.609 -0.4541 -0.0828  0.8155
 1935TIP3    H227221   4.512   1.680  12.527  0.1734  1.0867 -1.1103
 1936TIP3   OH227222   4.695   0.380  13.399  0.1891 -0.1653  0.2696
 1936TIP3    H127223   4.756   0.444  13.436  0.1497  0.4718 -0.7400
 1936TIP3    H227224   4.751   0.321  13.347 -0.0845  0.6401 -0.9586
 1937TIP3   OH227225   1.960   3.113   5.769  0.0592  0.6298 -0.4687
 1937TIP3    H127226   2.022   3.054   5.726 -1.0903 -1.2772  0.4122
 1937TIP3    H227227   1.992   3.120   5.859 -1.2311 -0.7594  0.1247
 1938TIP3   OH227228   0.421   0.370  12.234 -0.4726 -0.1166 -0.4518
 1938TIP3    H127229   0.384   0.347  12.319 -1.1798  0.8588 -0.4852
 1938TIP3    H227230   0.430   0.286  12.188 -2.5240 -0.3826 -0.3889
 1939TIP3   OH227231   0.014   2.277  16.189  0.8490 -0.1906  0.2698
 1939TIP3    H127232   0.037   2.369  16.181  0.6036 -0.1244  0.3120
 1939TIP3    H227233   0.093   2.235  16.223  2.5945 -0.8036 -4.2260
 1940TIP3   OH227234   3.776   5.690   6.395 -0.1784 -0.3771  0.1187
 1940TIP3    H127235   3.832   5.767   6.383  0.1612 -0.8246 -1.3607
 1940TIP3    H227236   3.824   5.634   6.456  0.6952 -0.4450 -0.6074
 1941TIP3   OH227237   4.063   6.227   3.879  0.0402 -0.2832 -0.2961
 1941TIP3    H127238   4.114   6.308   3.872  0.0783 -0.3969 -1.4999
 1941TIP3    H227239   4.026   6.215   3.791 -0.7797 -1.0394  0.1434
 1942TIP3   OH227240   2.356   5.688  12.791  0.1764  0.2374 -0.5156
 1942TIP3    H127241   2.440   5.663  12.830  0.5210  0.4199 -1.1315
 1942TIP3    H227242   2.308   5.606  12.782 -0.8019  0.4270  2.3136
 1943TIP3   OH227243   2.798   1.912   1.328  0.0909 -0.2753  0.4374
 1943TIP3    H127244   2.863   1.974   1.361  1.9668 -1.6820 -0.4485
 1943TIP3    H227245   2.790   1.933   1.235 -0.6671 -0.1553  0.5292
 1944TIP3   OH227246   6.294   2.085   4.124 -0.2089 -0.1906  0.4295
 1944TIP3    H127247   6.201   2.092   4.143 -0.2451 -1.1446  0.6167
 1944TIP3    H227248   6.314   2.163   4.072 -1.1136 -0.0032  0.3614
 1945TIP3   OH227249   5.530   4.287  10.611 -0.1322  0.2159  0.0530
 1945TIP3    H127250   5.558   4.375  10.637 -2.9707  2.0116 -2.6001
 1945TIP3    H227251   5.605   4.231  10.632  1.7241  3.2185  1.8697
 1946TIP3   OH227252   1.690   2.695   1.396  0.2778  0.5869 -0.0559
 1946TIP3    H127253   1.758   2.739   1.448  1.6991 -0.3448 -1.0854
 1946TIP3    H227254   1.719   2.707   1.305 -1.3432  0.8204 -0.5558
 1947TIP3   OH227255   2.099   1.944   3.073 -0.2207  0.0221  0.1017
 1947TIP3    H127256   2.060   1.973   3.155 -0.3894 -0.5380  0.2220
 1947TIP3    H227257   2.030   1.955   3.008 -0.2203  0.0815  0.1119
 1948TIP3   OH227258   5.075   1.102   0.523  0.6638 -0.6573 -0.3336
 1948TIP3    H127259   5.103   1.064   0.439  2.2162  0.2499 -0.2379
 1948TIP3    H227260   5.153   1.100   0.577  0.0553  0.2185  0.5819
 1949TIP3   OH227261   4.217   5.367   2.101  0.5766  0.0381  0.3533
 1949TIP3    H127262   4.227   5.423   2.178  0.2148  1.2802 -0.4814
 1949TIP3    H227263   4.122   5.357   2.091  0.5335  1.6623 -1.1578
 1950TIP3   OH227264   4.473   3.283  10.713  0.1420 -0.2519 -0.0413
 1950TIP3    H127265   4.409   3.241  10.770  1.1727 -0.2940  1.1110
 1950TIP3    H227266   4.548   3.301  10.770  0.1454  2.1797 -0.7316
 1951TIP3   OH227267   2.433   2.162  13.482  0.5828  0.0038 -0.4452
 1951TIP3    H127268   2.363   2.184  13.420  0.1695  0.0063  0.0229
 1951TIP3    H227269   2.472   2.082  13.446 -1.4038 -1.5315  0.7137
 1952TIP3   OH227270   5.970   0.186  13.012  0.5586 -0.5828  0.4802
 1952TIP3    H127271   5.883   0.208  12.978  1.3879  1.6925 -0.2050
 1952TIP3    H227272   5.968   0.213  13.103  1.1107  1.1067  0.0046
 1953TIP3   OH227273   0.443   3.054  12.636 -0.0816  0.0865  0.1944
 1953TIP3    H127274   0.457   3.007  12.719 -0.7602 -0.4172  0.0253
 1953TIP3    H227275   0.405   2.988  12.578  2.8774 -0.3362 -1.3677
 1954TIP3   OH227276   3.691   4.772   5.702 -0.6553  0.4825 -0.6290
 1954TIP3    H127277   3.690   4.688   5.748  0.4236  0.6191 -0.3435
 1954TIP3    H227278   3.662   4.836   5.767 -0.6345  0.4534 -0.5904
 1955TIP3   OH227279   1.713   6.329   3.129 -0.0786 -0.2557  0.5160
 1955TIP3    H127280   1.793   6.381   3.126 -0.6599  0.6145 -0.0109
 1955TIP3    H227281   1.728   6.257   3.068  0.9148 -0.9997  1.6089
 1956TIP3   OH227282   1.725   4.774   5.562  0.1622 -0.3142  0.5387
 1956TIP3    H127283   1.789   4.790   5.631  0.2940  1.4715  0.0125
 1956TIP3    H227284   1.646   4.819   5.591 -0.1411 -0.5573  0.0874
 1957TIP3   OH227285   6.631   0.712   1.400  0.3069  0.5735  0.2160
 1957TIP3    H127286   6.582   0.646   1.351 -0.2899  0.7649  0.5560
 1957TIP3    H227287   6.719   0.675   1.407  0.3297  0.4291 -0.7734
 1958TIP3   OH227288   3.175   1.833  13.161  0.4423  0.8804  0.7415
 1958TIP3    H127289   3.110   1.879  13.216  1.0625  2.5389  0.1263
 1958TIP3    H227290   3.191   1.751  13.207 -0.6475  1.3079  1.9340
 1959TIP3   OH227291   3.471   5.472  16.853 -0.1798 -0.0869 -0.2833
 1959TIP3    H127292   3.402   5.453  16.789 -0.7501 -1.1905  0.6359
 1959TIP3    H227293   3.460   5.565  16.873  0.7090  0.5454 -2.5893
 1960TIP3   OH227294   6.625   1.922  15.692  0.1561 -0.0827 -0.1043
 1960TIP3    H127295   6.637   1.838  15.736 -0.9478 -0.5935 -0.7525
 1960TIP3    H227296   6.545   1.959  15.731 -0.0719  0.0787 -0.7062
 1961TIP3   OH227297   5.586   1.790  14.657  0.3928  0.0950  0.1287
 1961TIP3    H127298   5.624   1.770  14.572  0.3574 -1.6997  0.5021
 1961TIP3    H227299   5.605   1.882  14.672  0.5047  0.3798 -1.7613
 1962TIP3   OH227300   5.012   5.091   6.208 -0.1060 -0.2116 -0.0804
 1962TIP3    H127301   5.004   5.122   6.298  0.4346 -3.2382  1.0692
 1962TIP3    H227302   5.045   5.167   6.160 -0.1737  1.3895  2.3064
 1963TIP3   OH227303   6.565   4.133  17.171 -0.7679 -0.2890  0.0038
 1963TIP3    H127304   6.581   4.227  17.180 -1.6755 -0.1169 -0.0911
 1963TIP3    H227305   6.477   4.121  17.207 -1.2885 -0.8412 -1.4018
 1964TIP3   OH227306   4.288   5.498  11.642  0.4542  0.6749  0.4158
 1964TIP3    H127307   4.319   5.547  11.718  0.2848  2.1328 -0.4395
 1964TIP3    H227308   4.192   5.505  11.645  0.3817 -0.5119  0.8888
 1965TIP3   OH227309   3.917   2.140   5.733  0.5533 -0.4863 -0.3961
 1965TIP3    H127310   3.875   2.176   5.655 -0.2375 -0.5131  0.0092
 1965TIP3    H227311   3.859   2.165   5.805  1.6788  0.1872  0.2773
 1966TIP3   OH227312   6.586   3.229  15.273 -0.2374  0.0626  0.3938
 1966TIP3    H127313   6.526   3.173  15.223  0.6682  0.3343 -0.9972
 1966TIP3    H227314   6.530   3.272  15.338 -1.5872  0.4730 -1.0240
 1967TIP3   OH227315   6.057   4.643  14.913 -0.1915 -0.8862  0.1456
 1967TIP3    H127316   6.061   4.738  14.906  1.0029 -0.9395 -0.0685
 1967TIP3    H227317   6.087   4.611  14.827 -0.7282 -1.4543  0.1607
 1968TIP3   OH227318   1.618   0.925  12.984  0.3899  0.0287 -0.0021
 1968TIP3    H127319   1.595   0.937  12.892 -1.8213 -0.0296  0.4968
 1968TIP3    H227320   1.711   0.905  12.984  0.8197  1.8878 -2.0654
 1969TIP3   OH227321   5.827   5.587   2.037  0.3942  0.2141 -0.0374
 1969TIP3    H127322   5.866   5.504   2.063  0.7811 -0.1530 -1.7599
 1969TIP3    H227323   5.818   5.581   1.942 -1.0212  1.5191  0.0041
 1970TIP3   OH227324   0.407   2.787   0.689 -0.5203 -0.1579  0.4618
 1970TIP3    H127325   0.457   2.840   0.751 -0.9640 -0.6571  1.2480
 1970TIP3    H227326   0.470   2.763   0.621 -0.4198  1.7822 -0.1581
 1971TIP3   OH227327   5.190   0.659  12.956  0.5153  0.7690  0.1051
 1971TIP3    H127328   5.244   0.729  12.918  0.0458  1.5756  0.8910
 1971TIP3    H227329   5.105   0.700  12.971 -0.1901 -0.3751 -0.7131
 1972TIP3   OH227330   6.093   3.664   5.375 -0.1899 -0.3479 -0.0620
 1972TIP3    H127331   6.093   3.581   5.328 -0.5441 -0.1386 -0.4400
 1972TIP3    H227332   6.083   3.730   5.306  1.0257  0.0607  0.1461
 1973TIP3   OH227333   5.018   5.202  14.863 -0.4230  0.2463  0.0299
 1973TIP3    H127334   5.072   5.262  14.812  1.0738  1.1169  2.5642
 1973TIP3    H227335   4.950   5.258  14.901 -0.4189 -0.0586  0.4938
 1974TIP3   OH227336   0.064   2.023  14.519 -0.1423 -0.7531  0.1694
 1974TIP3    H127337   0.140   2.062  14.562 -1.4363 -0.4182  2.3038
 1974TIP3    H227338   0.004   2.097  14.506  0.3134 -0.8116 -2.5217
 1975TIP3   OH227339   4.881   5.307   0.279 -0.5557  0.2116 -0.3397
 1975TIP3    H127340   4.843   5.221   0.298 -0.2890  0.3827  1.0743
 1975TIP3    H227341   4.807   5.361   0.251 -1.1224  0.1471  0.9970
 1976TIP3   OH227342   5.336   2.090   4.775  0.5270 -0.3512 -0.0839
 1976TIP3    H127343   5.403   2.054   4.833  0.3673  1.2836  1.1496
 1976TIP3    H227344   5.323   2.022   4.709  3.6515 -0.5742 -0.5752
 1977TIP3   OH227345   5.797   3.051  13.478  0.5867  0.1677  0.5605
 1977TIP3    H127346   5.875   3.078  13.527  1.5656 -0.5837 -0.5525
 1977TIP3    H227347   5.766   2.973  13.524  0.4024  0.5528  1.0929
 1978TIP3   OH227348   2.892   1.525   6.154  0.7781  0.0989 -0.4189
 1978TIP3    H127349   2.905   1.597   6.216  1.4790 -0.1316 -0.2977
 1978TIP3    H227350   2.964   1.534   6.092 -0.0002  0.4153 -1.2894
 1979TIP3   OH227351   2.447   0.822   3.095 -0.1674 -0.1693  0.4214
 1979TIP3    H127352   2.509   0.759   3.131 -0.4060 -0.2153  0.7536
 1979TIP3    H227353   2.466   0.904   3.141  1.2701  0.4450 -1.1952
 1980TIP3   OH227354   4.443   4.291  16.477  0.4127 -0.0612 -0.0767
 1980TIP3    H127355   4.489   4.364  16.518  2.7820 -1.9222  0.6876
 1980TIP3    H227356   4.425   4.230  16.548 -2.2932  0.0826 -0.5570
 1981TIP3   OH227357   2.431   1.308   5.173  0.9982 -0.1130  0.0763
 1981TIP3    H127358   2.400   1.399   5.170  0.4040 -0.3484 -1.4715
 1981TIP3    H227359   2.434   1.287   5.266 -1.9013  0.4770  0.3368
 1982TIP3   OH227360   0.414   2.257  12.902  0.0148  0.0904 -0.2335
 1982TIP3    H127361   0.445   2.332  12.953 -0.5263  0.2677 -0.1703
 1982TIP3    H227362   0.391   2.191  12.968  1.1596 -0.4049 -0.3020
 1983TIP3   OH227363   2.583   6.708   2.320 -0.5185 -0.2300  0.5640
 1983TIP3    H127364   2.525   6.768   2.275 -0.6005 -1.1501 -0.5720
 1983TIP3    H227365   2.526   6.656   2.376 -0.2775  1.7598  2.7428
 1984TIP3   OH227366   3.747   3.596   3.256 -0.4369 -0.0858  0.1956
 1984TIP3    H127367   3.812   3.662   3.279  0.9093 -1.7608  1.2656
 1984TIP3    H227368   3.672   3.617   3.312  0.4672 -0.2527  1.4894
 1985TIP3   OH227369   3.894   1.113  14.416  0.2042 -0.0452 -0.1744
 1985TIP3    H127370   3.983   1.078  14.404  0.8822 -0.0061  3.8138
 1985TIP3    H227371   3.849   1.045  14.466 -1.9829  0.0406 -1.9741
 1986TIP3   OH227372   6.099   6.630   2.842 -0.4887  0.1593  0.4284
 1986TIP3    H127373   6.010   6.653   2.814 -0.4762 -2.3580 -1.8583
 1986TIP3    H227374   6.111   6.540   2.811  2.9621  0.5620  0.4667
 1987TIP3   OH227375   3.313   1.814   3.917  0.3364  0.1103 -0.1944
 1987TIP3    H127376   3.361   1.736   3.890  0.4816 -0.0064  0.3963
 1987TIP3    H227377   3.286   1.856   3.835  1.7833  0.3841 -0.5380
 1988TIP3   OH227378   1.958   6.777  10.784  0.3653  0.4147  0.1237
 1988TIP3    H127379   1.940   6.686  10.809 -2.4660  0.8437 -0.1563
 1988TIP3    H227380   1.902   6.829  10.841  1.1029  1.9173 -0.5041
 1989TIP3   OH227381   0.719   2.643  17.049  0.6507 -0.3722 -0.2142
 1989TIP3    H127382   0.730   2.733  17.017  0.6357 -0.2627  0.0911
 1989TIP3    H227383   0.785   2.633  17.117  1.1234 -0.8254 -0.7360
 1990TIP3   OH227384   6.119   1.513  11.747 -0.0586 -0.0504 -0.1812
 1990TIP3    H127385   6.164   1.505  11.831 -0.7081  0.9920  0.2691
 1990TIP3    H227386   6.180   1.561  11.691  1.0931 -2.2149 -0.8601
 1991TIP3   OH227387   1.300   6.082  17.175 -0.2646  0.1108 -0.0440
 1991TIP3    H127388   1.230   6.146  17.190  0.4030  0.8341  0.0081
 1991TIP3    H227389   1.265   6.000  17.210 -0.4689  0.8097  1.4484
 1992TIP3   OH227390   5.694   1.792   1.981  0.5350 -0.3990 -0.5199
 1992TIP3    H127391   5.718   1.722   2.042  1.5803  1.3030  1.0894
 1992TIP3    H227392   5.763   1.792   1.915  0.9097 -0.4506 -0.1302
 1993TIP3   OH227393   1.761   2.713   2.572  0.1233  0.3933 -0.2254
 1993TIP3    H127394   1.757   2.636   2.628 -1.4081  0.3425 -0.3993
 1993TIP3    H227395   1.737   2.786   2.629 -0.3332  0.4931 -0.5460
 1994TIP3   OH227396   4.200   3.684  11.777  0.4764 -0.5205  0.5539
 1994TIP3    H127397   4.226   3.773  11.755 -0.5081 -0.3769 -0.0642
 1994TIP3    H227398   4.208   3.635  11.695 -1.6211 -0.3655  0.2215
 1995TIP3   OH227399   2.361   0.378  14.473  0.2386 -0.1135 -0.0786
 1995TIP3    H127400   2.350   0.442  14.544  0.6342 -2.2239  1.9425
 1995TIP3    H227401   2.414   0.309  14.511  0.4731 -1.3001 -2.4800
 1996TIP3   OH227402   0.815   3.024   4.588 -0.4227 -0.3503  0.2573
 1996TIP3    H127403   0.798   2.946   4.535  0.8990  0.7553 -1.8531
 1996TIP3    H227404   0.830   2.990   4.676  0.0933 -2.4776 -0.6108
 1997TIP3   OH227405   1.383   3.108  15.045 -0.0265 -0.1742  0.3569
 1997TIP3    H127406   1.376   3.012  15.047  1.0282 -0.2524  1.1028
 1997TIP3    H227407   1.375   3.131  14.953 -0.3096 -0.9831  0.1755
 1998TIP3   OH227408   3.111   1.032  17.110  0.2360 -0.2673 -0.0976
 1998TIP3    H127409   3.129   0.940  17.090 -0.7205 -1.1613  2.8638
 1998TIP3    H227410   3.150   1.046  17.196 -0.4006  1.8685 -0.1275
 1999TIP3   OH227411   1.016   2.313  16.323  0.0265  1.0112  0.1349
 1999TIP3    H127412   1.061   2.280  16.245 -2.3157 -0.6359 -0.5852
 1999TIP3    H227413   0.948   2.371  16.288 -0.7418  0.6250  0.9663
 2000TIP3   OH227414   5.439   5.555  16.991  0.4191 -0.4411 -0.5151
 2000TIP3    H127415   5.419   5.612  16.917 -0.7654 -1.0545 -0.6725
 2000TIP3    H227416   5.354   5.524  17.022  0.8986 -0.1900  1.1122
 2001TIP3   OH227417   0.726   6.268   1.790 -0.5036 -0.0261 -0.4437
 2001TIP3    H127418   0.661   6.296   1.726 -1.0628 -0.3767 -0.0406
 2001TIP3    H227419   0.717   6.330   1.862 -1.7180 -1.1739  0.4338
 2002TIP3   OH227420   1.801   0.601   1.608  0.5532  0.2671 -0.3722
 2002TIP3    H127421   1.847   0.560   1.680  0.8697 -0.8241 -1.1788
 2002TIP3    H227422   1.821   0.694   1.615  0.9102  0.1059  0.6961
 2003TIP3   OH227423   0.272   2.872  13.309  0.1768 -0.0112 -0.5849
 2003TIP3    H127424   0.245   2.964  13.313 -0.1212 -0.1270  0.0529
 2003TIP3    H227425   0.196   2.827  13.271 -0.0598 -0.1485  0.0509
 2004TIP3   OH227426   4.674   6.147  13.729  0.2291 -0.0131  0.3508
 2004TIP3    H127427   4.593   6.164  13.778  0.4386  1.3181  0.2758
 2004TIP3    H227428   4.659   6.188  13.644  1.2642  0.9380  0.6056
 2005TIP3   OH227429   2.504   0.123  14.424  0.8339  0.0516 -0.4778
 2005TIP3    H127430   2.448   0.073  14.365  2.3610 -3.8259  1.1513
 2005TIP3    H227431   2.580   0.147  14.370  2.0565 -3.1535 -0.3071
 2006TIP3   OH227432   0.823   5.796  14.654 -0.0283 -0.0609 -0.3402
 2006TIP3    H127433   0.815   5.810  14.559 -1.1973 -0.0209 -0.2500
 2006TIP3    H227434   0.904   5.840  14.678 -0.8058  1.8121 -0.9827
 2007TIP3   OH227435   2.898   3.857   2.608 -0.2072 -0.4657 -0.0427
 2007TIP3    H127436   2.846   3.932   2.578 -0.8165 -1.0044 -0.3479
 2007TIP3    H227437   2.863   3.782   2.560 -0.3938 -1.1522  1.1360
 2008TIP3   OH227438   0.098   5.571   3.816  0.2273 -0.0584  0.2091
 2008TIP3    H127439   0.184   5.560   3.857 -0.0413  1.3821  1.2167
 2008TIP3    H227440   0.038   5.519   3.869  0.2326  0.1164  0.3867
 2009TIP3   OH227441   1.863   1.511  11.003 -0.4230  0.6690  0.3232
 2009TIP3    H127442   1.776   1.472  11.001 -0.9405  1.8652 -1.4998
 2009TIP3    H227443   1.905   1.481  10.922  0.3517  1.2391  0.5055
 2010TIP3   OH227444   1.806   2.083  16.068 -0.0401 -0.0158 -0.6126
 2010TIP3    H127445   1.732   2.101  16.010  0.2932 -0.3501 -1.1420
 2010TIP3    H227446   1.803   1.989  16.082  0.4632 -0.0735 -0.8807
 2011TIP3   OH227447   0.494   2.989   5.777  0.1091  0.5008 -0.1097
 2011TIP3    H127448   0.563   2.947   5.828 -1.9235 -4.5683 -1.1612
 2011TIP3    H227449   0.459   3.057   5.835  2.9236  0.1223  2.1399
 2012TIP3   OH227450   1.843   5.036   4.547  0.0293 -0.1502 -0.1329
 2012TIP3    H127451   1.757   4.998   4.529 -0.0105 -0.5081  0.7795
 2012TIP3    H227452   1.850   5.036   4.643  1.6401 -1.4922 -0.2280
 2013TIP3   OH227453   3.873   2.402   1.599 -0.2968 -0.1389  0.0029
 2013TIP3    H127454   3.866   2.447   1.514 -0.0305 -0.7963 -0.3747
 2013TIP3    H227455   3.839   2.465   1.662 -0.5531  0.3399 -0.6009
 2014TIP3   OH227456   3.979   3.139   6.013 -0.2777  0.6623  0.7512
 2014TIP3    H127457   3.916   3.151   6.085  0.3982 -1.8769  1.8256
 2014TIP3    H227458   4.064   3.144   6.055  0.1490  0.0533 -0.0329
 2015TIP3   OH227459   4.884   5.725  13.578  0.3708  0.9580 -0.5035
 2015TIP3    H127460   4.792   5.709  13.553  0.2260 -1.2946  1.3517
 2015TIP3    H227461   4.894   5.820  13.571 -2.1436  1.2514 -0.5918
 2016TIP3   OH227462   5.293   0.498   3.917  0.4468 -0.5416  0.1334
 2016TIP3    H127463   5.259   0.563   3.855  0.5368 -0.3674  0.2657
 2016TIP3    H227464   5.354   0.547   3.972  0.3686 -0.6969  0.3583
 2017TIP3   OH227465   6.375   0.919  14.092 -0.5967 -0.0028  0.2513
 2017TIP3    H127466   6.291   0.931  14.136 -0.5587  1.2999  0.0126
 2017TIP3    H227467   6.438   0.907  14.164 -0.8481  0.0185  0.4750
 2018TIP3   OH227468   0.708   1.771  12.168  0.2079 -0.5696 -0.4221
 2018TIP3    H127469   0.654   1.714  12.222  1.5328 -1.6435 -0.1988
 2018TIP3    H227470   0.784   1.791  12.223  2.2219 -2.7581 -2.3021
 2019TIP3   OH227471   2.822   0.984   5.061  0.0966 -0.4764  0.0969
 2019TIP3    H127472   2.887   1.046   5.094  1.0632 -2.2853  1.6898
 2019TIP3    H227473   2.738   1.025   5.080  0.7299  1.3095 -0.8300
 2020TIP3   OH227474   2.536   0.326  13.587  0.3510 -0.3971 -0.3556
 2020TIP3    H127475   2.612   0.380  13.565  0.9831 -2.0071 -2.2979
 2020TIP3    H227476   2.485   0.323  13.506  0.7857 -3.4047 -0.5822
 2021TIP3   OH227477   6.227   1.866   4.478 -0.0180  0.8417 -0.3451
 2021TIP3    H127478   6.163   1.812   4.525  1.9574 -0.1691  1.2346
 2021TIP3    H227479   6.203   1.956   4.500 -1.5582  0.5408 -0.6688
 2022TIP3   OH227480   3.010   2.308   0.589  0.2515 -0.3647  0.6833
 2022TIP3    H127481   2.936   2.369   0.594 -1.8895 -2.8067 -0.1538
 2022TIP3    H227482   3.067   2.333   0.662 -0.6214  2.5201  0.4436
 2023TIP3   OH227483   6.769   2.695   4.524 -0.2024 -0.4545 -0.1558
 2023TIP3    H127484   6.686   2.670   4.484 -2.1668  3.3717  1.2114
 2023TIP3    H227485   6.772   2.644   4.605 -1.0427 -0.9310 -0.4130
 2024TIP3   OH227486   1.846   1.854  15.695 -0.5788  0.5379  0.4712
 2024TIP3    H127487   1.810   1.813  15.774 -1.1420  0.1595  0.0249
 2024TIP3    H227488   1.807   1.804  15.622 -0.4086  1.1646 -0.0517
 2025TIP3   OH227489   3.569   3.556   5.389 -0.5525 -0.3545  0.5804
 2025TIP3    H127490   3.588   3.478   5.442 -1.0130 -1.3221 -0.6618
 2025TIP3    H227491   3.559   3.523   5.300 -2.0159  0.9601  0.2402
 2026TIP3   OH227492   3.514   1.579  15.387 -0.1001 -0.4464  0.0324
 2026TIP3    H127493   3.560   1.628  15.456 -0.7195  1.5248 -0.9251
 2026TIP3    H227494   3.584   1.551  15.328  0.1503  0.3925 -0.0883
 2027TIP3   OH227495   1.912   6.358   2.392 -0.4925  0.5513  0.2986
 2027TIP3    H127496   1.980   6.393   2.451 -1.9946  1.0993  1.7614
 2027TIP3    H227497   1.838   6.417   2.404 -1.1225  0.1735 -1.5544
 2028TIP3   OH227498   0.375   6.464   0.396  0.1429  0.2168 -0.3219
 2028TIP3    H127499   0.282   6.444   0.411  0.3743 -0.6190  0.0265
 2028TIP3    H227500   0.386   6.553   0.430 -0.6090  0.4518 -0.6738
 2029TIP3   OH227501   0.234   0.826   1.921 -0.1669 -0.1056  0.0625
 2029TIP3    H127502   0.138   0.826   1.924 -0.1988 -1.8039 -0.6617
 2029TIP3    H227503   0.261   0.817   2.012 -0.6517  2.8000  0.5467
 2030TIP3   OH227504   6.553   1.260   5.299 -0.9219  0.5845  0.6240
 2030TIP3    H127505   6.463   1.233   5.321 -1.2014  1.1838  0.2118
 2030TIP3    H227506   6.603   1.178   5.301 -1.8017  0.0002 -0.7407
 2031TIP3   OH227507   3.387   0.318  10.443  0.3835 -0.1141 -0.1773
 2031TIP3    H127508   3.477   0.287  10.453  0.4486 -0.0737 -0.6004
 2031TIP3    H227509   3.338   0.273  10.512  0.6484 -0.4644 -0.2137
 2032TIP3   OH227510   4.260   0.079  13.192  0.1216  0.2752 -0.4423
 2032TIP3    H127511   4.226   0.168  13.190  0.4742  0.3998 -1.7584
 2032TIP3    H227512   4.240   0.044  13.105 -0.3683 -1.0666  0.1896
 2033TIP3   OH227513   3.323   5.552   5.550  0.2143  0.5717  0.3824
 2033TIP3    H127514   3.301   5.607   5.475 -0.6801  0.8091  0.8121
 2033TIP3    H227515   3.385   5.604   5.601  1.2993  0.1625 -0.4950
 2034TIP3   OH227516   4.331   1.326  15.969 -0.1511  0.3118 -0.2580
 2034TIP3    H127517   4.293   1.289  15.890 -1.2089 -1.1589  0.8891
 2034TIP3    H227518   4.398   1.387  15.938 -0.3255 -0.4733 -2.2583
 2035TIP3   OH227519   3.056   0.237   2.855  0.1207 -0.6746  0.5519
 2035TIP3    H127520   3.000   0.276   2.788 -0.0569 -4.3095 -1.5577
 2035TIP3    H227521   3.122   0.304   2.872  0.1274  0.4469 -3.2467
 2036TIP3   OH227522   6.435   4.088   6.646  0.0842 -0.7758 -0.4112
 2036TIP3    H127523   6.403   4.162   6.595  1.1261 -0.0241  0.0124
 2036TIP3    H227524   6.470   4.027   6.580  2.0387  0.4840 -0.6002
 2037TIP3   OH227525   6.565   6.411   3.706 -0.4639 -0.1507  0.3673
 2037TIP3    H127526   6.609   6.332   3.737  0.4665 -0.4805 -1.7472
 2037TIP3    H227527   6.488   6.379   3.660  0.1956  0.1415 -0.9488
 2038TIP3   OH227528   2.533   1.388   5.471 -0.2856  0.3207  0.4195
 2038TIP3    H127529   2.618   1.427   5.492 -1.0731  1.5110  1.4595
 2038TIP3    H227530   2.482   1.395   5.552 -1.8708  0.9471 -0.5910
 2039TIP3   OH227531   3.984   6.303   4.913  0.8515 -0.0841  0.1218
 2039TIP3    H127532   3.978   6.249   4.834  0.7791 -0.6487  0.5159
 2039TIP3    H227533   3.905   6.356   4.911  0.8164 -0.1429 -0.1490
 2040TIP3   OH227534   6.415   1.144  14.994  0.4002 -0.3469  0.4464
 2040TIP3    H127535   6.428   1.151  14.899 -1.5667  0.6247  0.2297
 2040TIP3    H227536   6.499   1.110  15.026  2.4370  2.8049 -1.2112
 2041TIP3   OH227537   0.170   0.972   2.821 -0.2266 -0.6380 -0.0688
 2041TIP3    H127538   0.254   0.942   2.856  1.4997  2.8141 -1.0614
 2041TIP3    H227539   0.189   0.996   2.731 -2.2832  0.2289 -0.2837
 2042TIP3   OH227540   5.515   3.425  13.456  0.1472 -0.3391  0.6676
 2042TIP3    H127541   5.466   3.430  13.538 -2.1383 -0.4150 -0.6726
 2042TIP3    H227542   5.531   3.331  13.443 -3.7179 -0.7960 -1.3755
 2043TIP3   OH227543   3.318   6.136  12.003  0.0956 -0.9776 -0.0592
 2043TIP3    H127544   3.343   6.123  12.095  0.4997  0.3561  0.0265
 2043TIP3    H227545   3.394   6.180  11.964 -0.4010 -0.8071 -0.8311
 2044TIP3   OH227546   5.286   0.299   2.501  0.0989 -0.2940  0.3389
 2044TIP3    H127547   5.288   0.271   2.410  0.3581  0.4541  0.1140
 2044TIP3    H227548   5.199   0.337   2.512  0.3737  0.3874  0.1713
 2045TIP3   OH227549   0.751   5.596  13.733  0.4204  0.0187  0.3431
 2045TIP3    H127550   0.827   5.617  13.788  1.4819 -2.3950 -0.1454
 2045TIP3    H227551   0.676   5.603  13.793  1.2586  0.3386  1.3700
 2046TIP3   OH227552   2.715   1.189   1.791 -0.1320 -0.5605  0.5481
 2046TIP3    H127553   2.698   1.101   1.756 -1.2599 -0.0335 -0.2497
 2046TIP3    H227554   2.658   1.196   1.867 -0.0078 -0.5296  0.6387
 2047TIP3   OH227555   6.414   0.357  11.360 -0.4041 -0.0957  0.3844
 2047TIP3    H127556   6.403   0.371  11.454  3.7660 -1.8340  1.2434
 2047TIP3    H227557   6.472   0.429  11.332  0.6383 -1.1655 -0.2527
 2048TIP3   OH227558   0.488   0.917  13.711 -0.3315  0.1258  0.2387
 2048TIP3    H127559   0.537   0.998  13.697  0.2833 -0.3238 -0.2446
 2048TIP3    H227560   0.553   0.848  13.701 -0.9348 -0.4450  0.2469
 2049TIP3   OH227561   5.871   2.287   1.591  0.4585 -0.7539  0.0039
 2049TIP3    H127562   5.960   2.322   1.593  0.3720 -0.6188  1.9247
 2049TIP3    H227563   5.825   2.343   1.529  1.5700 -0.5236 -0.6376
 2050TIP3   OH227564   4.794   6.751  13.970  0.6184 -0.3701  0.0135
 2050TIP3    H127565   4.826   6.798  13.893  1.1999  1.3533  1.2611
 2050TIP3    H227566   4.707   6.787  13.986  0.7654 -0.2325  0.5380
 2051TIP3   OH227567   3.094   1.037   5.041 -0.1843  0.3245  0.1901
 2051TIP3    H127568   3.077   1.036   4.947 -2.6043  1.6533  0.5543
 2051TIP3    H227569   3.151   1.113   5.054 -0.1659  0.3718 -0.1510
 2052TIP3   OH227570   0.311   2.202   1.419 -0.0683  0.1321 -0.1808
 2052TIP3    H127571   0.236   2.161   1.462 -0.7341  1.5765  0.0786
 2052TIP3    H227572   0.386   2.147   1.443 -0.8749 -0.7055  0.4593
 2053TIP3   OH227573   5.201   6.024   5.774  0.2665  0.3243 -0.6170
 2053TIP3    H127574   5.283   6.071   5.789  0.8012 -0.3411 -1.3848
 2053TIP3    H227575   5.157   6.073   5.705  0.0202  0.6826 -0.2048
 2054TIP3   OH227576   4.486   6.264  16.066  0.4253 -0.3342 -0.1976
 2054TIP3    H127577   4.530   6.210  16.000 -1.1744 -1.6114 -0.2508
 2054TIP3    H227578   4.544   6.260  16.143  1.7215  0.2233 -1.1303
 2055TIP3   OH227579   4.635   3.256  11.845  0.0913  0.3421 -0.7273
 2055TIP3    H127580   4.576   3.258  11.769  0.1665 -2.2226 -0.9085
 2055TIP3    H227581   4.697   3.327  11.829 -2.1262  2.2390 -1.1829
 2056TIP3   OH227582   3.552   1.988  16.130  0.9055  0.4076 -0.3012
 2056TIP3    H127583   3.630   1.933  16.140  0.7504  0.3684  0.7569
 2056TIP3    H227584   3.540   2.028  16.217 -1.0166 -0.6138 -0.0781
 2057TIP3   OH227585   5.187   3.739   3.880  0.4002 -0.5871  0.1903
 2057TIP3    H127586   5.198   3.822   3.926 -1.3423 -0.5242  0.5400
 2057TIP3    H227587   5.270   3.694   3.891  0.8316  0.4580  1.3204
 2058TIP3   OH227588   4.080   1.515  11.275  0.5323  0.1818 -0.1407
 2058TIP3    H127589   4.085   1.551  11.186  2.4344 -3.3449 -1.5683
 2058TIP3    H227590   3.986   1.504  11.291  0.2020 -0.8090 -2.4842
 2059TIP3   OH227591   3.874   6.463  10.894 -0.3769 -0.0767 -0.2006
 2059TIP3    H127592   3.908   6.552  10.900  1.8963 -0.8011 -1.4529
 2059TIP3    H227593   3.872   6.431  10.984 -0.6644  1.0490  0.1953
 2060TIP3   OH227594   4.947   2.160  16.073  0.5730 -0.0782 -0.5829
 2060TIP3    H127595   4.912   2.249  16.073  0.2870 -0.1746  0.9177
 2060TIP3    H227596   5.017   2.163  16.138  0.6247 -0.9166 -0.6048
 2061TIP3   OH227597   1.702   2.318   0.208  0.6763  0.4128 -0.0432
 2061TIP3    H127598   1.789   2.356   0.220  1.2534 -1.0233  0.4746
 2061TIP3    H227599   1.651   2.350   0.283  1.4745 -0.7223  0.9957
 2062TIP3   OH227600   0.127   5.392  11.819  0.6104  0.6803 -0.4044
 2062TIP3    H127601   0.188   5.446  11.768  2.0743 -0.6430 -0.1112
 2062TIP3    H227602   0.162   5.303  11.811 -0.6724  0.0637  0.6951
 2063TIP3   OH227603   1.555   2.435  12.291 -0.4071 -0.4902  0.4456
 2063TIP3    H127604   1.482   2.479  12.335 -0.6506  0.6368 -1.0538
 2063TIP3    H227605   1.590   2.375  12.357 -0.0542  1.9390  2.5440
 2064TIP3   OH227606   2.166   4.496  11.559  0.1440 -0.7717 -0.6003
 2064TIP3    H127607   2.156   4.410  11.517 -0.1425 -1.1344  0.2085
 2064TIP3    H227608   2.076   4.525  11.576  0.2438 -0.3546 -0.7897
 2065TIP3   OH227609   6.047   2.072   3.068  0.0375  0.1023  0.4993
 2065TIP3    H127610   6.132   2.057   3.025  2.3501  1.7217  4.2373
 2065TIP3    H227611   6.031   1.993   3.119 -0.9565 -0.3993 -0.5877
 2066TIP3   OH227612   2.478   0.677  12.342  0.5241  0.6037 -0.1531
 2066TIP3    H127613   2.437   0.650  12.424 -0.1641  1.8440 -0.0717
 2066TIP3    H227614   2.564   0.709  12.369  0.7557 -0.0824 -0.0657
 2067TIP3   OH227615   3.977   4.282   1.797  0.4734  0.3194  0.0705
 2067TIP3    H127616   4.005   4.217   1.861  0.1527  1.2778  1.2101
 2067TIP3    H227617   3.886   4.301   1.821  0.8160  1.7922  0.2948
 2068TIP3   OH227618   1.925   6.161  13.446  0.7685  0.2528  0.3496
 2068TIP3    H127619   1.940   6.067  13.456 -1.9638 -0.0872  1.9075
 2068TIP3    H227620   1.973   6.201  13.518  2.4442  0.1397 -0.6767
 2069TIP3   OH227621   3.301   5.074  12.002 -0.1571 -0.2615 -0.6045
 2069TIP3    H127622   3.322   5.164  12.026 -2.3499  0.2441 -0.4337
 2069TIP3    H227623   3.340   5.021  12.071  0.5903  0.6055 -0.3537
 2070TIP3   OH227624   2.139   2.364  12.480 -0.3303 -0.2659  0.8056
 2070TIP3    H127625   2.154   2.292  12.419 -0.0758  1.7236 -1.5628
 2070TIP3    H227626   2.203   2.350  12.550  1.3766 -0.9999 -0.8604
 2071TIP3   OH227627   0.649   0.245  15.669 -0.5406 -0.0373 -0.5919
 2071TIP3    H127628   0.611   0.253  15.756 -0.0334 -0.1579 -0.3521
 2071TIP3    H227629   0.676   0.153  15.664 -2.5532 -0.5706 -1.7130
 2072TIP3   OH227630   6.657   1.378  16.759  0.5904 -0.6562  0.5787
 2072TIP3    H127631   6.577   1.338  16.794  0.5172 -0.3476  0.7609
 2072TIP3    H227632   6.678   1.325  16.682 -0.6713  0.2450 -0.4083
 2073TIP3   OH227633   0.461   6.378  10.389 -0.4740  0.0308  0.0041
 2073TIP3    H127634   0.428   6.433  10.459 -0.4429  0.2107 -0.1232
 2073TIP3    H227635   0.554   6.369  10.408 -0.7489 -1.1918  0.8565
 2074TIP3   OH227636   4.190   2.011  14.345  0.4189 -0.1024  0.2596
 2074TIP3    H127637   4.142   2.035  14.425  0.8769  3.3008 -0.4083
 2074TIP3    H227638   4.281   2.004  14.373  0.3044 -1.0089  0.4264
 2075TIP3   OH227639   2.593   0.082  13.697  0.0237 -0.1914 -0.0567
 2075TIP3    H127640   2.598   0.020  13.624 -2.2572  1.6350 -1.8642
 2075TIP3    H227641   2.567   0.165  13.656  0.0171  1.2237  2.6750
 2076TIP3   OH227642   5.265   4.621  14.834  0.1637  0.1598  0.1369
 2076TIP3    H127643   5.216   4.571  14.899 -0.3055 -0.6537 -0.8395
 2076TIP3    H227644   5.318   4.557  14.788 -0.7598  0.4504 -1.4127
 2077TIP3   OH227645   4.717   5.408  11.744  0.1261 -0.1653  0.1484
 2077TIP3    H127646   4.749   5.318  11.753 -0.7913 -0.4491  0.6510
 2077TIP3    H227647   4.624   5.398  11.724  0.5266  0.6271 -2.2398
 2078TIP3   OH227648   5.458   2.515   4.639 -0.0374  0.1932  1.0214
 2078TIP3    H127649   5.491   2.448   4.579  0.0234  3.2052 -2.4998
 2078TIP3    H227650   5.366   2.526   4.615 -0.1246  1.1461  1.7594
 2079TIP3   OH227651   6.297   0.617   3.915  0.1444  0.0983  0.3086
 2079TIP3    H127652   6.377   0.604   3.863  0.5423  2.3744  0.2806
 2079TIP3    H227653   6.229   0.636   3.850 -0.3233 -1.3131  0.3683
 2080TIP3   OH227654   0.983   4.941   3.585 -0.2085 -0.1317  0.0903
 2080TIP3    H127655   1.049   5.002   3.619  0.2164  0.5553 -1.8808
 2080TIP3    H227656   0.904   4.961   3.636 -0.0863  2.1262 -0.5205
 2081TIP3   OH227657   3.459   6.688   0.781  0.4894  0.4695 -0.1167
 2081TIP3    H127658   3.482   6.664   0.691  1.7367  0.8679  0.0912
 2081TIP3    H227659   3.383   6.745   0.771  0.0185 -0.2667 -0.8593
 2082TIP3   OH227660   5.028   2.298  15.089 -0.0880 -0.3713  0.5555
 2082TIP3    H127661   4.995   2.223  15.040 -2.2719  1.0728 -0.2451
 2082TIP3    H227662   5.032   2.268  15.179  2.1763 -2.4577 -0.1909
 2083TIP3   OH227663   2.158   4.128  16.607 -0.4133  0.2631 -0.1866
 2083TIP3    H127664   2.109   4.180  16.544  0.6376  2.1703  0.5301
 2083TIP3    H227665   2.239   4.105  16.561 -0.7650 -0.5306 -0.4124
 2084TIP3   OH227666   2.517   1.726  10.597  0.3746 -0.1201  0.5390
 2084TIP3    H127667   2.549   1.745  10.509  1.4424 -1.0196  0.7243
 2084TIP3    H227668   2.446   1.788  10.611  1.0290  0.8666 -0.4793
 2085TIP3   OH227669   5.409   4.927  11.051  0.2763  0.4714 -0.5715
 2085TIP3    H127670   5.385   4.861  10.987  0.9111  0.8121 -1.1657
 2085TIP3    H227671   5.400   5.010  11.005  2.3453  0.6270 -0.7477
 2086TIP3   OH227672   3.449   4.985  11.236 -0.2879  0.3031 -0.2535
 2086TIP3    H127673   3.376   5.020  11.288 -0.4084 -0.3798  0.0398
 2086TIP3    H227674   3.528   5.020  11.279 -0.3666 -0.7562  0.7533
 2087TIP3   OH227675   6.239   3.226  11.380  0.0876  0.0520  0.0843
 2087TIP3    H127676   6.241   3.182  11.295  0.4200 -0.1992  0.2239
 2087TIP3    H227677   6.168   3.289  11.371  0.3671  0.2920 -0.5077
 2088TIP3   OH227678   1.334   2.139  12.165  0.0182 -0.4833 -0.1233
 2088TIP3    H127679   1.269   2.071  12.147 -0.0560 -0.4811  0.1315
 2088TIP3    H227680   1.292   2.220  12.134 -0.1608 -0.4615  0.1724
 2089TIP3   OH227681   4.980   6.577   2.428 -0.0717 -0.2220  1.0022
 2089TIP3    H127682   4.913   6.573   2.360  0.8082 -1.9182  0.1901
 2089TIP3    H227683   4.954   6.650   2.484 -1.7511  0.0999 -0.1711
 2090TIP3   OH227684   2.146   3.236  14.650  0.5100  0.2185  0.2469
 2090TIP3    H127685   2.050   3.227  14.648  0.3119  2.1967 -0.7134
 2090TIP3    H227686   2.160   3.330  14.657  2.4195  0.1735 -2.6498
 2091TIP3   OH227687   1.308   6.532  17.189  0.0211 -0.1964 -0.0684
 2091TIP3    H127688   1.339   6.617  17.159 -1.0949  0.2961  0.1706
 2091TIP3    H227689   1.382   6.473  17.174  0.5503  0.6656 -0.8978
 2092TIP3   OH227690   1.526   3.397   1.793  0.3762  0.1757  0.1131
 2092TIP3    H127691   1.547   3.422   1.703  1.1960  0.1961  0.3031
 2092TIP3    H227692   1.453   3.454   1.817  1.1691  1.2713 -0.0149
 2093TIP3   OH227693   3.077   3.272  13.331 -0.3245  0.1963  0.2790
 2093TIP3    H127694   3.096   3.276  13.424 -0.0778 -0.3773  0.2604
 2093TIP3    H227695   2.983   3.287  13.324 -0.6161 -1.3569  0.7619
 2094TIP3   OH227696   0.338   3.923   5.951  0.0367  0.3014 -0.5507
 2094TIP3    H127697   0.261   3.917   6.008 -1.2061  2.6596 -1.9076
 2094TIP3    H227698   0.368   3.833   5.942 -0.8051 -0.3191  2.3588
 2095TIP3   OH227699   2.368   5.268   4.385 -0.0110  0.6432 -0.0398
 2095TIP3    H127700   2.300   5.235   4.444 -0.2918 -0.2810 -0.8589
 2095TIP3    H227701   2.319   5.312   4.315  0.3784  3.2457  1.2823
 2096TIP3   OH227702   4.110   1.368  13.732  0.4563 -0.4232  0.5488
 2096TIP3    H127703   4.197   1.408  13.727  1.0050 -0.7438  5.5057
 2096TIP3    H227704   4.061   1.424  13.792 -1.4201 -2.5212  1.0404
 2097TIP3   OH227705   0.520   5.511   0.004  0.3445  0.4547 -0.9872
 2097TIP3    H127706   0.478   5.425   0.003 -1.6142  1.3892 -1.3419
 2097TIP3    H227707   0.613   5.492   0.008 -0.1172 -1.6836  1.0047
 2098TIP3   OH227708   2.373   3.271  14.250 -0.5651  0.1521  0.0358
 2098TIP3    H127709   2.358   3.213  14.175  0.8883 -0.0451 -0.1170
 2098TIP3    H227710   2.285   3.301  14.274 -1.0659  0.1286 -1.6663
 2099TIP3   OH227711   6.326   5.341   1.412 -0.1211 -0.3347 -0.2641
 2099TIP3    H127712   6.278   5.345   1.330  0.0507 -1.0986 -0.4097
 2099TIP3    H227713   6.274   5.393   1.473 -1.4458 -1.6245 -0.2629
 2100TIP3   OH227714   3.468   4.837   3.052 -0.2621 -0.0071  0.7288
 2100TIP3    H127715   3.405   4.770   3.024  0.1365 -0.0860 -0.0082
 2100TIP3    H227716   3.531   4.842   2.980 -0.5398  1.4960  0.5742
 2101TIP3   OH227717   0.617   3.127   0.095  0.2670 -0.7189  0.4930
 2101TIP3    H127718   0.610   3.206   0.148  0.0857 -1.0509  0.9681
 2101TIP3    H227719   0.680   3.072   0.143  1.2359 -0.4102 -0.4009
 2102TIP3   OH227720   5.522   4.858  14.809 -0.3653  0.5057 -0.1911
 2102TIP3    H127721   5.580   4.791  14.773 -0.3145  1.4177 -1.8993
 2102TIP3    H227722   5.434   4.825  14.793 -0.3404 -0.1885  1.0450
 2103TIP3   OH227723   4.488   4.374  13.929  0.4945 -0.4089  0.0820
 2103TIP3    H127724   4.471   4.357  13.837  2.2068  1.9674 -0.6903
 2103TIP3    H227725   4.413   4.426  13.958  0.0411 -1.0117  0.0085
 2104TIP3   OH227726   5.122   6.213  14.687 -0.5068 -0.2453  0.2197
 2104TIP3    H127727   5.159   6.163  14.614 -3.3528  2.7162 -3.4038
 2104TIP3    H227728   5.181   6.288  14.697 -0.3983 -0.3892  0.6734
 2105TIP3   OH227729   1.392   1.728   2.967  0.0903 -0.4980  0.8409
 2105TIP3    H127730   1.316   1.712   3.022 -0.8619  0.2348 -0.2252
 2105TIP3    H227731   1.458   1.666   2.997 -0.8609 -0.9985  1.9154
 2106TIP3   OH227732   2.981   6.092   4.733 -0.1362  0.4278  0.0880
 2106TIP3    H127733   3.050   6.033   4.763  1.1339  1.2218 -1.1909
 2106TIP3    H227734   3.024   6.177   4.725 -1.1208  0.8096 -1.2900
 2107TIP3   OH227735   5.022   5.213  15.889  0.4714 -0.1830 -0.4619
 2107TIP3    H127736   5.100   5.177  15.846  2.2473  1.6530  1.0642
 2107TIP3    H227737   4.957   5.144  15.884  1.5424 -1.0513 -3.5706
 2108TIP3   OH227738   0.936   1.535  13.636  0.2849  0.5916  0.3237
 2108TIP3    H127739   0.979   1.529  13.551  1.2037  0.5802  0.7806
 2108TIP3    H227740   0.995   1.488  13.696 -0.8329 -0.2503  0.7797
 2109TIP3   OH227741   3.941   1.937   4.698 -0.0742 -0.4121 -0.4775
 2109TIP3    H127742   3.947   1.925   4.792  1.7879 -1.1568 -0.6668
 2109TIP3    H227743   3.943   2.032   4.686 -0.4747 -0.3123  0.2398
 2110TIP3   OH227744   5.315   0.565  12.269 -0.3321 -0.0633 -0.5571
 2110TIP3    H127745   5.315   0.592  12.177 -0.1136 -0.9363 -0.8171
 2110TIP3    H227746   5.403   0.531  12.284 -0.5502 -0.4561 -0.1785
 2111TIP3   OH227747   2.895   4.497  12.027  0.9151 -0.5636  0.0706
 2111TIP3    H127748   2.911   4.424  11.968  1.2705 -0.1833 -0.3025
 2111TIP3    H227749   2.981   4.537  12.040  0.8618 -0.7226  0.9378
 2112TIP3   OH227750   4.275   0.914   1.758  0.0816 -0.0522  0.0981
 2112TIP3    H127751   4.227   0.940   1.679  0.2775 -0.0685 -0.0284
 2112TIP3    H227752   4.365   0.939   1.740 -0.1532  1.4779  1.0124
 2113TIP3   OH227753   1.616   2.722   4.571 -0.1508  0.1939 -0.3608
 2113TIP3    H127754   1.639   2.767   4.653 -2.2430 -0.3057  0.5142
 2113TIP3    H227755   1.547   2.661   4.595  0.0909 -0.8835 -2.2760
 2114TIP3   OH227756   5.673   3.960   1.370 -0.0627  0.0194 -0.5418
 2114TIP3    H127757   5.685   4.036   1.427  2.5420 -0.4038 -0.4882
 2114TIP3    H227758   5.644   3.890   1.428 -0.3623  0.3877 -0.2453
 2115TIP3   OH227759   4.609   2.076   4.812  0.3881 -0.0466 -0.8887
 2115TIP3    H127760   4.613   2.164   4.850  1.9476 -0.5066  0.0907
 2115TIP3    H227761   4.641   2.087   4.722 -0.1286  0.5072 -1.0052
 2116TIP3   OH227762   1.043   6.670  11.951  0.6653 -0.0767 -0.2663
 2116TIP3    H127763   1.085   6.730  12.013 -0.8812  2.3981 -1.5481
 2116TIP3    H227764   0.980   6.622  12.004  0.5331  0.8338  0.4130
 2117TIP3   OH227765   2.202   4.462   5.581  0.3261  0.1848 -0.6020
 2117TIP3    H127766   2.170   4.394   5.522  0.7632 -0.5264 -0.0331
 2117TIP3    H227767   2.146   4.537   5.563  0.0001 -0.2427 -1.4198
 2118TIP3   OH227768   5.017   6.220   1.739 -0.4661 -0.1639 -0.8778
 2118TIP3    H127769   4.945   6.280   1.758 -1.7454 -1.8910 -0.1374
 2118TIP3    H227770   5.082   6.237   1.808 -1.6054 -0.8408  0.3878
 2119TIP3   OH227771   1.254   3.555   5.392 -0.1053  0.9476  0.3973
 2119TIP3    H127772   1.260   3.634   5.340  2.2990  0.8125  0.4010
 2119TIP3    H227773   1.304   3.490   5.342  0.6559  0.3287  1.9285
 2120TIP3   OH227774   6.064   1.018   5.733 -0.0112 -0.1188 -0.4506
 2120TIP3    H127775   6.030   0.929   5.728 -0.7539  0.0504  1.1724
 2120TIP3    H227776   5.987   1.072   5.748  0.3399  0.8963 -2.2712
 2121TIP3   OH227777   2.813   4.452   3.531 -0.1350 -0.1071 -0.1593
 2121TIP3    H127778   2.731   4.472   3.486 -0.2149 -0.1134 -0.0174
 2121TIP3    H227779   2.882   4.474   3.467 -0.2479 -0.1636 -0.3008
 2122TIP3   OH227780   4.915   2.951   1.067 -0.2140  0.4464 -0.1085
 2122TIP3    H127781   4.942   2.947   1.159 -1.1769  0.3631  0.1665
 2122TIP3    H227782   4.944   2.867   1.031 -2.2966 -0.7024  0.7983
 2123TIP3   OH227783   1.154   5.884  16.382  0.2722  0.4711  0.1532
 2123TIP3    H127784   1.112   5.843  16.307 -0.6549  1.8391 -0.1041
 2123TIP3    H227785   1.149   5.978  16.364 -0.8946  0.8841  2.3994
 2124TIP3   OH227786   4.991   5.877  16.999  0.3993 -0.2223  0.0479
 2124TIP3    H127787   5.020   5.798  17.044  3.4017  0.8317  0.1429
 2124TIP3    H227788   4.948   5.846  16.920 -0.1673 -1.9784  1.0248
 2125TIP3   OH227789   3.976   5.023  11.459  0.3134 -0.3300  0.1578
 2125TIP3    H127790   4.015   4.985  11.380  0.2537 -0.9047  0.4077
 2125TIP3    H227791   4.011   5.112  11.461  0.1449 -0.2375 -0.6355
 2126TIP3   OH227792   2.123   4.506   0.742 -0.2155  0.3378  0.1438
 2126TIP3    H127793   2.143   4.432   0.799 -1.3513 -0.1238 -0.0371
 2126TIP3    H227794   2.031   4.525   0.758 -0.0132  1.5372 -0.0301
 2127TIP3   OH227795   5.222   5.281   3.421 -0.0016  0.2479 -0.1270
 2127TIP3    H127796   5.231   5.201   3.472 -0.0767  0.3141 -0.0095
 2127TIP3    H227797   5.130   5.306   3.432  0.0042  0.3108 -0.2231
 2128TIP3   OH227798   4.405   2.157  11.605 -0.0370  0.4115  0.5851
 2128TIP3    H127799   4.323   2.173  11.558 -0.2764  1.1588  1.2516
 2128TIP3    H227800   4.454   2.098  11.547 -1.9970 -1.9298  1.2185
 2129TIP3   OH227801   4.124   3.078  13.090 -0.2124 -0.5872  0.4739
 2129TIP3    H127802   4.041   3.078  13.042 -0.1780  2.4267  0.3116
 2129TIP3    H227803   4.190   3.058  13.023 -0.5946 -0.8720  0.1796
 2130TIP3   OH227804   2.688   2.435   1.051 -0.2596 -0.0165 -0.2356
 2130TIP3    H127805   2.680   2.489   0.972  1.4876  0.4365 -0.1200
 2130TIP3    H227806   2.731   2.355   1.021 -1.6115 -0.7880 -0.1456
 2131TIP3   OH227807   0.311   4.837  12.411 -0.4329  0.4426  0.4500
 2131TIP3    H127808   0.254   4.873  12.343 -2.3172 -1.3451  1.0232
 2131TIP3    H227809   0.283   4.881  12.491  1.3934  2.1284  0.1617
 2132TIP3   OH227810   3.093   0.718   0.495  0.3707  0.4256 -0.2483
 2132TIP3    H127811   3.072   0.796   0.545 -2.1056 -0.5195  0.2776
 2132TIP3    H227812   3.187   0.724   0.478  0.7433  2.0810  2.2070
 2133TIP3   OH227813   0.943   0.556   2.537  0.2159  0.3813 -0.8070
 2133TIP3    H127814   1.014   0.583   2.479  1.4225 -0.9327  0.0060
 2133TIP3    H227815   0.868   0.610   2.512  0.7277 -0.1188 -3.5191
 2134TIP3   OH227816   1.744   5.367   5.098 -0.1301  0.3549  0.2516
 2134TIP3    H127817   1.837   5.383   5.082  0.0938 -1.4741 -0.3444
 2134TIP3    H227818   1.742   5.291   5.156 -1.3162 -0.9406 -1.4719
 2135TIP3   OH227819   1.966   3.084  15.817 -0.3984  0.2961 -0.0085
 2135TIP3    H127820   1.989   3.177  15.816 -0.8946  0.4139 -1.9628
 2135TIP3    H227821   1.910   3.072  15.740  0.1349 -1.7323 -0.1065
 2136TIP3   OH227822   1.004   0.495  15.060  0.0032 -0.5086 -0.5143
 2136TIP3    H127823   1.017   0.514  14.967 -0.7279 -1.8417 -0.9144
 2136TIP3    H227824   0.924   0.442  15.062 -1.5270  1.7869  1.1751
 2137TIP3   OH227825   4.116   4.048   4.258 -0.0080  0.2990 -0.2720
 2137TIP3    H127826   4.152   4.067   4.345  0.3803 -0.2717 -0.3077
 2137TIP3    H227827   4.108   4.133   4.216  0.6167  0.4931  0.0045
 2138TIP3   OH227828   0.159   4.080  12.892  0.4183 -0.0734  0.3351
 2138TIP3    H127829   0.151   4.158  12.946  0.7295  0.3561 -0.2277
 2138TIP3    H227830   0.219   4.023  12.940  1.3755  0.6661  0.0333
 2139TIP3   OH227831   0.122   3.331   1.192  0.4569  0.0972  0.8026
 2139TIP3    H127832   0.103   3.379   1.111 -2.2181 -0.6477  0.9171
 2139TIP3    H227833   0.147   3.244   1.163  0.6416  0.1659  0.7513
 2140TIP3   OH227834   1.565   1.823  14.455  0.0020 -0.7333 -0.3930
 2140TIP3    H127835   1.623   1.892  14.424  0.6234 -0.7247  0.7304
 2140TIP3    H227836   1.486   1.868  14.485  0.8000 -0.3748  1.2693
 2141TIP3   OH227837   1.175   0.198   4.699  0.5537 -0.4922  0.1410
 2141TIP3    H127838   1.225   0.169   4.775  0.2436 -1.7926 -0.1340
 2141TIP3    H227839   1.092   0.229   4.736  0.7132 -0.3811  0.4086
 2142TIP3   OH227840   4.516   6.132   0.731 -0.0867  0.2347 -0.4426
 2142TIP3    H127841   4.514   6.136   0.826 -1.2788  0.2001 -0.4591
 2142TIP3    H227842   4.567   6.054   0.711 -0.6036 -0.2714  0.1869
 2143TIP3   OH227843   0.497   0.121  14.585  0.3346 -0.4289 -0.8819
 2143TIP3    H127844   0.462   0.108  14.497 -1.7028  1.1686 -0.3599
 2143TIP3    H227845   0.427   0.092  14.644  0.3936  1.5068  0.1988
 2144TIP3   OH227846   2.482   6.681  11.868  0.0586 -0.1593 -0.4080
 2144TIP3    H127847   2.564   6.632  11.875 -0.2367 -0.6150 -0.1348
 2144TIP3    H227848   2.425   6.627  11.814 -0.0982  0.1092 -0.5132
 2145TIP3   OH227849   0.372   2.623   1.430  0.1736 -0.2082 -0.9508
 2145TIP3    H127850   0.290   2.583   1.457  1.4789 -0.5139  2.7368
 2145TIP3    H227851   0.349   2.714   1.411 -0.8481  0.0013  1.1419
 2146TIP3   OH227852   3.942   0.698   5.113  0.2412 -0.5662 -0.0602
 2146TIP3    H127853   3.999   0.621   5.120  1.4330  0.5017  2.9716
 2146TIP3    H227854   3.967   0.739   5.030  1.5651 -1.9395 -0.3575
 2147TIP3   OH227855   4.903   3.799  16.216  0.2077 -0.0199  0.4613
 2147TIP3    H127856   4.872   3.741  16.146  0.1945  2.0953 -1.3312
 2147TIP3    H227857   4.996   3.811  16.198  0.4897 -0.4978  1.5718
 2148TIP3   OH227858   0.666   4.669  12.477  0.6594 -0.1306  0.1419
 2148TIP3    H127859   0.725   4.693  12.405 -0.0521 -0.1901 -0.4650
 2148TIP3    H227860   0.702   4.715  12.553  1.4018 -0.0405 -0.2536
 2149TIP3   OH227861   4.909   6.039  13.859 -0.2475 -0.3514 -0.5142
 2149TIP3    H127862   4.840   6.097  13.827 -0.5164 -1.0127 -1.1348
 2149TIP3    H227863   4.863   5.973  13.910  0.1038  0.2409  0.6032
 2150TIP3   OH227864   4.950   5.673   3.399  0.7515  0.2031  0.3929
 2150TIP3    H127865   5.011   5.675   3.325  0.4755 -1.8458  0.0824
 2150TIP3    H227866   4.864   5.685   3.358  0.7440  0.8474  0.5882
 2151TIP3   OH227867   3.620   4.100   3.252  0.2942 -0.3390  0.4885
 2151TIP3    H127868   3.555   4.170   3.255 -0.6636 -1.1634 -0.8722
 2151TIP3    H227869   3.628   4.072   3.343 -0.6766  0.2839  0.7760
 2152TIP3   OH227870   2.802   0.079   1.190  0.3966 -0.1147 -0.3162
 2152TIP3    H127871   2.863   0.074   1.264  0.0414  1.2942  0.0803
 2152TIP3    H227872   2.848   0.132   1.125  0.4673 -0.8694 -0.8972
 2153TIP3   OH227873   6.702   5.672  16.171  0.1747  0.3154 -0.5557
 2153TIP3    H127874   6.731   5.704  16.085  1.0535 -1.0584 -0.7861
 2153TIP3    H227875   6.783   5.665  16.222 -0.0696 -0.8825 -0.3141
 2154TIP3   OH227876   2.153   4.999   3.916 -0.1644  0.1413 -0.2985
 2154TIP3    H127877   2.136   5.026   4.006  2.9116 -1.4126  0.8221
 2154TIP3    H227878   2.228   5.053   3.889  0.5379 -1.1894 -1.0455
 2155TIP3   OH227879   0.938   0.498   2.260  0.1710  0.9369  0.4248
 2155TIP3    H127880   0.868   0.478   2.198 -0.1938  2.0038  0.4701
 2155TIP3    H227881   0.953   0.416   2.307 -0.1993  0.3708 -0.4236
 2156TIP3   OH227882   5.926   2.821   4.870 -0.0463  0.0174  0.5440
 2156TIP3    H127883   5.888   2.757   4.930 -1.9144 -0.0093 -0.6296
 2156TIP3    H227884   5.996   2.863   4.920 -0.9508 -0.6657  2.4086
 2157TIP3   OH227885   0.242   5.852  14.995 -0.1027 -0.6084  0.1487
 2157TIP3    H127886   0.331   5.826  14.975  0.7620  0.6852  2.0978
 2157TIP3    H227887   0.224   5.814  15.081 -1.0565 -0.0285  0.2230
 2158TIP3   OH227888   5.534   2.988  14.270 -0.1266 -0.4027 -0.4150
 2158TIP3    H127889   5.504   3.004  14.181 -1.0485 -0.0925 -0.0639
 2158TIP3    H227890   5.616   3.037  14.278  0.7652 -1.6983 -1.5698
 2159TIP3   OH227891   6.737   1.216  14.891  0.7361  0.3899  0.0990
 2159TIP3    H127892   6.809   1.254  14.941  0.5788 -0.8065  1.2682
 2159TIP3    H227893   6.674   1.188  14.957 -0.9418  1.6857 -0.9400
 2160TIP3   OH227894   4.011   3.455  14.884  0.4648  0.2096 -0.7213
 2160TIP3    H127895   3.964   3.384  14.928 -2.5179  2.3100 -0.4234
 2160TIP3    H227896   4.004   3.434  14.791  2.0139 -1.3109 -0.5274
 2161TIP3   OH227897   1.556   4.729  15.304  0.2482 -0.0578 -0.6667
 2161TIP3    H127898   1.628   4.755  15.362  0.1240 -1.8849  0.3209
 2161TIP3    H227899   1.479   4.726  15.361  0.0367 -1.4024 -1.0110
 2162TIP3   OH227900   2.827   1.848   3.630 -0.9456  0.1729  0.1991
 2162TIP3    H127901   2.794   1.911   3.565  1.5053  1.2311 -0.0568
 2162TIP3    H227902   2.864   1.903   3.699  1.3945 -0.9815 -0.1137
 2163TIP3   OH227903   2.685   5.042  15.083  0.5970  0.3506 -0.0800
 2163TIP3    H127904   2.770   5.076  15.055  0.4845  0.4419 -0.3100
 2163TIP3    H227905   2.652   4.994  15.007 -1.2383  3.4441 -1.3432
 2164TIP3   OH227906   3.580   3.668  17.184 -0.7080  0.4372  0.4098
 2164TIP3    H127907   3.569   3.732  17.113  0.3161 -0.2340 -0.3839
 2164TIP3    H227908   3.553   3.585  17.145  0.2375  0.0035  0.6754
 2165TIP3   OH227909   3.349   2.125  11.750 -0.4843 -0.6251  0.4987
 2165TIP3    H127910   3.297   2.192  11.795 -0.7888 -0.1161 -0.5843
 2165TIP3    H227911   3.432   2.124  11.797 -0.3194  0.8153  0.2666
 2166TIP3   OH227912   6.337   4.712   2.253  0.1460 -0.3721 -0.3086
 2166TIP3    H127913   6.357   4.774   2.323  0.9040 -0.2578 -0.6288
 2166TIP3    H227914   6.359   4.758   2.173  1.0128 -1.1741 -0.5342
 2167TIP3   OH227915   2.303   5.632   3.280  0.1289  0.3690  0.2355
 2167TIP3    H127916   2.278   5.667   3.195 -0.1159  0.5685  0.3879
 2167TIP3    H227917   2.330   5.542   3.263  2.2207  1.0977 -0.3943
 2168TIP3   OH227918   4.340   5.089  14.967 -0.0093  0.0881  0.3517
 2168TIP3    H127919   4.360   5.175  14.931 -0.0473  0.3529  0.9501
 2168TIP3    H227920   4.296   5.042  14.896 -1.1194  1.0031  0.4420
 2169TIP3   OH227921   0.858   4.004  16.247  0.1237 -0.2406 -0.6175
 2169TIP3    H127922   0.951   4.026  16.240 -0.1320  0.5387 -1.7635
 2169TIP3    H227923   0.836   4.016  16.339  0.8098  0.9910 -0.6150
 2170TIP3   OH227924   0.624   1.994  14.202 -0.3857 -0.2420  0.0874
 2170TIP3    H127925   0.674   2.074  14.184 -0.7398 -0.0449 -0.0106
 2170TIP3    H227926   0.680   1.944  14.262 -0.8043  0.7392  1.3190
 2171TIP3   OH227927   5.729   3.893  14.496 -0.9761  0.4891 -0.1908
 2171TIP3    H127928   5.703   3.899  14.404 -1.9368 -2.0598 -0.1353
 2171TIP3    H227929   5.803   3.832  14.495 -0.4297  1.1299  0.6488
 2172TIP3   OH227930   1.121   3.660   1.734 -0.0602 -0.1098 -0.2888
 2172TIP3    H127931   1.103   3.642   1.641 -0.5503  0.8154 -0.3747
 2172TIP3    H227932   1.035   3.651   1.776 -0.0964  0.8900 -0.1503
 2173TIP3   OH227933   2.075   4.777  15.092 -1.1531  0.2339  0.3309
 2173TIP3    H127934   2.003   4.720  15.119  1.3952 -3.3850 -0.2253
 2173TIP3    H227935   2.066   4.784  14.997 -1.9982  1.5832  0.4936
 2174TIP3   OH227936   2.369   5.476  15.059  0.1180 -0.2347  0.9715
 2174TIP3    H127937   2.321   5.485  14.977  1.9017  0.3720 -0.0320
 2174TIP3    H227938   2.427   5.400  15.045  1.0236  0.3718  1.3462
 2175TIP3   OH227939   6.767   1.398   3.186  0.2192 -0.0193 -0.0772
 2175TIP3    H127940   6.710   1.415   3.111  0.8928 -0.1081 -0.6077
 2175TIP3    H227941   6.854   1.425   3.157  0.0303  2.6471  1.6098
 2176TIP3   OH227942   1.303   2.891   4.361 -0.6804 -0.9281 -0.3533
 2176TIP3    H127943   1.272   2.857   4.277  0.0487 -0.4422 -0.8281
 2176TIP3    H227944   1.224   2.921   4.405 -1.0576 -1.0589 -0.9271
 2177TIP3   OH227945   2.304   0.485   4.313 -0.1750 -0.4766 -0.1098
 2177TIP3    H127946   2.317   0.514   4.223 -1.3086  1.6590  0.3880
 2177TIP3    H227947   2.243   0.412   4.307 -0.3106 -0.2815 -1.0539
 2178TIP3   OH227948   0.430   2.897   4.998  0.3302  0.2196  0.0359
 2178TIP3    H127949   0.466   2.870   5.082 -1.0838 -0.8724  0.3175
 2178TIP3    H227950   0.371   2.825   4.973  1.5317  0.0129 -2.3929
 2179TIP3   OH227951   3.596   4.205  14.655 -0.8548 -0.2744  0.1067
 2179TIP3    H127952   3.513   4.240  14.688 -0.6511  0.1618  0.1520
 2179TIP3    H227953   3.610   4.125  14.707  0.6585  1.6450  2.7762
 2180TIP3   OH227954   5.793   6.078  17.190 -0.2331 -0.0841  0.5606
 2180TIP3    H127955   5.756   6.049  17.107  0.9449 -1.5029  0.5267
 2180TIP3    H227956   5.853   6.148  17.166 -1.1192  0.6377  0.3961
 2181TIP3   OH227957   3.735   2.036  16.870  0.0522 -0.0622  0.0072
 2181TIP3    H127958   3.792   2.084  16.930  1.1526 -1.1997 -0.1270
 2181TIP3    H227959   3.703   1.962  16.920 -0.7334  0.1557 -0.1559
 2182TIP3   OH227960   1.786   6.762  16.327 -0.2777  0.0399 -0.3530
 2182TIP3    H127961   1.870   6.801  16.301 -0.0407 -1.8829 -2.6827
 2182TIP3    H227962   1.728   6.837  16.336  1.3188  1.2956 -0.1468
 2183TIP3   OH227963   5.757   4.076  17.149 -0.3670 -0.0517 -0.0703
 2183TIP3    H127964   5.688   4.040  17.094 -0.9539  0.0952  0.5608
 2183TIP3    H227965   5.821   4.005  17.156 -0.0879  0.0699 -1.2611
 2184TIP3   OH227966   2.796   4.820  17.174 -0.4990  0.0589 -0.7040
 2184TIP3    H127967   2.853   4.754  17.134  1.4723  0.6269  1.1126
 2184TIP3    H227968   2.741   4.770  17.234 -0.9334 -0.2929 -1.3857
 2185TIP3   OH227969   3.408   4.963   3.286 -0.2367 -0.2791  0.4846
 2185TIP3    H127970   3.445   4.941   3.201 -0.7425 -0.9632  0.4337
 2185TIP3    H227971   3.432   5.054   3.300 -2.0462  0.5312 -1.3959
 2186TIP3   OH227972   4.803   0.679  11.709 -0.2279 -0.3706  0.3070
 2186TIP3    H127973   4.853   0.613  11.759 -1.0009 -0.0960  1.4472
 2186TIP3    H227974   4.790   0.638  11.624 -0.7720 -1.7390  1.0342
 2187TIP3   OH227975   5.083   1.607  13.420 -0.4137  0.6426 -1.1313
 2187TIP3    H127976   5.146   1.576  13.355 -0.3618  0.5536 -1.0368
 2187TIP3    H227977   5.018   1.657  13.370  0.1924  1.4566 -1.1260
 2188TIP3   OH227978   5.240   3.910  12.506 -0.0323  0.2130 -0.1332
 2188TIP3    H127979   5.209   3.852  12.436 -1.1612  0.6251  0.0309
 2188TIP3    H227980   5.216   3.998  12.477 -0.0610  0.4302  0.5418
 2189TIP3   OH227981   4.576   6.430   4.286  0.3698 -0.0371  1.4462
 2189TIP3    H127982   4.557   6.493   4.356  0.0752  2.5607 -0.8402
 2189TIP3    H227983   4.659   6.459   4.249 -0.5481  0.0231 -0.6753
 2190TIP3   OH227984   1.100   3.464  14.487  0.3063 -0.2788  0.2454
 2190TIP3    H127985   1.135   3.552  14.481 -0.8748  0.0884 -1.4734
 2190TIP3    H227986   1.008   3.473  14.463  0.8302 -2.4120 -2.8256
 2191TIP3   OH227987   1.398   5.040  13.098 -0.3205  0.0725 -0.5732
 2191TIP3    H127988   1.322   5.029  13.155  0.9592 -1.6311  0.8592
 2191TIP3    H227989   1.378   5.118  13.046 -1.8934  1.1671  1.6013
 2192TIP3   OH227990   2.881   1.031  10.889  0.2553 -0.9116 -0.9312
 2192TIP3    H127991   2.891   1.016  10.984 -1.0850 -2.5323 -1.0024
 2192TIP3    H227992   2.963   1.072  10.862  1.2215 -1.6954  0.6979
 2193TIP3   OH227993   5.226   3.379  15.614  0.1423 -0.4818  0.4464
 2193TIP3    H127994   5.262   3.293  15.592 -1.4462 -0.7911 -1.0262
 2193TIP3    H227995   5.189   3.367  15.702 -0.5846 -1.4634  0.0161
 2194TIP3   OH227996   2.996   2.487  12.594 -0.2198  0.0364  0.7491
 2194TIP3    H127997   3.026   2.443  12.673  0.7229  1.1040  0.9954
 2194TIP3    H227998   3.026   2.578  12.604  0.2548  0.0927 -1.0001
 2195TIP3   OH227999   0.196   4.642  13.842  0.2952  0.2524 -0.1442
 2195TIP3    H128000   0.218   4.732  13.821  0.1833 -0.0056 -1.3752
 2195TIP3    H228001   0.281   4.601  13.862  0.4413  0.4029 -0.4494
 2196TIP3   OH228002   4.842   4.614   2.506 -0.0184 -0.4519  0.4912
 2196TIP3    H128003   4.760   4.619   2.457 -0.1728  0.9486  0.8554
 2196TIP3    H228004   4.815   4.591   2.595 -0.0090 -0.1526  0.5725
 2197TIP3   OH228005   2.603   4.343   2.578  0.4960 -0.3258 -0.1745
 2197TIP3    H128006   2.510   4.322   2.571  0.1916  0.8554  0.1122
 2197TIP3    H228007   2.648   4.260   2.568 -0.6772 -1.1787  1.4729
 2198TIP3   OH228008   2.598   3.225   5.786  0.2186 -0.4419  0.4062
 2198TIP3    H128009   2.646   3.273   5.853  0.3564 -0.5989  0.4199
 2198TIP3    H228010   2.526   3.184   5.833  0.6164 -0.9854  0.5562
 2199TIP3   OH228011   3.388   5.729  16.914  0.2704  1.0543  0.2820
 2199TIP3    H128012   3.300   5.713  16.878  0.4998 -0.0941  0.2160
 2199TIP3    H228013   3.424   5.799  16.860  0.4146 -0.3016 -1.4103
 2200TIP3   OH228014   5.875   5.482   1.269  0.2122 -0.1993 -0.4793
 2200TIP3    H128015   5.780   5.485   1.273  0.0396 -3.3898 -1.2851
 2200TIP3    H228016   5.902   5.571   1.293 -2.7810 -0.2385  3.5599
 2201TIP3   OH228017   6.367   5.460   5.436  0.0613 -0.0751  0.1786
 2201TIP3    H128018   6.381   5.399   5.364  0.5403  0.6474 -0.3455
 2201TIP3    H228019   6.378   5.407   5.515  1.0070 -0.5621 -0.2730
 2202TIP3   OH228020   0.386   2.198   5.101  0.3094 -0.0124  0.6432
 2202TIP3    H128021   0.427   2.145   5.169 -1.3475 -0.2869  1.4483
 2202TIP3    H228022   0.307   2.233   5.142 -1.5014 -1.3624 -1.5766
 2203TIP3   OH228023   3.941   1.054   1.730  0.2947 -0.0596  0.2254
 2203TIP3    H128024   4.016   1.102   1.696 -0.2004  0.2343 -0.4519
 2203TIP3    H228025   3.965   0.962   1.720 -0.3079 -0.0016 -1.9662
 2204TIP3   OH228026   2.393   5.038  15.872 -0.0908  0.0564  0.0933
 2204TIP3    H128027   2.362   5.105  15.933  2.4200 -0.5894  2.1934
 2204TIP3    H228028   2.444   5.087  15.808  0.1875  0.3733  0.5470
 2205TIP3   OH228029   2.433   3.884  13.104 -0.0911  0.6336  0.0144
 2205TIP3    H128030   2.518   3.927  13.092 -0.6433  1.7751  0.1361
 2205TIP3    H228031   2.455   3.794  13.128  1.0799  0.7618 -0.5608
 2206TIP3   OH228032   5.677   4.531  12.903 -0.2203 -0.5249 -0.3214
 2206TIP3    H128033   5.655   4.604  12.845  0.2784  1.1309  1.5168
 2206TIP3    H228034   5.610   4.534  12.971  0.7077 -0.8299  0.6050
 2207TIP3   OH228035   4.850   6.530   5.070 -0.2793  0.4921  0.6120
 2207TIP3    H128036   4.839   6.596   5.002 -1.0814 -0.3076 -0.0670
 2207TIP3    H228037   4.812   6.450   5.031 -0.7191  0.0235  1.9790
 2208TIP3   OH228038   6.686   2.183  11.589  0.4136 -0.6444  0.1228
 2208TIP3    H128039   6.739   2.243  11.641 -0.7983  2.4048 -1.9968
 2208TIP3    H228040   6.750   2.132  11.539  1.4516  1.0911 -0.3832
 2209TIP3   OH228041   3.880   2.431  15.477 -0.2178 -0.1801 -0.6010
 2209TIP3    H128042   3.923   2.516  15.481  0.4439 -0.5528  0.7478
 2209TIP3    H228043   3.808   2.442  15.415 -0.6000  1.5480  0.1447
 2210TIP3   OH228044   5.699   5.181  16.133 -0.0029  0.0525  0.2421
 2210TIP3    H128045   5.618   5.132  16.143 -0.1849 -0.1277 -1.8306
 2210TIP3    H228046   5.767   5.123  16.169 -0.3988 -1.1451 -0.8971
 2211TIP3   OH228047   3.765   4.968   0.932 -0.1638  0.6231 -0.5448
 2211TIP3    H128048   3.736   4.917   1.007  2.3378 -2.3329 -1.4854
 2211TIP3    H228049   3.826   5.032   0.969 -0.9796  0.9398  0.2653
 2212TIP3   OH228050   0.008   2.839   5.199  0.3674  0.3868  0.1951
 2212TIP3    H128051   0.088   2.888   5.180  0.1483  1.0442  0.9481
 2212TIP3    H228052  -0.004   2.848   5.293 -1.7160  2.0209 -0.2002
 2213TIP3   OH228053   0.008   5.053  14.772  0.2314  0.2207  0.2724
 2213TIP3    H128054  -0.015   5.078  14.861  0.5014 -0.4540  0.5332
 2213TIP3    H228055  -0.048   5.107  14.716  0.5529  1.1397  0.8333
 2214TIP3   OH228056   1.360   3.050   4.617  0.3384  0.2202 -0.4530
 2214TIP3    H128057   1.446   3.009   4.606  0.6835  1.1670 -1.4000
 2214TIP3    H228058   1.300   2.993   4.569  0.4925 -0.2384 -0.1066
 2215TIP3   OH228059   4.520   2.818  13.088 -0.2140 -0.7843 -0.2577
 2215TIP3    H128060   4.593   2.781  13.139 -1.4173 -0.9629  1.3619
 2215TIP3    H228061   4.494   2.747  13.030  0.2700 -1.0561 -0.1467
 2216TIP3   OH228062   3.934   5.660   1.399  0.2082 -0.2966  0.2091
 2216TIP3    H128063   3.992   5.718   1.348  0.4494 -1.9900 -1.5010
 2216TIP3    H228064   3.847   5.674   1.361  0.5209 -2.1493 -1.2345
 2217TIP3   OH228065   2.404   2.415  16.322  0.0503  0.3884 -0.4081
 2217TIP3    H128066   2.345   2.341  16.335 -0.7036  0.6553 -2.1725
 2217TIP3    H228067   2.486   2.376  16.291 -0.4119  0.2944 -1.5320
 2218TIP3   OH228068   2.772   0.260  12.166 -0.4699  1.2203 -0.6378
 2218TIP3    H128069   2.839   0.255  12.099  1.2016 -1.4676  1.1451
 2218TIP3    H228070   2.698   0.211  12.130 -0.0739  0.9284 -1.0585
 2219TIP3   OH228071   4.317   1.702   0.193 -0.0658  0.0372  0.0855
 2219TIP3    H128072   4.260   1.670   0.122  0.1761 -1.3631  0.5088
 2219TIP3    H228073   4.296   1.647   0.268  2.4296 -1.0662  0.0187
 2220TIP3   OH228074   6.136   1.275   3.205  0.5192  0.0375  0.1170
 2220TIP3    H128075   6.210   1.279   3.145  1.6383  0.8551  1.5137
 2220TIP3    H228076   6.135   1.184   3.236  1.4740  0.2370  0.7460
 2221TIP3   OH228077   2.835   5.686  14.344  0.0949  0.3476  0.0010
 2221TIP3    H128078   2.923   5.719  14.328  0.3133  0.2134  0.9071
 2221TIP3    H228079   2.832   5.670  14.438 -1.0635  0.8271  0.0510
 2222TIP3   OH228080   4.328   1.632   5.201  0.1466  0.1563  0.2820
 2222TIP3    H128081   4.273   1.555   5.191 -0.0058  0.4115 -0.8753
 2222TIP3    H228082   4.366   1.623   5.288 -1.2781 -0.3134  0.8765
 2223TIP3   OH228083   0.604   4.848   0.332  0.6442  0.3601  0.4002
 2223TIP3    H128084   0.598   4.861   0.427  3.0079  0.4429  0.5810
 2223TIP3    H228085   0.632   4.757   0.322 -1.9721 -0.4016 -0.3390
 2224TIP3   OH228086   1.326   1.765   2.312  0.5814 -0.2387  0.1697
 2224TIP3    H128087   1.342   1.742   2.403 -0.6795 -0.2501  0.4023
 2224TIP3    H228088   1.245   1.719   2.289 -0.2129  1.3484 -0.3375
 2225TIP3   OH228089   4.531   1.530   5.063  0.5858  1.1608  0.3154
 2225TIP3    H128090   4.518   1.436   5.069  0.3103  1.1230 -0.7406
 2225TIP3    H228091   4.465   1.568   5.122 -0.7854  0.7715 -0.9397
 2226TIP3   OH228092   4.819   0.356   2.252 -0.1520  0.6547 -0.0565
 2226TIP3    H128093   4.857   0.390   2.171 -1.6172  0.3229 -0.9020
 2226TIP3    H228094   4.771   0.278   2.224  1.4920 -0.9878  1.5351
 2227TIP3   OH228095   1.715   3.875  11.400  0.2418 -0.7780 -0.2336
 2227TIP3    H128096   1.655   3.801  11.388 -1.6248  0.3148  1.8328
 2227TIP3    H228097   1.711   3.894  11.494  1.9670  0.8845 -0.4596
 2228TIP3   OH228098   1.517   2.917  14.789  0.7946  0.3812  0.2196
 2228TIP3    H128099   1.461   2.984  14.749  0.9230  0.6530  0.4923
 2228TIP3    H228100   1.461   2.840  14.796 -0.2554  1.3124  2.5784
 2229TIP3   OH228101   3.401   0.534   5.224  0.1289 -0.0478  0.1290
 2229TIP3    H128102   3.354   0.506   5.145 -1.8770  0.0405  1.2509
 2229TIP3    H228103   3.451   0.456   5.250 -0.6456 -0.6648 -0.1950
 2230TIP3   OH228104   4.530   4.010   0.837  0.0199  0.1382 -0.2427
 2230TIP3    H128105   4.608   3.959   0.815 -0.2346 -0.5352  0.3616
 2230TIP3    H228106   4.457   3.949   0.822 -0.3660  0.6823 -0.5723
 2231TIP3   OH228107   1.733   6.775  13.979  0.2195 -0.7428 -0.8155
 2231TIP3    H128108   1.760   6.683  13.986  0.3196 -0.6327  0.3854
 2231TIP3    H228109   1.691   6.794  14.063  1.0616  0.5735 -0.6717
 2232TIP3   OH228110   5.228   5.637   2.444 -0.1374  0.0820 -0.6398
 2232TIP3    H128111   5.181   5.565   2.402 -0.9445  0.1339  0.1485
 2232TIP3    H228112   5.286   5.671   2.376  1.8463 -2.6734 -0.4234
 2233TIP3   OH228113   5.143   5.315  11.377 -0.2856  0.3925  0.5135
 2233TIP3    H128114   5.201   5.382  11.415  1.1071  0.3965 -1.5035
 2233TIP3    H228115   5.097   5.362  11.307  1.2064 -0.8658 -1.3728
 2234TIP3   OH228116   3.914   1.775  13.293  0.1858  0.1427  0.2632
 2234TIP3    H128117   3.892   1.688  13.326  1.0341 -0.2020 -0.0755
 2234TIP3    H228118   3.909   1.767  13.198  0.7706  0.3342  0.2186
 2235TIP3   OH228119   1.003   4.453   3.627 -0.5841 -0.6254  0.1529
 2235TIP3    H128120   0.956   4.435   3.709 -0.1741 -1.6825  0.1664
 2235TIP3    H228121   1.090   4.415   3.641  0.2192  1.1482  0.0580
 2236TIP3   OH228122   0.711   5.362   5.624  0.3556  0.5883 -0.0892
 2236TIP3    H128123   0.649   5.418   5.577 -1.3343 -0.1010  1.2905
 2236TIP3    H228124   0.695   5.274   5.590 -0.6984  0.1259  1.5629
 2237TIP3   OH228125   6.199   1.519  15.108  0.1056  0.4232 -0.1117
 2237TIP3    H128126   6.233   1.577  15.040  3.7088 -1.3353  0.0493
 2237TIP3    H228127   6.209   1.431  15.071 -1.7001 -0.3135  1.1212
 2238TIP3   OH228128   1.131   3.402   0.026  0.0139 -0.0529  0.3075
 2238TIP3    H128129   1.212   3.398  -0.025 -0.0540  0.4626  0.1554
 2238TIP3    H228130   1.073   3.340  -0.017 -0.3943  1.1251 -0.8683
 2239TIP3   OH228131   2.705   5.933  14.262  0.0624  0.6019 -0.1937
 2239TIP3    H128132   2.733   5.847  14.230  0.2060 -0.0057  1.5454
 2239TIP3    H228133   2.767   5.955  14.331 -1.3908  1.0093  1.0100
 2240TIP3   OH228134   4.949   5.647  13.113 -0.3515  0.2608  0.2178
 2240TIP3    H128135   5.003   5.724  13.093 -0.0306 -0.0244 -0.0232
 2240TIP3    H228136   4.958   5.635  13.207 -1.2896  1.1808  0.4460
 2241TIP3   OH228137   3.521   3.178  13.672  0.1834 -0.3395 -0.5121
 2241TIP3    H128138   3.527   3.232  13.750  1.8555  0.8477 -1.4306
 2241TIP3    H228139   3.590   3.211  13.614  0.0369 -2.2592 -1.8344
 2242TIP3   OH228140   1.230   3.443  14.104  0.2772  0.3845  0.3416
 2242TIP3    H128141   1.274   3.466  14.186  0.4450 -0.7800  0.5787
 2242TIP3    H228142   1.155   3.390  14.131  1.8859 -2.3860 -0.3946
 2243TIP3   OH228143   1.780   2.724   3.454 -0.4842  0.3441 -0.0039
 2243TIP3    H128144   1.828   2.641   3.456 -1.3728 -0.1887 -0.4299
 2243TIP3    H228145   1.689   2.699   3.438 -1.2220  1.2355  2.6497
 2244TIP3   OH228146   6.382   4.462   3.703 -0.5746  0.2774 -0.0093
 2244TIP3    H128147   6.307   4.454   3.644 -0.2783 -0.6792 -0.2652
 2244TIP3    H228148   6.435   4.531   3.666 -1.7712  1.5842  0.6553
 2245TIP3   OH228149   6.671   1.104   0.284 -0.5706  0.1949  0.2826
 2245TIP3    H128150   6.634   1.173   0.229  0.0183  0.7873  0.6227
 2245TIP3    H228151   6.765   1.105   0.263 -0.6836 -1.0300 -0.2884
 2246TIP3   OH228152   6.582   4.724   5.154  0.5908  0.3763 -0.2830
 2246TIP3    H128153   6.503   4.742   5.207  2.1351  2.3890  1.4626
 2246TIP3    H228154   6.585   4.629   5.147 -0.2453  0.0909  2.4399
 2247TIP3   OH228155   0.187   2.057  13.544 -0.4223 -0.3149  0.3253
 2247TIP3    H128156   0.199   2.151  13.530 -0.3004 -0.1213  1.6573
 2247TIP3    H228157   0.093   2.047  13.561 -0.4406 -0.4404  0.1546
 2248TIP3   OH228158   5.938   3.286  14.183 -0.6310  0.8063  0.1182
 2248TIP3    H128159   5.879   3.243  14.121 -0.1710  0.8932 -0.3838
 2248TIP3    H228160   5.995   3.341  14.129  0.0678  0.5415  0.5676
 2249TIP3   OH228161   3.598   4.694  11.732  0.0201  0.0973 -0.4304
 2249TIP3    H128162   3.572   4.756  11.800  0.6787  0.7733 -0.7874
 2249TIP3    H228163   3.663   4.638  11.775 -0.2046 -0.0313 -0.2552
 2250TIP3   OH228164   2.878   6.260  15.461 -0.2408  0.3366 -0.7932
 2250TIP3    H128165   2.876   6.206  15.382 -0.1498 -0.6739 -0.1215
 2250TIP3    H228166   2.817   6.331  15.443 -0.8001 -0.3071 -1.4707
 2251TIP3   OH228167   3.984   3.253   5.552 -0.0478  0.0124  0.1424
 2251TIP3    H128168   3.952   3.187   5.613  1.6376 -2.5696 -1.6474
 2251TIP3    H228169   4.078   3.260   5.571 -0.1811  1.8526  0.2463
 2252TIP3   OH228170   1.945   0.376   6.859  0.8016 -0.3920 -0.3897
 2252TIP3    H128171   2.012   0.345   6.920  0.7830  0.1926 -0.0619
 2252TIP3    H228172   1.869   0.322   6.877  0.5837  0.2327  0.5858
 2253TIP3   OH228173   6.098   1.557  14.256 -0.0869 -0.4179  0.6719
 2253TIP3    H128174   6.071   1.592  14.171  0.6026 -2.2265 -0.3119
 2253TIP3    H228175   6.140   1.631  14.300 -0.2080  0.4698 -0.6750
 2254TIP3   OH228176   1.794   0.757  14.871  0.6654 -0.1641 -0.4020
 2254TIP3    H128177   1.832   0.799  14.948 -0.6089 -0.7880  0.5770
 2254TIP3    H228178   1.818   0.815  14.798  3.7158 -0.6668  0.1100
 2255TIP3   OH228179   6.295   5.942  13.973 -0.0513  0.4799  0.3242
 2255TIP3    H128180   6.348   5.970  14.047  0.3276  0.8010 -0.0648
 2255TIP3    H228181   6.218   5.902  14.012  0.0262  0.8857  0.8932
 2256TIP3   OH228182   1.377   1.073   1.445  0.0914  0.0099  0.1823
 2256TIP3    H128183   1.293   1.062   1.401  1.8686 -0.3726 -3.2792
 2256TIP3    H228184   1.408   0.984   1.461  0.3406  0.1404  0.4426
 2257TIP3   OH228185   5.793   3.459  11.285 -0.0637 -0.2150 -0.2508
 2257TIP3    H128186   5.765   3.538  11.331  0.1308 -0.3934  0.1812
 2257TIP3    H228187   5.771   3.475  11.193 -1.1315 -0.1530  0.0086
 2258TIP3   OH228188   6.425   3.358  15.457 -0.3754  0.2745 -0.0233
 2258TIP3    H128189   6.414   3.293  15.527  0.4904 -1.5002 -1.4881
 2258TIP3    H228190   6.339   3.398  15.447 -1.1371 -1.2125  0.3885
 2259TIP3   OH228191   2.290   0.580  17.225 -0.8642  0.5463 -0.2671
 2259TIP3    H128192   2.336   0.636  17.287 -0.4518  0.4107 -0.4459
 2259TIP3    H228193   2.261   0.639  17.155  1.2018  0.2695 -1.3983
 2260TIP3   OH228194   3.037   3.111   2.701  0.6169 -0.2719  0.0754
 2260TIP3    H128195   3.104   3.049   2.674  0.2025 -0.6125 -0.1854
 2260TIP3    H228196   3.022   3.091   2.793 -0.0209 -1.0366 -0.1898
 2261TIP3   OH228197   3.425   1.642   3.298  0.0193  0.4675 -0.0033
 2261TIP3    H128198   3.462   1.554   3.309  0.3859  0.7703  1.2236
 2261TIP3    H228199   3.461   1.692   3.371 -1.4248  1.2268  0.1877
 2262TIP3   OH228200   2.374   6.073   0.774  0.4456 -0.0789 -0.0028
 2262TIP3    H128201   2.333   5.995   0.737  0.9362  0.1882 -1.1224
 2262TIP3    H228202   2.351   6.143   0.713 -0.2715  0.7318  1.1638
 2263TIP3   OH228203   3.013   5.046  14.296  0.0810  0.0191 -0.3668
 2263TIP3    H128204   3.015   4.975  14.360  0.9162  0.0085 -0.3947
 2263TIP3    H228205   3.096   5.038  14.249 -0.6633 -0.1631 -1.6594
 2264TIP3   OH228206   0.610   3.383   0.219 -0.0342  0.1806 -0.1095
 2264TIP3    H128207   0.670   3.453   0.194  0.4518  0.5605  2.0893
 2264TIP3    H228208   0.523   3.421   0.208  0.1624  0.3176 -1.2530
 2265TIP3   OH228209   4.816   5.493   2.884  0.4723  0.1295  0.2489
 2265TIP3    H128210   4.764   5.471   2.806  2.0345 -0.7416 -0.5598
 2265TIP3    H228211   4.752   5.496   2.955 -1.2252  2.4163 -1.2960
 2266TIP3   OH228212   1.128   1.938  12.201  0.2684 -0.2092  0.3749
 2266TIP3    H128213   1.052   1.959  12.146  0.8367 -0.0643 -0.3658
 2266TIP3    H228214   1.093   1.931  12.289 -0.2734  1.9858  0.3698
 2267TIP3   OH228215   1.349   0.520  14.491  0.1245  0.1898  0.6191
 2267TIP3    H128216   1.342   0.596  14.549 -1.5129  0.7182 -0.2419
 2267TIP3    H228217   1.260   0.488  14.482  0.3220  0.2149 -1.7415
 2268TIP3   OH228218   0.130   3.238  16.743  0.0778 -0.1002  0.3891
 2268TIP3    H128219   0.202   3.191  16.783  0.5639  0.4491  0.1730
 2268TIP3    H228220   0.081   3.172  16.695  1.1655 -0.2680 -0.4987
 2269TIP3   OH228221   4.145   3.500   2.339  0.4788 -0.1276 -0.4334
 2269TIP3    H128222   4.205   3.565   2.375 -2.3358  2.9495 -1.0410
 2269TIP3    H228223   4.103   3.461   2.416  1.1326 -0.2016 -0.1120
 2270TIP3   OH228224   0.579   5.950  12.201  0.0643  0.3307  0.4605
 2270TIP3    H128225   0.621   5.998  12.130  0.7872  0.7863  1.1918
 2270TIP3    H228226   0.531   6.017  12.250 -0.8369 -0.0584  0.1246
 2271TIP3   OH228227   6.506   5.398   0.348 -0.5546  0.4532 -0.1341
 2271TIP3    H128228   6.514   5.328   0.284 -0.7944  1.5608 -1.3962
 2271TIP3    H228229   6.415   5.393   0.378  0.0880 -1.3724  1.6947
 2272TIP3   OH228230   3.092   5.499   5.206 -0.2579 -0.2038 -0.1030
 2272TIP3    H128231   3.152   5.568   5.234  2.7409 -2.6364 -0.2497
 2272TIP3    H228232   3.076   5.518   5.113  0.3634  0.4008 -0.0922
 2273TIP3   OH228233   3.745   2.612   0.485  0.4518  0.2657  0.2166
 2273TIP3    H128234   3.779   2.656   0.563 -0.1839 -1.3100  1.3965
 2273TIP3    H228235   3.665   2.569   0.514  1.4942 -2.3651 -0.7252
 2274TIP3   OH228236   2.071   3.397   1.799 -0.1447  0.2532  0.0004
 2274TIP3    H128237   2.076   3.358   1.886 -0.3223  1.9655  0.8039
 2274TIP3    H228238   1.979   3.390   1.774 -0.5512  1.9347  0.9916
 2275TIP3   OH228239   2.963   2.302  11.260 -0.2674 -0.1761 -0.6376
 2275TIP3    H128240   3.031   2.272  11.200 -0.4764 -0.6633 -0.6318
 2275TIP3    H228241   2.926   2.380  11.218 -0.4888 -0.5801 -1.1961
 2276TIP3   OH228242   1.781   5.502  17.228 -0.7174 -0.3148  0.1161
 2276TIP3    H128243   1.811   5.470  17.313 -2.6591 -0.1768  0.8812
 2276TIP3    H228244   1.686   5.501  17.234 -0.8780  2.9738 -0.8102
 2277TIP3   OH228245   5.853   6.324   1.652  0.3718  0.6036  0.6014
 2277TIP3    H128246   5.815   6.359   1.572 -0.3890  1.9705  1.5302
 2277TIP3    H228247   5.792   6.350   1.721  2.1498  1.4186  1.9147
 2278TIP3   OH228248   0.109   5.870  13.195 -0.1930  0.3574  0.3197
 2278TIP3    H128249   0.046   5.799  13.198  2.0431 -1.6401  1.2749
 2278TIP3    H228250   0.064   5.940  13.146 -2.6431 -1.4412 -0.0808
 2279TIP3   OH228251   4.133   6.117   2.788  0.5305  0.2587 -0.5672
 2279TIP3    H128252   4.097   6.030   2.767  0.4489  0.7938 -2.7636
 2279TIP3    H228253   4.084   6.145   2.865  1.3090 -2.1118  0.8261
 2280TIP3   OH228254   2.058   4.356   6.521  0.2347  0.2172 -0.0301
 2280TIP3    H128255   2.004   4.350   6.599  0.1975 -0.1736 -0.0840
 2280TIP3    H228256   2.059   4.449   6.499  0.0808  0.3019  0.3173
 2281TIP3   OH228257   2.742   4.608  14.194 -0.4493  0.5102 -1.0572
 2281TIP3    H128258   2.825   4.636  14.233 -0.3913 -1.2512  0.1645
 2281TIP3    H228259   2.769   4.555  14.118 -0.4207 -0.5606 -0.3123
 2282TIP3   OH228260   5.095   6.031  12.799  0.5181 -0.0121  0.0819
 2282TIP3    H128261   5.063   6.121  12.811 -1.2357 -0.7143  0.7228
 2282TIP3    H228262   5.097   6.019  12.704  0.9755  0.7683 -0.0148
 2283TIP3   OH228263   1.157   0.761   1.291 -0.4200 -0.0666 -0.0169
 2283TIP3    H128264   1.063   0.747   1.293 -0.4041  0.0258  1.6131
 2283TIP3    H228265   1.168   0.846   1.248 -1.0783  0.0136 -0.0293
 2284TIP3   OH228266   5.101   3.135   2.892  0.0339  0.3079  0.2050
 2284TIP3    H128267   5.094   3.097   2.804 -0.6919  1.3876 -0.2131
 2284TIP3    H228268   5.168   3.082   2.935  0.2372 -0.3803 -0.9186
 2285TIP3   OH228269   4.378   1.795   0.766 -0.3533  0.0423  0.0039
 2285TIP3    H128270   4.344   1.848   0.838 -0.5411  0.2901 -0.2665
 2285TIP3    H228271   4.305   1.739   0.741  0.2896 -1.3880  1.2585
 2286TIP3   OH228272   4.079   1.891   1.287 -0.3279 -0.7705  0.0208
 2286TIP3    H128273   4.146   1.853   1.344  0.7940  0.4922 -0.4057
 2286TIP3    H228274   4.040   1.961   1.340  1.7091  1.3714 -1.1732
 2287TIP3   OH228275   1.884   0.646  16.764  0.1236  0.1483 -0.3779
 2287TIP3    H128276   1.802   0.603  16.738 -0.2010  0.4973  0.0702
 2287TIP3    H228277   1.884   0.643  16.859  0.1628  1.0222 -0.3434
 2288TIP3   OH228278   3.268   5.654  11.939 -0.1163  0.1424 -0.4579
 2288TIP3    H128279   3.182   5.683  11.906 -0.2210 -1.6848 -1.8647
 2288TIP3    H228280   3.289   5.578  11.885  0.5812 -1.8467  2.5397
 2289TIP3   OH228281   1.245   1.136   4.597  0.2032 -0.2762  0.4843
 2289TIP3    H128282   1.307   1.065   4.613 -0.5378 -0.6903  1.5691
 2289TIP3    H228283   1.269   1.204   4.660  1.1417  0.6095 -0.7886
 2290TIP3   OH228284   0.358   1.168  11.492  0.3666  0.6322 -0.0895
 2290TIP3    H128285   0.336   1.098  11.430  1.3927 -0.3981  0.6656
 2290TIP3    H228286   0.275   1.211  11.512 -0.4257 -0.9745  0.1299
 2291TIP3   OH228287   3.982   5.905   3.340 -0.4977  0.0167 -0.5754
 2291TIP3    H128288   3.953   5.976   3.397 -0.5289 -0.3050 -0.1906
 2291TIP3    H228289   3.907   5.887   3.283 -1.0291 -0.7474  0.3498
 2292TIP3   OH228290   5.420   5.374   2.295  0.4374  0.1912  0.6643
 2292TIP3    H128291   5.466   5.324   2.363  0.8659 -3.4772 -2.1763
 2292TIP3    H228292   5.329   5.346   2.303  0.2297  0.8780  0.6895
 2293TIP3   OH228293   2.390   3.704  16.299 -0.0156 -0.7495  0.4135
 2293TIP3    H128294   2.359   3.614  16.306 -0.5676 -0.4989  1.4137
 2293TIP3    H228295   2.378   3.740  16.387  1.0787  0.0198  0.2630
 2294TIP3   OH228296   6.673   0.205  11.933  0.1244  0.0581  0.2809
 2294TIP3    H128297   6.767   0.214  11.944  0.2943  2.5967 -2.4630
 2294TIP3    H228298   6.640   0.295  11.933 -2.5839 -0.8385  2.9693
 2295TIP3   OH228299   4.596   3.604  16.657  0.1627  0.0697 -0.3966
 2295TIP3    H128300   4.588   3.693  16.690 -0.3859 -0.3200  0.5623
 2295TIP3    H228301   4.523   3.595  16.595 -0.1413  0.0924 -0.0408
 2296TIP3   OH228302   4.776   1.523  13.397  0.3104  0.2523 -0.3164
 2296TIP3    H128303   4.754   1.458  13.330 -0.5921  1.0986 -0.8572
 2296TIP3    H228304   4.831   1.587  13.351  0.7179  0.1862  0.0697
 2297TIP3   OH228305   5.080   0.923  14.403  0.7274 -0.1791  0.2277
 2297TIP3    H128306   5.173   0.935  14.384  0.7711  1.1390  1.2087
 2297TIP3    H228307   5.040   1.006  14.377 -0.0568 -0.4546  0.5485
 2298TIP3   OH228308   4.817   3.467  11.818 -0.4702 -0.1344  1.0792
 2298TIP3    H128309   4.868   3.509  11.749 -1.1340 -2.9232 -1.2135
 2298TIP3    H228310   4.882   3.426  11.875  0.0074 -0.1883  0.4964
 2299TIP3   OH228311   5.587   2.635  10.729  0.2591 -0.4095  0.0756
 2299TIP3    H128312   5.529   2.568  10.694  0.6080 -1.0406  0.6984
 2299TIP3    H228313   5.528   2.706  10.756  0.0465  0.5293 -2.6914
 2300TIP3   OH228314   4.791   1.034  14.923 -0.3082 -0.0942 -0.4699
 2300TIP3    H128315   4.799   0.939  14.920 -2.0119 -0.2425 -0.9378
 2300TIP3    H228316   4.790   1.056  15.016  0.9747 -0.4402 -0.3668
 2301TIP3   OH228317   0.906   1.908   1.921  0.1293  0.1180  0.1815
 2301TIP3    H128318   0.952   1.989   1.899  2.0020 -0.9910 -0.0841
 2301TIP3    H228319   0.815   1.925   1.898  0.5279  2.0858 -0.0290
 2302TIP3   OH228320   1.274   1.520  15.724 -0.0612 -0.5581  0.8625
 2302TIP3    H128321   1.230   1.438  15.745 -0.3141 -0.8781 -0.8199
 2302TIP3    H228322   1.292   1.514  15.630  1.6459  0.4885  1.0987
 2303TIP3   OH228323   4.110   4.208   5.486 -0.6672  0.5616 -0.3114
 2303TIP3    H128324   4.151   4.277   5.539  0.3623 -0.2244 -0.0597
 2303TIP3    H228325   4.098   4.248   5.400  0.8065  0.7632 -0.4377
 2304TIP3   OH228326   1.492   0.188   5.357  0.0801 -0.3893 -0.1099
 2304TIP3    H128327   1.499   0.104   5.404 -1.0960 -0.3031  0.2242
 2304TIP3    H228328   1.451   0.165   5.274  1.5258 -0.4311 -0.8359
 2305TIP3   OH228329   0.238   1.967   4.666 -0.3783  0.1078 -0.1426
 2305TIP3    H128330   0.256   1.873   4.672 -1.2863 -0.0421  0.2107
 2305TIP3    H228331   0.325   2.008   4.665  0.0173 -0.7398 -0.4043
 2306TIP3   OH228332   2.581   0.379  12.883 -0.3332  0.1084 -0.2544
 2306TIP3    H128333   2.640   0.444  12.845 -2.0727  0.8951 -1.7160
 2306TIP3    H228334   2.585   0.305  12.821 -0.0080 -0.2927  0.2477
 2307TIP3   OH228335   0.885   2.335  13.602  0.0917  0.0518  0.2997
 2307TIP3    H128336   0.845   2.422  13.597 -0.0734 -0.0408  0.0356
 2307TIP3    H228337   0.891   2.305  13.512  1.3777  0.3378  0.2833
 2308TIP3   OH228338   5.346   4.899   0.570  0.0557  0.1691 -0.7108
 2308TIP3    H128339   5.399   4.949   0.632  1.8556  0.1059 -2.1594
 2308TIP3    H228340   5.374   4.808   0.583  0.4583  0.1614 -1.6170
 2309TIP3   OH228341   2.244   3.115  12.458 -0.4984 -0.1908  0.0393
 2309TIP3    H128342   2.335   3.116  12.484 -0.7861 -0.5529  1.0628
 2309TIP3    H228343   2.246   3.120  12.362  0.5678  0.3508  0.0892
 2310TIP3   OH228344   2.260   2.946   0.853  0.0466 -0.2280  0.0798
 2310TIP3    H128345   2.309   3.027   0.842 -2.5380  1.0567 -2.4734
 2310TIP3    H228346   2.323   2.877   0.833  1.3027  1.3072 -1.3692
 2311TIP3   OH228347   6.179   5.599   3.276 -0.2972  0.7516 -0.7834
 2311TIP3    H128348   6.086   5.582   3.291  0.2151  0.0769  2.0415
 2311TIP3    H228349   6.196   5.566   3.188 -2.2610 -1.1934 -0.4838
 2312TIP3   OH228350   0.494   1.265   5.769  0.0664  0.0337  0.0553
 2312TIP3    H128351   0.568   1.323   5.785  0.5101 -0.3831 -0.4563
 2312TIP3    H228352   0.503   1.196   5.835  0.5809 -0.4351 -0.4963
 2313TIP3   OH228353   2.985   1.640  10.712 -0.1197 -0.5346 -0.2464
 2313TIP3    H128354   2.908   1.625  10.657  1.2208 -0.1927 -2.2596
 2313TIP3    H228355   2.949   1.675  10.794 -2.1179 -0.7133 -1.0093
 2314TIP3   OH228356   3.365   3.457  13.040 -0.1050 -0.4102 -0.3293
 2314TIP3    H128357   3.417   3.406  13.101 -1.5914 -1.2871  0.2288
 2314TIP3    H228358   3.418   3.535  13.022  1.4164 -1.3265  0.1479
 2315TIP3   OH228359   0.814   6.185   5.474  0.2745  0.2023  0.7585
 2315TIP3    H128360   0.865   6.111   5.438 -0.0505  0.6844 -0.7294
 2315TIP3    H228361   0.877   6.234   5.527  1.1069  0.2098 -0.2239
 2316TIP3   OH228362   1.129   4.761   0.029  0.5024  0.1368 -0.5634
 2316TIP3    H128363   1.072   4.805   0.091 -0.1643  1.3088 -1.9790
 2316TIP3    H228364   1.149   4.677   0.070  0.0064  0.8522  1.1736
 2317TIP3   OH228365   4.306   3.509  13.911 -0.1729 -0.3819  0.1915
 2317TIP3    H128366   4.345   3.422  13.901 -1.7348 -1.1090  0.3344
 2317TIP3    H228367   4.381   3.568  13.922  0.9271 -1.6170 -0.5354
 2318TIP3   OH228368   1.445   1.760  14.806  0.2410  0.1422  0.4257
 2318TIP3    H128369   1.416   1.708  14.881  0.1735 -1.2274 -0.5154
 2318TIP3    H228370   1.386   1.835  14.803 -0.6357 -0.5237  0.9073
 2319TIP3   OH228371   3.466   2.165   1.260  0.2906  0.1233 -0.3237
 2319TIP3    H128372   3.483   2.228   1.330  0.8857 -0.3324 -0.0543
 2319TIP3    H228373   3.479   2.214   1.180  2.4717 -0.0858 -0.1247
 2320TIP3   OH228374   6.076   2.624   2.937  0.3591  0.0245 -0.4820
 2320TIP3    H128375   5.994   2.615   2.889 -0.3940 -0.5311  0.8992
 2320TIP3    H228376   6.138   2.569   2.888 -0.4930 -0.8212 -0.6301
 2321TIP3   OH228377   1.417   5.659   5.189 -0.1563  0.5237  0.1203
 2321TIP3    H128378   1.445   5.629   5.103 -1.8030  0.3446 -0.3545
 2321TIP3    H228379   1.404   5.579   5.239 -3.1054  0.4468 -0.6977
 2322TIP3   OH228380   4.453   4.370   5.840 -0.3355  0.0839  0.4128
 2322TIP3    H128381   4.460   4.285   5.884 -3.1215 -0.5007 -0.1769
 2322TIP3    H228382   4.513   4.427   5.889  2.1270 -2.3513  0.3741
 2323TIP3   OH228383   3.696   3.329  11.473  0.4077 -0.4215 -0.1691
 2323TIP3    H128384   3.748   3.304  11.396  3.3881 -2.3127  2.3327
 2323TIP3    H228385   3.755   3.384  11.525 -1.9772  1.8063  0.2478
 2324TIP3   OH228386   2.444   4.650  16.407  0.0909 -0.2458  0.9895
 2324TIP3    H128387   2.493   4.690  16.480  1.6728 -0.0826 -0.1310
 2324TIP3    H228388   2.428   4.560  16.436 -0.6050  0.2398  2.1500
 2325TIP3   OH228389   6.007   4.764   2.926 -0.4638 -0.3453 -0.0513
 2325TIP3    H128390   5.998   4.749   2.832  0.9754  0.8359 -0.4030
 2325TIP3    H228391   5.929   4.724   2.965 -3.3874  3.0412 -2.1563
 2326TIP3   OH228392   3.684   1.115   4.598  0.2821 -0.1453  0.2759
 2326TIP3    H128393   3.625   1.121   4.522 -2.7435  0.4398  2.5869
 2326TIP3    H228394   3.702   1.022   4.607 -1.2821 -0.4499  0.2845
 2327TIP3   OH228395   0.406   6.579   6.579 -0.7644  0.2044 -0.4809
 2327TIP3    H128396   0.395   6.484   6.578  1.0357 -0.0285 -0.2044
 2327TIP3    H228397   0.500   6.592   6.564 -0.6113  1.8447  1.6466
 2328TIP3   OH228398   6.466   5.265  14.722 -0.2694 -0.0307 -0.1930
 2328TIP3    H128399   6.419   5.182  14.724 -0.7627  0.2500 -0.1812
 2328TIP3    H228400   6.549   5.244  14.679 -0.3124 -0.5696 -0.0167
 2329TIP3   OH228401   1.713   4.164   1.649 -0.3641 -0.5293  0.0777
 2329TIP3    H128402   1.672   4.078   1.639 -2.0463  0.0880  1.3693
 2329TIP3    H228403   1.713   4.201   1.561  0.1226 -1.7337 -0.4381
 2330TIP3   OH228404   0.414   4.050  14.509  0.2863 -0.1913  0.2818
 2330TIP3    H128405   0.510   4.054  14.516  0.1548  0.9375  1.4353
 2330TIP3    H228406   0.387   4.141  14.496 -0.7860 -0.2495  1.9940
 2331TIP3   OH228407   2.501   4.761  14.169 -0.1351 -0.0758  0.3801
 2331TIP3    H128408   2.592   4.732  14.178 -0.0389  0.2309  0.4087
 2331TIP3    H228409   2.487   4.767  14.075  0.2240  0.9581  0.3878
 2332TIP3   OH228410   5.566   6.428  11.431  0.3474 -0.0802 -0.1670
 2332TIP3    H128411   5.471   6.436  11.430  0.0487 -2.8728  0.2861
 2332TIP3    H228412   5.597   6.506  11.477 -1.6775  1.0099 -0.6006
 2333TIP3   OH228413   6.113   0.543   0.660  0.1837  0.2485  0.0492
 2333TIP3    H128414   6.193   0.577   0.621 -0.2023  0.1838 -0.8075
 2333TIP3    H228415   6.055   0.620   0.667 -0.3351 -0.0375 -0.9976
 2334TIP3   OH228416   1.718   4.371  11.608 -0.4636 -0.6384 -0.2088
 2334TIP3    H128417   1.691   4.328  11.527  0.1471 -1.2713 -0.0866
 2334TIP3    H228418   1.791   4.427  11.581 -1.6031  0.7525 -0.4653
 2335TIP3   OH228419   2.736   5.536  12.368 -0.4815 -0.0131 -0.7353
 2335TIP3    H128420   2.659   5.592  12.360 -0.4164 -0.0606 -1.7531
 2335TIP3    H228421   2.801   5.577  12.312  0.3063  0.1310  0.2747
 2336TIP3   OH228422   4.400   0.013   0.759  0.1834 -0.0404  0.0120
 2336TIP3    H128423   4.415   0.106   0.773 -0.5901  0.4154 -2.0163
 2336TIP3    H228424   4.315   0.008   0.716  0.2992 -1.6737 -0.0888
 2337TIP3   OH228425   6.552   6.741   5.949 -0.2422  0.6624  0.2383
 2337TIP3    H128426   6.510   6.719   6.031 -0.4994  1.0786  0.2211
 2337TIP3    H228427   6.615   6.810   5.972 -0.5370  1.0018  0.0345
 2338TIP3   OH228428   3.613   5.961   1.402  0.1685 -0.1279 -0.1992
 2338TIP3    H128429   3.653   5.986   1.319 -0.8101  1.1451 -0.3090
 2338TIP3    H228430   3.621   6.039   1.457  0.1687 -0.7249  0.6488
 2339TIP3   OH228431   0.837   4.454  14.023  0.3199  0.3182 -0.2733
 2339TIP3    H128432   0.903   4.465  13.955 -0.4915  3.1251 -0.6965
 2339TIP3    H228433   0.883   4.411  14.095  1.6874 -0.8947 -1.8384
 2340TIP3   OH228434   3.574   2.547  13.894 -0.3032 -0.0517  1.0964
 2340TIP3    H128435   3.486   2.528  13.928  0.4318 -1.0915  2.5202
 2340TIP3    H228436   3.601   2.626  13.941 -0.6381  0.5149  0.3420
 2341TIP3   OH228437   3.613   4.924  15.205  0.2131 -0.5087 -0.2334
 2341TIP3    H128438   3.614   5.011  15.164 -0.8842 -0.5949 -0.4708
 2341TIP3    H228439   3.546   4.931  15.273  0.7960 -0.8856  0.3767
 2342TIP3   OH228440   5.114   5.325   4.889  0.9588 -0.0424 -0.2365
 2342TIP3    H128441   5.190   5.383   4.890  0.9034  0.0210  0.2397
 2342TIP3    H228442   5.063   5.350   4.966  0.0871  0.4060 -0.9506
 2343TIP3   OH228443   2.066   0.421   3.406 -0.0501 -0.0428  0.8013
 2343TIP3    H128444   2.090   0.415   3.499  0.6638 -0.2462  0.6096
 2343TIP3    H228445   2.104   0.343   3.367  1.6095  1.1740 -0.0810
 2344TIP3   OH228446   0.204   3.649  14.142  0.3873 -0.4094  0.9803
 2344TIP3    H128447   0.272   3.693  14.090 -0.4614  0.4084  0.5476
 2344TIP3    H228448   0.234   3.656  14.232 -0.2686  2.0634  1.0425
 2345TIP3   OH228449   5.361   5.714  15.070  0.5477  0.0235 -0.0038
 2345TIP3    H128450   5.395   5.794  15.110 -0.2359  0.2920  0.1236
 2345TIP3    H228451   5.345   5.656  15.145  0.3583  0.0382 -0.0326
 2346TIP3   OH228452   1.902   1.388  15.915  0.4870 -0.1425 -0.4780
 2346TIP3    H128453   1.823   1.333  15.915  0.7929 -0.5929 -1.4336
 2346TIP3    H228454   1.902   1.430  15.829  1.3140 -0.1825 -0.5018
 2347TIP3   OH228455   5.618   6.658  11.973  0.0075 -0.0502 -0.0035
 2347TIP3    H128456   5.553   6.603  11.929  0.3231  0.3322 -0.9710
 2347TIP3    H228457   5.640   6.610  12.053 -1.5241 -0.1254  0.3793
 2348TIP3   OH228458   5.783   0.951   4.257  0.7834  0.7050  0.0349
 2348TIP3    H128459   5.798   0.914   4.344  0.2162 -1.3336 -0.7054
 2348TIP3    H228460   5.691   0.977   4.258  0.3058 -0.9246 -0.5200
 2349TIP3   OH228461   0.208   2.421   5.148  0.3227  0.2223  0.2276
 2349TIP3    H128462   0.141   2.423   5.080 -0.2729  0.0687  0.8126
 2349TIP3    H228463   0.201   2.506   5.191  0.1628  0.0136  0.6163
 2350TIP3   OH228464   0.873   2.494   4.392  0.1702 -0.2027 -0.6246
 2350TIP3    H128465   0.879   2.513   4.485 -0.0033  4.2917 -1.4270
 2350TIP3    H228466   0.790   2.447   4.382 -0.5905  0.6943  1.2917
 2351TIP3   OH228467   4.223   6.744   5.159  0.5244  0.0172 -0.3528
 2351TIP3    H128468   4.267   6.759   5.075 -0.6391 -0.1138 -0.9894
 2351TIP3    H228469   4.174   6.825   5.175  1.9993  0.6679  0.9891
 2352TIP3   OH228470   3.183   4.541  17.201 -0.4273 -0.2809 -0.4369
 2352TIP3    H128471   3.109   4.482  17.191  0.1474 -1.1050  0.1064
 2352TIP3    H228472   3.259   4.483  17.209  0.5699  0.5557 -3.1736
 2353TIP3   OH228473   6.124   4.268  14.853  0.0061 -0.2574 -0.2105
 2353TIP3    H128474   6.191   4.320  14.809  0.5925 -1.1923 -0.4381
 2353TIP3    H228475   6.106   4.195  14.794 -0.1800 -0.7838  0.4774
 2354TIP3   OH228476   0.044   3.193  14.583 -0.0464 -0.2530  0.4509
 2354TIP3    H128477   0.093   3.271  14.556 -1.0637  0.0169 -0.6197
 2354TIP3    H228478  -0.005   3.222  14.660 -3.4079  1.3402 -2.1358
 2355TIP3   OH228479   1.514   2.423  14.508  0.5160  0.1934  0.5282
 2355TIP3    H128480   1.551   2.362  14.444 -0.3515  1.2875 -1.0405
 2355TIP3    H228481   1.425   2.440  14.477  0.5645  1.8537  1.2360
 2356TIP3   OH228482   5.071   0.368   1.995  0.2369 -0.3123 -0.2250
 2356TIP3    H128483   5.051   0.300   1.930  0.5282 -0.3052 -0.3225
 2356TIP3    H228484   5.158   0.346   2.027 -0.5667 -1.2594  1.3610
 2357TIP3   OH228485   5.701   6.024   5.393  0.1965 -0.3014 -0.0055
 2357TIP3    H128486   5.647   6.099   5.368 -0.3772 -1.7399 -3.2515
 2357TIP3    H228487   5.791   6.052   5.375  0.1665  0.2712  0.6682
 2358TIP3   OH228488   4.888   5.512   2.353 -0.3186 -0.1504  0.3587
 2358TIP3    H128489   4.924   5.578   2.411 -2.2358  2.0024 -0.8231
 2358TIP3    H228490   4.796   5.535   2.344 -0.8264 -2.4489 -0.8130
 2359TIP3   OH228491   2.628   4.113   5.378  0.2471 -0.1888 -0.4760
 2359TIP3    H128492   2.639   4.023   5.349  0.6776  0.7115 -3.2968
 2359TIP3    H228493   2.712   4.155   5.361 -0.0119  0.7848  0.5899
 2360TIP3   OH228494   6.706   3.960   4.117  0.7857 -0.1484 -0.3080
 2360TIP3    H128495   6.631   3.904   4.099 -0.1954  1.0140  0.0933
 2360TIP3    H228496   6.730   3.996   4.032 -0.4005  1.0659 -0.1400
 2361TIP3   OH228497   3.232   0.576  12.374  1.0308  0.5018 -0.3398
 2361TIP3    H128498   3.224   0.530  12.458  1.4725  1.2460  0.1220
 2361TIP3    H228499   3.287   0.518  12.321  1.6503  0.5204  0.2639
 2362TIP3   OH228500   6.561   0.341   3.859  0.3623 -0.2627  0.2388
 2362TIP3    H128501   6.512   0.357   3.939  0.7761  0.4223  0.3570
 2362TIP3    H228502   6.561   0.424   3.813  1.1227 -0.3382  0.0858
 2363TIP3   OH228503   5.727   2.108   1.716  0.4180 -0.2926  0.3597
 2363TIP3    H128504   5.785   2.171   1.674 -0.5100  1.0751  1.1008
 2363TIP3    H228505   5.657   2.093   1.652  0.7306 -0.7276  0.1125
 2364TIP3   OH228506   3.609   2.513  11.065  0.0945 -0.1783  0.0406
 2364TIP3    H128507   3.671   2.525  10.993 -0.7217 -0.1694 -0.6721
 2364TIP3    H228508   3.662   2.482  11.138  0.7154 -1.5199 -0.9715
 2365TIP3   OH228509   4.718   6.001   1.820 -0.3309  0.3088  0.6623
 2365TIP3    H128510   4.673   5.926   1.781 -2.3283  1.8336 -0.0534
 2365TIP3    H228511   4.711   6.070   1.755  0.4855  1.4801  1.7823
 2366TIP3   OH228512   6.036   0.195  17.045  0.1255  0.1995  0.4415
 2366TIP3    H128513   6.060   0.161  16.959 -1.6458 -1.2669  0.5007
 2366TIP3    H228514   6.076   0.282  17.048 -0.6917  0.7298 -2.3059
 2367TIP3   OH228515   1.369   2.798  15.063 -0.2322  0.0889 -0.3960
 2367TIP3    H128516   1.463   2.806  15.075 -0.3867 -0.3292  1.2482
 2367TIP3    H228517   1.334   2.786  15.152 -1.7304 -0.7328 -1.0665
 2368TIP3   OH228518   2.208   5.305   3.767 -0.2479 -0.0284  0.0558
 2368TIP3    H128519   2.256   5.260   3.837 -0.1421  2.2482  1.5069
 2368TIP3    H228520   2.266   5.300   3.691  0.2451 -1.3304  0.5052
 2369TIP3   OH228521   2.981   4.651  15.126  0.3492 -0.1793  0.2376
 2369TIP3    H128522   3.015   4.728  15.172 -0.6504  0.1168  0.5008
 2369TIP3    H228523   2.957   4.590  15.195  0.8981 -0.6195  0.0356
 2370TIP3   OH228524   1.055   5.771   0.825  0.0581  0.4205 -0.5079
 2370TIP3    H128525   1.124   5.785   0.891 -0.0484 -2.6966  0.3236
 2370TIP3    H228526   0.975   5.804   0.867  0.5967  1.7577 -0.5054
 2371TIP3   OH228527   1.318   6.430  13.121 -0.1294  0.1595  0.7272
 2371TIP3    H128528   1.382   6.501  13.124 -0.3202  0.3129  1.4863
 2371TIP3    H228529   1.236   6.471  13.150 -1.0047  0.4068 -1.9844
 2372TIP3   OH228530   3.227   0.174   4.393  0.2001  0.1670  0.2007
 2372TIP3    H128531   3.269   0.112   4.333  1.8174 -0.2831  1.7620
 2372TIP3    H228532   3.143   0.135   4.414 -1.0688  1.0517 -2.9433
 2373TIP3   OH228533   0.058   0.162   5.052  0.0587  0.2507 -0.4977
 2373TIP3    H128534  -0.022   0.112   5.069  1.0195 -1.1348  0.1088
 2373TIP3    H228535   0.041   0.207   4.970 -0.7649 -1.2790 -1.1953
 2374TIP3   OH228536   5.655   1.464  16.632  0.2591 -0.1132  0.1672
 2374TIP3    H128537   5.666   1.520  16.709  1.5958 -1.3179  0.8860
 2374TIP3    H228538   5.607   1.518  16.570 -0.3093  1.1009  1.6175
 2375TIP3   OH228539   0.360   3.884  13.651 -0.2299  0.4548  0.7475
 2375TIP3    H128540   0.373   3.952  13.717  2.4755 -1.3974  2.2264
 2375TIP3    H228541   0.385   3.803  13.695 -1.4500 -1.2553 -1.5933
 2376TIP3   OH228542   5.367   2.959  11.395  0.0793  0.1395  0.8681
 2376TIP3    H128543   5.430   2.944  11.465  0.9123  1.0043  0.3196
 2376TIP3    H228544   5.396   2.901  11.324 -0.2812 -0.1343  0.9436
 2377TIP3   OH228545   3.853   1.161  15.464  0.2377 -0.0646  0.0628
 2377TIP3    H128546   3.763   1.195  15.457  0.5831  0.3502 -2.5830
 2377TIP3    H228547   3.905   1.237  15.489  0.4332  0.5844 -2.2331
 2378TIP3   OH228548   2.950   4.761  10.974  0.1556 -0.1755  0.1376
 2378TIP3    H128549   2.968   4.671  10.950 -0.4495 -0.2385 -0.0834
 2378TIP3    H228550   2.859   4.776  10.948 -0.3419 -0.0769  1.8601
 2379TIP3   OH228551   3.914   4.561  13.923  0.4858 -0.3538  0.2631
 2379TIP3    H128552   3.864   4.479  13.934 -0.5279 -0.1783 -2.7077
 2379TIP3    H228553   3.860   4.628  13.965  0.5849 -0.9438  1.3513
 2380TIP3   OH228554   6.720   5.659   3.543  0.1859  0.6561  0.3636
 2380TIP3    H128555   6.629   5.639   3.561  0.4765 -0.2136  0.9004
 2380TIP3    H228556   6.767   5.631   3.622  1.0130  0.3832 -0.2190
 2381TIP3   OH228557   5.010   2.335  13.365  0.3460  0.0827 -0.2629
 2381TIP3    H128558   4.994   2.272  13.296  4.4562 -0.2723 -1.0168
 2381TIP3    H228559   5.013   2.283  13.445  1.7323 -0.3955 -0.6224
 2382TIP3   OH228560   2.813   0.799  16.958 -0.1271  0.1623  0.0864
 2382TIP3    H128561   2.813   0.802  17.053 -0.3501  0.0429  0.0935
 2382TIP3    H228562   2.725   0.828  16.933  0.3476  1.4581 -0.1243
 2383TIP3   OH228563   5.177   3.099   5.178  0.1950  0.1185  0.4310
 2383TIP3    H128564   5.219   3.014   5.195 -0.5723 -0.0220  1.6856
 2383TIP3    H228565   5.089   3.076   5.147  0.4601  0.4401 -0.5730
 2384TIP3   OH228566   3.642   6.270  16.468 -0.2201 -0.0264 -0.0333
 2384TIP3    H128567   3.674   6.194  16.421  1.1044 -0.1794  1.0945
 2384TIP3    H228568   3.549   6.274  16.446  0.3151 -0.2269 -2.4289
 2385TIP3   OH228569   5.345   6.649  11.378 -0.3468 -0.0781  0.0753
 2385TIP3    H128570   5.419   6.663  11.437  0.3313  0.7593 -0.9543
 2385TIP3    H228571   5.280   6.713  11.404 -0.1480  0.1223  0.0772
 2386TIP3   OH228572   0.871   0.292   0.155 -0.4818 -0.4201 -0.1944
 2386TIP3    H128573   0.790   0.338   0.135 -0.9020 -0.8958  0.3866
 2386TIP3    H228574   0.893   0.319   0.244  0.4247  0.3203 -0.6321
 2387TIP3   OH228575   3.626   6.537  15.749 -0.0338  0.3500  0.3807
 2387TIP3    H128576   3.682   6.541  15.826  0.1500 -2.1938  0.4041
 2387TIP3    H228577   3.537   6.538  15.784  0.0504 -0.8783  0.6260
 2388TIP3   OH228578   0.051   6.377  11.805 -0.2399 -0.3605  0.1015
 2388TIP3    H128579  -0.002   6.428  11.743 -1.1992 -0.8268  0.5341
 2388TIP3    H228580   0.091   6.309  11.751  0.5590  0.4624 -0.3666
 2389TIP3   OH228581   4.160   4.373   2.179 -0.2037 -0.4132 -0.0854
 2389TIP3    H128582   4.123   4.432   2.113 -3.6611 -1.7467  0.5802
 2389TIP3    H228583   4.164   4.427   2.258 -0.2009 -0.1379 -0.2690
 2390TIP3   OH228584   5.940   2.703  16.328  0.2073  0.6337  0.5660
 2390TIP3    H128585   5.940   2.788  16.285 -0.1302  0.4730  0.2452
 2390TIP3    H228586   5.857   2.663  16.302  1.0047 -0.3977 -0.4778
 2391TIP3   OH228587   4.332   2.279  16.012  0.4670 -0.0605  0.4486
 2391TIP3    H128588   4.283   2.341  15.958 -2.4984 -2.5082  0.2070
 2391TIP3    H228589   4.308   2.300  16.102  0.1407 -0.2994  0.4181
 2392TIP3   OH228590   0.717   0.958   5.083  0.4066  0.4404 -0.2093
 2392TIP3    H128591   0.766   0.944   5.164  0.3365 -0.6207 -0.3474
 2392TIP3    H228592   0.676   1.044   5.095  0.5695  0.3896  0.7926
 2393TIP3   OH228593   0.090   2.136  11.896  0.1144 -0.0460  0.1370
 2393TIP3    H128594   0.008   2.184  11.887 -0.1404 -0.4517  0.2645
 2393TIP3    H228595   0.153   2.186  11.844 -0.4450 -0.2790 -0.7744
 2394TIP3   OH228596   4.860   5.739   1.564 -0.2851 -0.3178  0.4620
 2394TIP3    H128597   4.947   5.772   1.541 -1.0071 -0.3476 -2.4289
 2394TIP3    H228598   4.844   5.775   1.652  1.9241  1.0721  0.3381
 2395TIP3   OH228599   0.954   0.691   4.510  0.1106  0.4126 -0.5484
 2395TIP3    H128600   0.990   0.774   4.479  0.4030  1.5308  2.5559
 2395TIP3    H228601   1.027   0.646   4.552 -0.8099  0.1896  0.8790
 2396TIP3   OH228602   0.659   3.466   3.072  0.0863  0.6674  0.3532
 2396TIP3    H128603   0.606   3.387   3.076  0.6300  0.2233 -0.9885
 2396TIP3    H228604   0.733   3.448   3.130  0.8631 -0.3160 -0.9257
 2397TIP3   OH228605   0.542   0.235  13.448 -0.1710  0.5296  0.2659
 2397TIP3    H128606   0.589   0.273  13.523 -0.8188  0.3832  0.7479
 2397TIP3    H228607   0.449   0.246  13.470 -0.3686 -0.9168  0.1982
 2398TIP3   OH228608   3.978   3.254  11.357  0.1441  0.1111  0.6790
 2398TIP3    H128609   4.071   3.237  11.341 -0.0847 -0.4868 -0.0195
 2398TIP3    H228610   3.964   3.344  11.328  0.2206 -0.2339 -0.4488
 2399TIP3   OH228611   1.213   2.622  16.185  0.4285  0.8790 -0.1209
 2399TIP3    H128612   1.296   2.604  16.229  0.2650 -1.2272 -0.6612
 2399TIP3    H228613   1.148   2.621  16.254  0.8776  2.9429  0.3656
 2400TIP3   OH228614   4.240   3.581   5.384 -0.2538  0.5554  0.6082
 2400TIP3    H128615   4.172   3.623   5.437 -0.0612  2.4189 -0.5555
 2400TIP3    H228616   4.318   3.634   5.401  0.6234 -0.8526  1.0133
 2401TIP3   OH228617   0.606   2.276   0.537  0.1943 -0.2830  0.3276
 2401TIP3    H128618   0.641   2.192   0.507  3.2975  1.4882 -1.3790
 2401TIP3    H228619   0.674   2.311   0.594 -1.7252  0.4479  2.2277
 2402TIP3   OH228620   4.667   0.410   1.548  0.3666 -0.6864  0.1170
 2402TIP3    H128621   4.736   0.369   1.496 -0.2582 -5.4857  2.7566
 2402TIP3    H228622   4.712   0.473   1.603  2.1508 -1.3516 -0.5590
 2403TIP3   OH228623   6.125   5.514   2.230 -0.6992  1.1656  0.3328
 2403TIP3    H128624   6.154   5.475   2.312 -1.9117 -1.1196 -0.2746
 2403TIP3    H228625   6.038   5.548   2.248  0.2538  3.4627  0.7884
 2404TIP3   OH228626   1.211   3.001  16.006 -0.3339  0.2292 -0.1530
 2404TIP3    H128627   1.305   3.009  15.988 -0.0474  0.0489  1.2176
 2404TIP3    H228628   1.169   3.061  15.944  0.6153 -0.4105 -1.4251
 2405TIP3   OH228629   1.480   5.295   3.576  0.2856 -0.7453  0.1291
 2405TIP3    H128630   1.527   5.281   3.658 -1.4009  0.5527  1.3743
 2405TIP3    H228631   1.547   5.320   3.513  1.3926  0.0862  1.6120
 2406TIP3   OH228632   2.877   6.058  13.021 -0.4458  0.2579  0.1288
 2406TIP3    H128633   2.794   6.033  12.982  0.3256  0.9088 -1.9928
 2406TIP3    H228634   2.871   6.028  13.112 -2.4700 -0.8466 -0.3474
 2407TIP3   OH228635   2.311   5.266  13.887  0.0144 -0.2566 -0.2085
 2407TIP3    H128636   2.254   5.209  13.837 -1.8555  2.5271 -1.3824
 2407TIP3    H228637   2.256   5.299  13.958  0.4398  1.6200 -0.7183
 2408TIP3   OH228638   5.420   1.569   5.753 -0.2554 -0.2204  0.1631
 2408TIP3    H128639   5.390   1.636   5.692 -0.2117 -0.0711  0.3050
 2408TIP3    H228640   5.515   1.569   5.744 -0.3723 -1.7372 -1.3874
 2409TIP3   OH228641   4.117   1.136  14.111 -0.2551  0.4508 -0.2898
 2409TIP3    H128642   4.173   1.213  14.096 -0.4900  0.8134  0.6764
 2409TIP3    H228643   4.136   1.110  14.201 -0.1466 -0.6599 -0.6273
 2410TIP3   OH228644   3.134   4.533  11.355 -0.7152 -0.3394 -0.0588
 2410TIP3    H128645   3.187   4.459  11.328  0.1363  0.9310 -1.9812
 2410TIP3    H228646   3.054   4.527  11.301 -0.2328  0.6410 -0.9001
 2411TIP3   OH228647   2.751   0.934  14.376  0.4110  0.0121 -0.1488
 2411TIP3    H128648   2.824   0.900  14.428 -0.3339  0.7139  1.3691
 2411TIP3    H228649   2.682   0.954  14.440 -0.5554  0.8119 -1.4065
 2412TIP3   OH228650   5.262   5.251  10.676  0.5797  0.5508 -0.0052
 2412TIP3    H128651   5.315   5.226  10.751  0.0740  0.3258  0.2788
 2412TIP3    H228652   5.315   5.315  10.629  1.6302 -0.5678 -0.3819
 2413TIP3   OH228653   6.263   1.032   1.481 -0.4475  1.2196  0.3585
 2413TIP3    H128654   6.278   1.112   1.530  2.8129  1.5610 -1.0631
 2413TIP3    H228655   6.335   0.974   1.506 -1.6105 -0.5062 -0.1689
 2414TIP3   OH228656   6.193   2.881   2.714  0.2058 -0.1907 -0.4084
 2414TIP3    H128657   6.179   2.787   2.705  3.2647 -0.7445  0.0571
 2414TIP3    H228658   6.275   2.897   2.666 -0.1377  2.1917 -0.2468
 2415TIP3   OH228659   0.899   6.173  15.858  0.2649  0.3342 -0.2430
 2415TIP3    H128660   0.881   6.267  15.865  1.1362  0.6544 -1.9039
 2415TIP3    H228661   0.839   6.142  15.790 -0.7053 -0.5176  0.9870
 2416TIP3   OH228662   4.169   2.084  13.892 -0.0911 -0.5285 -0.1317
 2416TIP3    H128663   4.213   2.014  13.940  2.6284  0.9131 -0.4109
 2416TIP3    H228664   4.164   2.157  13.954 -1.4879 -0.4239 -0.3417
 2417TIP3   OH228665   0.965   2.061  13.123 -0.1813  0.0221 -0.2978
 2417TIP3    H128666   0.937   1.970  13.119  1.5551 -0.5784  0.8854
 2417TIP3    H228667   0.978   2.086  13.031  0.3890 -1.2527 -0.5712
 2418TIP3   OH228668   2.612   5.236  10.411 -0.0599  0.2257  0.7237
 2418TIP3    H128669   2.612   5.311  10.351 -0.0591  1.1197  1.8363
 2418TIP3    H228670   2.670   5.261  10.482  0.8624 -1.3105  0.5316
 2419TIP3   OH228671   2.881   1.994   6.628  0.0906  0.0783  0.5305
 2419TIP3    H128672   2.863   1.910   6.587  1.0597 -0.0579  0.3728
 2419TIP3    H228673   2.814   2.003   6.697 -0.1689 -0.6914  0.3742
 2420TIP3   OH228674   1.594   4.691  14.259  0.3422 -0.2762  0.2415
 2420TIP3    H128675   1.611   4.631  14.186 -0.7077 -0.4571  0.1359
 2420TIP3    H228676   1.654   4.662  14.328  0.4366 -0.9183 -0.1040
 2421TIP3   OH228677   1.601   1.874  14.080  0.6971 -0.0842 -0.2708
 2421TIP3    H128678   1.628   1.964  14.062  1.1451 -0.2113 -0.2329
 2421TIP3    H228679   1.657   1.846  14.152  0.9151 -0.5677 -0.6249
 2422TIP3   OH228680   6.681   3.863  11.406  0.1775  0.1669  0.2481
 2422TIP3    H128681   6.613   3.826  11.463 -0.8495 -0.3032 -1.2602
 2422TIP3    H228682   6.635   3.926  11.351  0.5724 -1.4050 -1.9938
 2423TIP3   OH228683   4.616   5.727   1.172 -0.7746  0.2786 -0.7027
 2423TIP3    H128684   4.595   5.699   1.083  0.8049 -0.0577 -0.9900
 2423TIP3    H228685   4.702   5.689   1.189 -1.2215  0.0209  1.1194
 2424TIP3   OH228686   2.496   2.585   1.831  0.2337  0.1567 -0.7665
 2424TIP3    H128687   2.565   2.570   1.895 -1.5979  1.5722  1.5900
 2424TIP3    H228688   2.506   2.677   1.807 -1.4555  0.6546  0.3734
 2425TIP3   OH228689   1.267   3.749   5.185  0.2465  0.1577  0.3686
 2425TIP3    H128690   1.352   3.790   5.199  0.1460  0.5915 -0.2870
 2425TIP3    H228691   1.204   3.808   5.225  0.1263  0.5068 -0.3406
 2426TIP3   OH228692   5.265   3.105  12.998 -0.0858 -0.2971  0.8411
 2426TIP3    H128693   5.305   3.174  12.945 -0.0205 -0.6490  0.4297
 2426TIP3    H228694   5.252   3.032  12.938  1.8886 -1.4433  1.7322
 2427TIP3   OH228695   2.387   0.407   3.907  0.4704 -0.1401 -0.2577
 2427TIP3    H128696   2.408   0.418   3.814  0.8204 -1.1854 -0.3073
 2427TIP3    H228697   2.398   0.314   3.923 -1.2301 -0.2336  0.4536
 2428TIP3   OH228698   6.021   4.655  14.617  0.1704 -0.8451  0.0240
 2428TIP3    H128699   6.042   4.607  14.537  0.9385  0.6386 -0.6877
 2428TIP3    H228700   6.048   4.745  14.598 -0.6989 -0.2601  1.5468
 2429TIP3   OH228701   0.391   3.825   1.609  0.5904  0.4403 -0.2822
 2429TIP3    H128702   0.322   3.862   1.555  0.2179 -0.3520 -0.3551
 2429TIP3    H228703   0.442   3.771   1.549 -0.7588 -1.7049  0.4531
 2430TIP3   OH228704   4.956   0.253   4.727 -0.5170  0.3998 -0.0362
 2430TIP3    H128705   4.921   0.170   4.760  1.5400 -0.4267  0.1296
 2430TIP3    H228706   5.051   0.241   4.728 -0.2026  2.6875 -0.2167
 2431TIP3   OH228707   1.491   1.652   1.321  0.0974  0.0675  0.1095
 2431TIP3    H128708   1.407   1.678   1.284  0.2592  0.4783  0.0303
 2431TIP3    H228709   1.468   1.610   1.404 -0.2805 -1.0366 -0.5403
 2432TIP3   OH228710   6.374   0.152   5.519  0.0423  0.2994 -0.5899
 2432TIP3    H128711   6.437   0.111   5.578  0.4736 -0.8239 -1.7986
 2432TIP3    H228712   6.428   0.202   5.458 -0.3363  0.5959 -0.6810
 2433TIP3   OH228713   2.100   4.789  11.371 -0.4331  0.0630  0.7565
 2433TIP3    H128714   2.008   4.801  11.392 -0.5292  1.8484 -0.5592
 2433TIP3    H228715   2.141   4.873  11.392  0.9069 -0.7167  1.3450
 2434TIP3   OH228716   4.625   3.250  14.105  0.0055 -0.2653 -0.2443
 2434TIP3    H128717   4.708   3.230  14.062  0.4967 -0.2277  0.6810
 2434TIP3    H228718   4.590   3.164  14.130  0.2926 -0.2039  0.3542
 2435TIP3   OH228719   2.187   3.219   4.570 -0.1965 -0.0575  0.0096
 2435TIP3    H128720   2.108   3.170   4.592  1.4453 -2.7732  0.0930
 2435TIP3    H228721   2.180   3.235   4.476 -0.9665 -0.0552  0.0672
 2436TIP3   OH228722   0.018   2.265  16.933 -0.0601  0.3865  0.4143
 2436TIP3    H128723  -0.015   2.274  16.844 -0.5011  0.7679  0.6120
 2436TIP3    H228724  -0.008   2.346  16.976 -0.7141 -0.2026  1.1604
 2437TIP3   OH228725   2.679   1.345   1.346 -0.1402  0.2445 -0.5116
 2437TIP3    H128726   2.714   1.257   1.353  1.5070  0.9071 -0.0787
 2437TIP3    H228727   2.696   1.371   1.256 -2.0016 -0.4208 -1.0765
 2438TIP3   OH228728   2.978   5.751  13.106  0.0999 -0.0278  0.1938
 2438TIP3    H128729   2.933   5.679  13.150 -1.4720  0.3913 -0.7182
 2438TIP3    H228730   2.925   5.828  13.124 -1.1696 -0.0084 -3.2417
 2439TIP3   OH228731   0.438   5.494   3.920  0.3570  1.0460  0.1332
 2439TIP3    H128732   0.486   5.565   3.878  0.7443 -0.1573 -1.4980
 2439TIP3    H228733   0.446   5.512   4.014  0.3027  3.2305 -0.2694
 2440TIP3   OH228734   6.689   4.854  16.738 -0.1424 -0.8859  0.6360
 2440TIP3    H128735   6.632   4.923  16.774 -0.0810  0.1353 -1.1503
 2440TIP3    H228736   6.775   4.874  16.774 -0.2269 -0.3371  0.5474
 2441TIP3   OH228737   2.555   3.198   6.572 -0.0726  0.1050  0.1803
 2441TIP3    H128738   2.617   3.257   6.528  0.9529 -0.2209  1.1499
 2441TIP3    H228739   2.471   3.218   6.533  0.4255  1.5371 -0.2025
 2442TIP3   OH228740   4.129   6.551  16.051  0.4941  0.2485 -0.2673
 2442TIP3    H128741   4.170   6.626  16.007  0.8094  0.8975  1.0778
 2442TIP3    H228742   4.177   6.475  16.018  2.2419  0.9189  0.6093
 2443TIP3   OH228743   4.471   2.771  15.943 -0.3146  0.1974  0.5426
 2443TIP3    H128744   4.489   2.693  15.889 -0.9013  1.7144 -1.8862
 2443TIP3    H228745   4.557   2.794  15.980  0.6827  0.8612 -2.1121
 2444TIP3   OH228746   6.725   5.326   0.120 -0.3989  0.3685 -0.5096
 2444TIP3    H128747   6.817   5.304   0.135 -0.7780 -1.3099 -0.5247
 2444TIP3    H228748   6.712   5.407   0.171  0.7434 -0.1018  0.5777
 2445TIP3   OH228749   3.473   3.772   3.424  0.0528 -0.7101  0.3208
 2445TIP3    H128750   3.549   3.828   3.411  0.9825 -1.9403  0.3902
 2445TIP3    H228751   3.443   3.792   3.512  0.3561 -0.2900  0.3272
 2446TIP3   OH228752   2.470   0.756   6.049 -0.5673  0.0677  0.3140
 2446TIP3    H128753   2.558   0.744   6.084 -1.6255 -0.7911  2.7540
 2446TIP3    H228754   2.451   0.849   6.061  0.0468  0.2828 -0.3516
 2447TIP3   OH228755   1.627   3.529  16.071  0.3543 -0.7589  0.0550
 2447TIP3    H128756   1.541   3.486  16.064  0.2038 -0.3951 -0.4045
 2447TIP3    H228757   1.617   3.609  16.019  0.6959 -0.2747  0.7313
 2448TIP3   OH228758   5.042   6.661  12.832 -0.0271  0.1648 -0.1109
 2448TIP3    H128759   5.042   6.670  12.736  2.8088 -1.8836 -0.3399
 2448TIP3    H228760   5.035   6.751  12.863  0.8492  1.0358 -2.2769
 2449TIP3   OH228761   6.229   4.847  12.580 -0.2024 -0.1804  0.6617
 2449TIP3    H128762   6.169   4.919  12.599 -0.4152 -0.3076  0.4689
 2449TIP3    H228763   6.250   4.857  12.487  1.2089  0.7169  1.0609
 2450TIP3   OH228764   6.542   2.013  12.781  0.6074  0.1052 -0.6038
 2450TIP3    H128765   6.620   1.958  12.780  0.4382 -0.1269 -0.8970
 2450TIP3    H228766   6.575   2.102  12.771  0.9608  0.1496  0.8195
 2451TIP3   OH228767   5.445   6.218  10.805 -0.6156 -0.3395 -0.1758
 2451TIP3    H128768   5.527   6.202  10.758 -0.5228  1.6483 -0.7651
 2451TIP3    H228769   5.427   6.137  10.852  2.1245 -0.5376  0.6000
 2452TIP3   OH228770   4.183   3.990   1.793 -0.3491  0.0306  0.2076
 2452TIP3    H128771   4.201   4.035   1.876  0.4674  0.9549 -0.4737
 2452TIP3    H228772   4.174   4.060   1.729 -0.0167 -0.7291 -0.6753
 2453TIP3   OH228773   5.074   5.299  12.323  0.2232 -0.4183  0.0147
 2453TIP3    H128774   4.990   5.255  12.333 -0.3426  1.1219  2.4252
 2453TIP3    H228775   5.076   5.327  12.231 -1.6362 -0.9637 -0.2079
 2454TIP3   OH228776   4.978   0.584  14.773  0.4744  0.1004  0.0597
 2454TIP3    H128777   4.954   0.509  14.828  1.2924 -0.0246  0.2502
 2454TIP3    H228778   5.055   0.554  14.724  1.4175  1.1434  0.8633
 2455TIP3   OH228779   0.131   2.609   0.108  0.4018  0.1193  0.0130
 2455TIP3    H128780   0.093   2.696   0.118  1.1191  0.4955 -0.5112
 2455TIP3    H228781   0.186   2.598   0.186  0.9183  0.4585 -0.2928
 2456TIP3   OH228782   1.694   5.026   1.717  0.2953  0.0801 -0.0749
 2456TIP3    H128783   1.769   5.058   1.767 -0.0731  0.5816  0.1546
 2456TIP3    H228784   1.658   5.104   1.674  1.3817 -0.5323 -2.1665
 2457TIP3   OH228785   3.813   4.841   3.845 -0.2416  0.2584  0.1727
 2457TIP3    H128786   3.786   4.753   3.871 -0.2559  0.2258  0.0523
 2457TIP3    H228787   3.817   4.837   3.749  0.9580  0.0338  0.2175
 2458TIP3   OH228788   1.674   0.452   4.455  0.2981  0.4634 -0.2770
 2458TIP3    H128789   1.588   0.488   4.476  0.5482  1.0868 -0.3136
 2458TIP3    H228790   1.730   0.529   4.446  0.8959  0.0487 -0.0898
 2459TIP3   OH228791   2.510   5.693   1.449  0.1725  0.3672 -0.1747
 2459TIP3    H128792   2.523   5.624   1.384  1.3333  1.1750 -0.7998
 2459TIP3    H228793   2.598   5.713   1.481 -0.3128  0.4495  1.1722
 2460TIP3   OH228794   2.167   6.529   0.003 -0.0171 -0.3257  0.0539
 2460TIP3    H128795   2.259   6.528   0.030  0.2644 -0.6233 -0.9255
 2460TIP3    H228796   2.140   6.620   0.012  0.6456 -0.0653 -0.5821
 2461TIP3   OH228797   5.155   6.480  16.932 -0.5252  0.0190 -0.2543
 2461TIP3    H128798   5.137   6.444  16.845 -0.7286 -0.8077  0.1302
 2461TIP3    H228799   5.073   6.469  16.980  0.6348 -2.8027  1.1857
 2462TIP3   OH228800   0.599   6.532  12.368  0.3083  0.5440  0.5215
 2462TIP3    H128801   0.585   6.627  12.362  1.3557  0.5755 -2.0949
 2462TIP3    H228802   0.616   6.505  12.278 -1.3981 -2.3871  1.0066
 2463TIP3   OH228803   6.365   5.339   3.413  0.0499 -0.5987  0.7163
 2463TIP3    H128804   6.305   5.382   3.474  0.8973 -0.4302  1.4405
 2463TIP3    H228805   6.451   5.349   3.453  0.3488 -2.3898  0.5519
 2464TIP3   OH228806   5.642   3.514   6.421  0.1428  0.1416 -0.4191
 2464TIP3    H128807   5.702   3.565   6.474 -0.5117  1.6382 -1.0762
 2464TIP3    H228808   5.563   3.568   6.415 -0.7497 -1.1595 -0.7309
 2465TIP3   OH228809   6.417   2.337  14.575 -0.8180  0.0687 -0.0526
 2465TIP3    H128810   6.442   2.369  14.661 -0.0506 -1.3910  0.2913
 2465TIP3    H228811   6.338   2.285  14.592 -1.1962  0.5404 -0.3694
 2466TIP3   OH228812   3.816   4.314   0.374  0.6001 -0.1025 -0.5269
 2466TIP3    H128813   3.756   4.240   0.384  0.0495 -0.2852 -4.3440
 2466TIP3    H228814   3.769   4.389   0.413 -0.3430 -1.0533  0.1831
 2467TIP3   OH228815   3.705   2.404  15.191  0.0593 -0.3192 -0.8119
 2467TIP3    H128816   3.624   2.413  15.141 -0.5659 -0.0011  0.2381
 2467TIP3    H228817   3.729   2.312  15.182 -0.0724 -0.2736 -1.6506
 2468TIP3   OH228818   6.709   2.178   2.735 -0.6013 -0.5278 -0.4626
 2468TIP3    H128819   6.631   2.233   2.732 -1.1405 -1.2563 -0.0579
 2468TIP3    H228820   6.743   2.179   2.646 -0.2683  0.9276 -0.3323
 2469TIP3   OH228821   2.275   5.029  15.354  0.1708  0.2427 -0.3361
 2469TIP3    H128822   2.273   5.027  15.258 -0.6192  0.5031 -0.3261
 2469TIP3    H228823   2.186   5.053  15.380  0.5516  0.8471  0.4464
 2470TIP3   OH228824   2.868   1.843   2.931 -0.4490 -0.2268  0.0329
 2470TIP3    H128825   2.931   1.887   2.987  0.4327  0.5879 -1.5662
 2470TIP3    H228826   2.785   1.848   2.980  0.0261  1.5748  0.7033
 2471TIP3   OH228827   5.987   2.694   5.192 -0.6036 -0.0899  1.1999
 2471TIP3    H128828   6.026   2.781   5.190 -1.6729  0.3885  0.9233
 2471TIP3    H228829   5.893   2.709   5.182 -0.7936 -1.2783  1.0853
 2472TIP3   OH228830   5.466   3.309  12.874 -0.4328 -0.1555 -0.1234
 2472TIP3    H128831   5.411   3.386  12.858 -1.8104 -1.0706  0.1356
 2472TIP3    H228832   5.534   3.340  12.933 -0.5378  1.0529 -0.6257
 2473TIP3   OH228833   2.407   0.180   0.169  0.7688 -0.1432 -0.3508
 2473TIP3    H128834   2.334   0.118   0.167 -1.2920  2.2281 -0.9278
 2473TIP3    H228835   2.416   0.204   0.261  0.7375 -0.3177 -0.3017
 2474TIP3   OH228836   2.647   2.374  15.268  0.1241  0.9967  0.0147
 2474TIP3    H128837   2.658   2.303  15.332 -0.7374  1.3373  0.5557
 2474TIP3    H228838   2.730   2.422  15.272  2.1424 -2.0189 -2.9670
 2475TIP3   OH228839   0.034   2.786  13.577  0.2816  0.4839 -0.0278
 2475TIP3    H128840   0.089   2.865  13.580 -1.4088  1.6360  1.9932
 2475TIP3    H228841  -0.037   2.804  13.640 -1.5523 -1.5855 -1.4441
 2476TIP3   OH228842   4.789   1.264   0.326 -0.5102  0.3407 -0.3103
 2476TIP3    H128843   4.766   1.228   0.241 -1.1951 -1.9208  0.8016
 2476TIP3    H228844   4.871   1.311   0.311 -0.7751  0.2025 -2.2596
 2477TIP3   OH228845   2.365   0.457   2.955  0.2494  0.1171 -0.2709
 2477TIP3    H128846   2.383   0.370   2.921  1.9961  0.2197  0.2896
 2477TIP3    H228847   2.348   0.443   3.048  4.4155  0.6901  0.7022
 2478TIP3   OH228848   2.554   5.464  10.888  0.2403 -0.3871  0.6464
 2478TIP3    H128849   2.604   5.519  10.828 -0.1441 -2.4234 -1.5889
 2478TIP3    H228850   2.482   5.430  10.836 -0.1560 -2.1495  2.2769
 2479TIP3   OH228851   2.952   3.941  14.257  0.0532 -0.1266 -0.4401
 2479TIP3    H128852   3.036   3.961  14.216  0.1186 -1.2604 -0.8752
 2479TIP3    H228853   2.930   3.853  14.226 -1.4016  0.2428 -0.5112
 2480TIP3   OH228854   4.455   1.145  12.611 -0.0735  0.1792  0.5817
 2480TIP3    H128855   4.544   1.113  12.629  0.4018 -1.1121 -3.6254
 2480TIP3    H228856   4.398   1.080  12.652  0.8825  0.3479  2.2443
 2481TIP3   OH228857   4.503   0.856   5.959  0.1068 -0.5911 -0.8783
 2481TIP3    H128858   4.489   0.796   6.033  0.3470 -2.7101 -2.5286
 2481TIP3    H228859   4.419   0.901   5.948  0.8159  1.7432  2.3576
 2482TIP3   OH228860   4.547   0.618   5.272  0.1998 -0.1343 -0.0428
 2482TIP3    H128861   4.614   0.553   5.252  1.1168  0.5539  0.7561
 2482TIP3    H228862   4.550   0.679   5.197 -0.6863 -1.0090 -0.8082
 2483TIP3   OH228863   1.684   6.127  12.091  0.2526  1.0072 -0.3403
 2483TIP3    H128864   1.707   6.174  12.171 -1.4505 -1.9018  1.9708
 2483TIP3    H228865   1.756   6.066  12.076 -1.8255 -2.2691  2.1929
 2484TIP3   OH228866   5.704   4.460  14.240  0.0718 -0.3067  0.4967
 2484TIP3    H128867   5.699   4.395  14.311  0.1682  0.2112  0.9787
 2484TIP3    H228868   5.613   4.471  14.212  0.0024 -0.3304  0.7091
 2485TIP3   OH228869   3.170   3.354  14.697 -0.2506  0.3584  0.4589
 2485TIP3    H128870   3.120   3.402  14.631 -2.3765 -1.6180  0.5569
 2485TIP3    H228871   3.117   3.361  14.777 -0.0803 -1.2734  0.7276
 2486TIP3   OH228872   5.934   1.425  16.014  0.2547  0.7262 -0.8247
 2486TIP3    H128873   5.893   1.495  16.064  0.5704  0.7900 -0.6517
 2486TIP3    H228874   6.014   1.464  15.979  1.1681  0.0564  0.4563
 2487TIP3   OH228875   4.079   0.645   1.218 -0.0382  0.4308 -0.1532
 2487TIP3    H128876   4.008   0.687   1.265  0.0278 -0.3026  0.6017
 2487TIP3    H228877   4.109   0.712   1.156 -0.2087  1.3523  0.7501
 2488TIP3   OH228878   0.873   6.554   1.245 -0.0513 -0.1654  0.1490
 2488TIP3    H128879   0.937   6.522   1.182 -0.2922 -0.9148  0.2790
 2488TIP3    H228880   0.793   6.506   1.225 -0.4137  0.3485  0.3557
 2489TIP3   OH228881   4.994   0.424  16.715  0.0248 -0.4028 -0.0687
 2489TIP3    H128882   4.939   0.365  16.664 -1.3494  0.5589  0.2823
 2489TIP3    H228883   5.045   0.472  16.650 -1.1645  0.2759 -0.5067
 2490TIP3   OH228884   4.700   4.474  12.380 -0.1157 -0.2182  0.6672
 2490TIP3    H128885   4.704   4.401  12.319  3.4051  0.7674 -0.4692
 2490TIP3    H228886   4.712   4.435  12.466 -1.6952 -1.2807  0.4249
 2491TIP3   OH228887   0.416   4.725   4.550  0.1498 -0.3040  0.2129
 2491TIP3    H128888   0.482   4.757   4.612 -0.4794 -0.2807  0.8779
 2491TIP3    H228889   0.442   4.764   4.466  0.3917  0.5494  0.6725
 2492TIP3   OH228890   6.371   1.265  11.517  0.1472  0.4249 -0.4268
 2492TIP3    H128891   6.391   1.355  11.494 -0.2219  0.6150 -0.0142
 2492TIP3    H228892   6.296   1.271  11.576 -1.0896 -0.2751 -1.8828
 2493TIP3   OH228893   1.933   1.264   3.435  0.2747  0.1449  0.5095
 2493TIP3    H128894   2.017   1.280   3.478  2.0668 -1.2673 -2.3373
 2493TIP3    H228895   1.949   1.280   3.342 -2.3428 -1.1370 -0.2363
 2494TIP3   OH228896   4.505   5.488  16.395 -0.4322  0.5407  0.6196
 2494TIP3    H128897   4.528   5.550  16.327 -0.9253 -0.2155 -0.2452
 2494TIP3    H228898   4.484   5.542  16.471 -0.9162  1.4267 -0.1435
 2495TIP3   OH228899   3.771   1.059   5.136  0.5011  0.4417 -0.4030
 2495TIP3    H128900   3.756   0.993   5.068 -0.4050 -0.1490  0.3494
 2495TIP3    H228901   3.858   1.041   5.169 -0.1003 -0.9698  0.4321
 2496TIP3   OH228902   2.534   4.610   2.612  0.3654 -0.0326  0.0431
 2496TIP3    H128903   2.562   4.520   2.598  0.7041 -0.0672  0.9130
 2496TIP3    H228904   2.616   4.659   2.619  0.1880  0.1785  0.6299
 2497TIP3   OH228905   3.041   0.736  12.489 -0.1755 -0.2766 -0.1787
 2497TIP3    H128906   2.952   0.701  12.489 -0.5738  0.7076 -0.2050
 2497TIP3    H228907   3.094   0.669  12.446 -1.1922 -0.1699 -1.6253
 2498TIP3   OH228908   6.376   3.244   4.720  0.2003 -0.0541  0.1603
 2498TIP3    H128909   6.408   3.212   4.635  0.4538  2.3159 -0.6721
 2498TIP3    H228910   6.397   3.174   4.781  2.0032 -0.8812 -1.3462
 2499TIP3   OH228911   1.442   3.928   3.381 -0.2209  0.0378 -0.0941
 2499TIP3    H128912   1.509   3.892   3.323  0.0210  0.1627  0.1046
 2499TIP3    H228913   1.392   3.987   3.325  0.1215  0.2924 -0.1342
 2500TIP3   OH228914   2.017   1.709   3.857  0.1711 -0.3295 -0.3211
 2500TIP3    H128915   2.004   1.762   3.936  1.6141 -1.2148  0.5464
 2500TIP3    H228916   1.929   1.678   3.834 -0.6730  2.3534 -0.8190
 2501TIP3   OH228917   2.336   0.587   2.235 -0.8068 -0.1685 -0.1434
 2501TIP3    H128918   2.397   0.559   2.303  0.0678 -0.2458 -0.9508
 2501TIP3    H228919   2.390   0.636   2.172 -1.9479  1.6830  0.2579
 2502TIP3   OH228920   5.055   2.640  12.584 -0.0683  0.0570 -0.0496
 2502TIP3    H128921   5.042   2.696  12.508  2.8362 -0.2409 -0.8366
 2502TIP3    H228922   5.056   2.701  12.659  0.1603  0.7176 -0.5835
 2503TIP3   OH228923   1.107   4.733  16.589  0.1051  0.4421 -0.0592
 2503TIP3    H128924   1.182   4.690  16.547 -1.3243 -0.5152 -1.7086
 2503TIP3    H228925   1.138   4.755  16.677  2.2635 -0.0919 -0.6609
 2504TIP3   OH228926   6.716   3.572   0.745 -0.1682  0.0580 -0.3162
 2504TIP3    H128927   6.664   3.632   0.692  0.1919 -0.1099 -0.8591
 2504TIP3    H228928   6.779   3.534   0.684  0.3632 -0.0032  0.2643
 2505TIP3   OH228929   2.689   2.897   3.618  0.3389 -0.3300 -0.5033
 2505TIP3    H128930   2.678   2.959   3.690  1.6223  0.4178 -0.9289
 2505TIP3    H228931   2.600   2.864   3.601 -0.4969  1.8948 -0.7118
 2506TIP3   OH228932   3.221   5.743   0.472 -0.2935  0.0459 -0.1021
 2506TIP3    H128933   3.256   5.672   0.418  2.3062  1.0629  0.1392
 2506TIP3    H228934   3.145   5.776   0.423  0.2091 -1.0216 -1.6409
 2507TIP3   OH228935   1.961   1.648  11.710  0.1916  0.4358 -0.0146
 2507TIP3    H128936   1.874   1.679  11.734  0.2012  1.1250 -0.8461
 2507TIP3    H228937   1.959   1.641  11.615  0.9883  0.2955 -0.0246
 2508TIP3   OH228938   6.665   1.438  11.571  0.5218 -1.0665  0.5444
 2508TIP3    H128939   6.635   1.455  11.661  1.1726 -1.7636  0.9097
 2508TIP3    H228940   6.600   1.479  11.515 -0.6397 -1.7922  1.3303
 2509TIP3   OH228941   1.315   3.279   2.460  0.2133  0.1664  0.4939
 2509TIP3    H128942   1.254   3.276   2.533 -1.0590 -0.6136 -0.5709
 2509TIP3    H228943   1.291   3.359   2.412  1.7231  1.2368  1.4813
 2510TIP3   OH228944   4.170   1.507  13.376  0.3867 -0.2397 -0.3134
 2510TIP3    H128945   4.149   1.582  13.320 -0.2520 -0.9603 -1.0347
 2510TIP3    H228946   4.247   1.536  13.426  0.3028  0.8030 -0.7768
 2511TIP3   OH228947   0.118   2.559   5.598 -0.7396 -0.3209 -0.2955
 2511TIP3    H128948   0.067   2.592   5.672  0.3945 -0.1415  0.4069
 2511TIP3    H228949   0.063   2.490   5.561 -1.5773 -0.0155  0.3489
 2512TIP3   OH228950   1.106   5.504   1.748  0.1140 -0.2921  0.1208
 2512TIP3    H128951   1.133   5.587   1.710 -0.3788 -0.1206  0.1335
 2512TIP3    H228952   1.142   5.437   1.690  1.8753 -0.1243  1.0040
 2513TIP3   OH228953   2.410   2.878   3.561  0.3608  0.5786  0.1050
 2513TIP3    H128954   2.393   2.824   3.484 -0.5350  0.0686  0.6574
 2513TIP3    H228955   2.394   2.968   3.531  2.5322  0.6298 -1.0039
 2514TIP3   OH228956   4.526   4.942   2.196 -0.6598  0.5258  0.5738
 2514TIP3    H128957   4.462   4.980   2.136  0.3000  1.2742  0.0164
 2514TIP3    H228958   4.561   4.866   2.149  1.3640  2.1184 -0.5748
 2515TIP3   OH228959   5.416   0.414   5.387  0.2174  0.0622  0.2076
 2515TIP3    H128960   5.388   0.414   5.295 -0.7062  1.3725  0.4644
 2515TIP3    H228961   5.362   0.347   5.429 -0.4576  0.5321  0.0988
 2516TIP3   OH228962   0.826   0.314   3.269  0.4270 -0.1877  0.2544
 2516TIP3    H128963   0.882   0.316   3.191 -0.7859  0.5438 -0.6231
 2516TIP3    H228964   0.869   0.372   3.331  1.6878 -1.1881  0.3403
 2517TIP3   OH228965   4.284   2.794  14.610 -0.6194 -0.6002 -0.8637
 2517TIP3    H128966   4.214   2.734  14.584 -1.9263  0.0521  1.0360
 2517TIP3    H228967   4.319   2.756  14.690 -1.1017  0.8702  0.0657
 2518TIP3   OH228968   2.028   0.707   3.661 -0.2440 -0.2876 -0.1196
 2518TIP3    H128969   2.101   0.744   3.711 -1.6509 -0.9338  2.4703
 2518TIP3    H228970   2.053   0.721   3.569  2.4161  0.8670  0.7275
 2519TIP3   OH228971   0.962   3.630   2.264 -0.1686 -0.1428 -0.3509
 2519TIP3    H128972   0.887   3.616   2.322  1.1271 -2.3599  0.8729
 2519TIP3    H228973   0.976   3.724   2.265  0.0837 -0.1640  3.2901
 2520TIP3   OH228974   6.214   3.792  14.350  0.3416  0.4607 -0.0287
 2520TIP3    H128975   6.233   3.726  14.416 -0.6713 -1.9621 -2.0755
 2520TIP3    H228976   6.119   3.805  14.356  0.6353  2.3693  0.9019
 2521TIP3   OH228977   6.342   3.953  16.241 -0.2036 -0.1948  0.2002
 2521TIP3    H128978   6.303   3.942  16.154 -0.4335 -0.7942  0.3784
 2521TIP3    H228979   6.267   3.965  16.299 -0.0700 -0.2209  0.3776
 2522TIP3   OH228980   1.220   4.468   5.575 -0.0598 -0.1064 -0.6995
 2522TIP3    H128981   1.219   4.373   5.579 -2.1465 -0.1248 -1.0699
 2522TIP3    H228982   1.313   4.491   5.576  0.4335 -2.0547  0.8875
 2523TIP3   OH228983   2.983   3.081  13.105 -0.1293 -0.7784  0.0689
 2523TIP3    H128984   2.914   3.146  13.092 -0.2230  0.3557  5.2527
 2523TIP3    H228985   3.064   3.127  13.082 -0.5540 -0.2547 -0.3970
 2524TIP3   OH228986   2.077   2.662  14.971 -0.1463 -0.3303 -0.2566
 2524TIP3    H128987   2.024   2.587  14.998  0.3757 -0.1107  1.4142
 2524TIP3    H228988   2.122   2.632  14.892 -1.4691 -1.0826 -0.7499
 2525TIP3   OH228989   1.845   3.583  13.663  0.0669 -0.2260 -0.3799
 2525TIP3    H128990   1.826   3.489  13.656  0.2885 -0.1795 -1.6639
 2525TIP3    H228991   1.769   3.619  13.710 -1.6856 -0.5020 -2.9353
 2526TIP3   OH228992   0.419   5.047  13.012  0.8831 -0.3573 -0.1932
 2526TIP3    H128993   0.504   5.025  13.049  0.5245 -2.6466 -0.6616
 2526TIP3    H228994   0.384   4.964  12.981 -1.4769  0.5808 -0.1326
 2527TIP3   OH228995   5.817   4.535   4.567 -0.3369  0.3276  0.2752
 2527TIP3    H128996   5.776   4.567   4.487 -1.1472 -1.0892  0.1076
 2527TIP3    H228997   5.888   4.478   4.538 -1.2949 -1.0308  0.5285
 2528TIP3   OH228998   1.294   5.693  14.783  0.4413  0.3532  0.1674
 2528TIP3    H128999   1.288   5.781  14.745  0.8664  0.6241  0.7097
 2528TIP3    H229000   1.381   5.690  14.823 -0.0973  0.1798  1.3490
 2529TIP3   OH229001   1.463   3.078  17.027  0.2684  0.1739  0.2742
 2529TIP3    H129002   1.426   2.990  17.029 -0.9114  0.6682  1.6000
 2529TIP3    H229003   1.557   3.065  17.017 -0.1354 -1.1504 -2.2830
 2530TIP3   OH229004   2.910   4.186  14.370  0.1032 -0.2965 -0.3552
 2530TIP3    H129005   2.885   4.097  14.343 -1.7740  0.2777 -0.5604
 2530TIP3    H229006   2.835   4.218  14.419  0.4073  1.5318 -1.0681
 2531TIP3   OH229007   4.447   0.111   2.560  0.8922 -0.2298 -0.5134
 2531TIP3    H129008   4.483   0.023   2.568 -0.8435 -0.8127  1.3464
 2531TIP3    H229009   4.398   0.110   2.477 -0.4982 -1.5396  0.3099
 2532TIP3   OH229010   2.986   6.330   6.357  0.2280  0.6263 -0.3509
 2532TIP3    H129011   3.011   6.289   6.440  0.3782  2.9667  0.8067
 2532TIP3    H229012   2.895   6.306   6.344  0.6815 -1.1489 -0.3923
 2533TIP3   OH229013   3.130   6.726   0.153 -0.5754  0.5276  0.2139
 2533TIP3    H129014   3.123   6.747   0.060  0.9239 -0.0563 -0.0543
 2533TIP3    H229015   3.055   6.669   0.171 -1.9317  2.1795 -0.1809
 2534TIP3   OH229016   3.700   2.866   1.477 -0.3764 -0.1730 -0.0503
 2534TIP3    H129017   3.606   2.854   1.489 -0.6703  0.7918 -1.3108
 2534TIP3    H229018   3.729   2.904   1.560 -1.3537  0.8683 -0.1698
 2535TIP3   OH229019   2.365   3.727   2.667  0.1789  0.3213 -0.1007
 2535TIP3    H129020   2.441   3.710   2.722  0.7083 -0.4164 -1.0510
 2535TIP3    H229021   2.350   3.645   2.620 -2.1388 -0.0380  1.1866
 2536TIP3   OH229022   1.015   2.896  13.270 -0.3760 -0.9374 -0.5859
 2536TIP3    H129023   1.101   2.924  13.241 -0.9121  0.2681 -1.0488
 2536TIP3    H229024   1.031   2.837  13.344  0.7832  0.1795  0.0532
 2537TIP3   OH229025   3.638   2.921   2.186 -0.1534  0.1399  0.1105
 2537TIP3    H129026   3.587   2.944   2.107  1.4348 -0.0533 -0.9900
 2537TIP3    H229027   3.705   2.861   2.155 -1.2962 -2.2662  2.1595
 2538TIP3   OH229028   6.636   4.855  15.336  0.0816  0.3509  0.1167
 2538TIP3    H129029   6.678   4.930  15.294  0.8426  0.3987  0.9467
 2538TIP3    H229030   6.706   4.810  15.383 -0.5515 -0.3092  0.4616
 2539TIP3   OH229031   5.456   4.123   1.545 -0.2868  0.0752 -0.0795
 2539TIP3    H129032   5.412   4.067   1.609 -2.7783  1.0976 -0.8408
 2539TIP3    H229033   5.498   4.191   1.598  0.4719 -0.9851  0.6778
 2540TIP3   OH229034   5.637   0.804   5.473 -1.2604 -0.2438  0.0684
 2540TIP3    H129035   5.559   0.752   5.493  0.1279 -2.6230 -0.4423
 2540TIP3    H229036   5.672   0.764   5.393  1.0072  0.1660  0.8175
 2541TIP3   OH229037   2.662   3.110  13.314  0.3671  0.3466  0.5348
 2541TIP3    H129038   2.592   3.055  13.279 -0.5592  2.5783 -1.1450
 2541TIP3    H229039   2.700   3.057  13.385 -3.2827 -0.7290  1.7845
 2542TIP3   OH229040   4.130   4.921  10.511  0.5303 -0.6016 -0.0586
 2542TIP3    H129041   4.154   4.834  10.477 -0.2865 -1.0509  0.4904
 2542TIP3    H229042   4.070   4.956  10.445  0.4411 -0.6780 -0.0184
 2543TIP3   OH229043   5.165   2.713   4.177  0.0772  0.5601 -0.0615
 2543TIP3    H129044   5.089   2.662   4.203 -0.4866  1.5006  0.1591
 2543TIP3    H229045   5.142   2.803   4.198  1.0373  0.9185 -0.4994
 2544TIP3   OH229046   0.622   3.290  13.269  0.4699  0.0847 -0.1972
 2544TIP3    H129047   0.660   3.210  13.306  2.2747  0.9249 -0.2225
 2544TIP3    H229048   0.651   3.360  13.327 -1.2946  0.7211 -0.0495
 2545TIP3   OH229049   5.562   6.622   4.222 -0.8023  0.5791  0.3895
 2545TIP3    H129050   5.495   6.676   4.263  1.7604  0.7950  4.5930
 2545TIP3    H229051   5.634   6.683   4.204  0.8689 -0.8222  2.2011
 2546TIP3   OH229052   2.171   5.623  10.688 -0.2786 -0.4296  0.0822
 2546TIP3    H129053   2.260   5.628  10.654  0.2884 -0.5810  1.5341
 2546TIP3    H229054   2.125   5.567  10.626 -0.3553  2.5953 -2.7365
 2547TIP3   OH229055   3.247   5.754   3.548 -0.1281  0.3823 -0.1642
 2547TIP3    H129056   3.228   5.740   3.640 -1.3831  1.2539 -0.2847
 2547TIP3    H229057   3.282   5.670   3.518  0.5829  0.1931  1.1669
 2548TIP3   OH229058   6.012   3.214   4.756 -0.8090  0.8439 -0.1711
 2548TIP3    H129059   6.082   3.223   4.822 -0.6134 -1.2202 -0.0651
 2548TIP3    H229060   5.939   3.265   4.791 -0.3408  0.6358  1.1270
 2549TIP3   OH229061   3.016   3.872   5.854  0.4704 -1.1105  0.7468
 2549TIP3    H129062   3.095   3.834   5.893  1.6169 -0.1259 -0.5744
 2549TIP3    H229063   3.011   3.835   5.767  0.6178  0.3719  0.0833
 2550TIP3   OH229064   5.236   5.990  12.252 -0.0940  0.0150  0.1894
 2550TIP3    H129065   5.305   5.961  12.192 -0.7423  1.3563 -1.2450
 2550TIP3    H229066   5.259   6.080  12.274 -1.7555  0.7715 -0.9524
 2551TIP3   OH229067   1.594   3.860  12.879 -0.6135 -0.5510 -0.1136
 2551TIP3    H129068   1.517   3.907  12.845  0.2175 -0.7467 -2.3637
 2551TIP3    H229069   1.626   3.916  12.949 -0.6205  1.4691 -1.6588
 2552TIP3   OH229070   1.189   0.374   5.820  0.6619  0.3180 -0.0374
 2552TIP3    H129071   1.178   0.404   5.910 -0.5388  0.2953 -0.1680
 2552TIP3    H229072   1.118   0.415   5.772 -1.4515 -3.2159 -0.0866
 2553TIP3   OH229073   5.817   2.449   3.816  0.1901 -0.3613 -0.4136
 2553TIP3    H129074   5.889   2.492   3.769  0.4237 -0.3610 -0.0516
 2553TIP3    H229075   5.838   2.355   3.811  0.3213 -0.3476 -0.1347
 2554TIP3   OH229076   1.615   0.821   0.934 -0.1712  0.4736  0.0962
 2554TIP3    H129077   1.662   0.746   0.896 -0.1753  0.9836 -0.9363
 2554TIP3    H229078   1.530   0.820   0.891 -0.4154  0.6862  0.5704
 2555TIP3   OH229079   0.128   1.512   3.873  0.0506 -0.3564 -0.4890
 2555TIP3    H129080   0.156   1.425   3.845 -1.4399 -0.7070 -0.9384
 2555TIP3    H229081   0.039   1.521   3.838 -0.3127  0.8079  0.6849
 2556TIP3   OH229082   6.642   0.515   5.434  0.2280  0.0658 -0.0261
 2556TIP3    H129083   6.684   0.437   5.398  1.5348  0.7870 -0.1028
 2556TIP3    H229084   6.675   0.587   5.380  1.9506  1.1256  2.3490
 2557TIP3   OH229085   3.451   3.725   5.968  0.4273  0.1495 -0.4337
 2557TIP3    H129086   3.531   3.729   5.915  0.3683 -1.7459 -0.7005
 2557TIP3    H229087   3.442   3.632   5.991 -0.8408  0.5864  0.9230
 2558TIP3   OH229088   2.828   4.124   1.851 -0.0274 -0.1890  0.1096
 2558TIP3    H129089   2.795   4.195   1.795 -1.1740  0.4266  1.5461
 2558TIP3    H229090   2.859   4.058   1.789  0.1780  1.1576 -1.2515
 2559TIP3   OH229091   2.826   5.055  12.856  0.3467 -0.8003  0.3326
 2559TIP3    H129092   2.793   4.987  12.915 -0.4129 -0.4962  0.2598
 2559TIP3    H229093   2.902   5.015  12.814  1.1332 -0.8822  1.8153
 2560TIP3   OH229094   3.235   5.304  12.724 -0.5051 -0.0492  0.1348
 2560TIP3    H129095   3.235   5.360  12.801  1.2463 -1.6828  1.3712
 2560TIP3    H229096   3.145   5.271  12.717 -0.4093 -0.8031  2.1797
 2561TIP3   OH229097   1.875   0.823   1.290 -0.4637  0.0600  0.7057
 2561TIP3    H129098   1.949   0.879   1.314  0.1084  0.1205 -1.1123
 2561TIP3    H229099   1.896   0.738   1.330  0.8242 -0.0490 -0.1593
 2562TIP3   OH229100   1.875   5.056   0.528 -0.8675  0.0845 -0.2841
 2562TIP3    H129101   1.925   5.004   0.465 -2.6447  1.5566 -3.0420
 2562TIP3    H229102   1.810   4.995   0.562 -0.1907 -0.6133 -0.2105
 2563TIP3   OH229103   5.792   1.595  14.017 -0.5294  0.1387 -0.1935
 2563TIP3    H129104   5.811   1.517  14.069 -2.5933 -0.2191  0.0866
 2563TIP3    H229105   5.871   1.649  14.025 -0.0168 -0.8122  1.6435
 2564TIP3   OH229106   1.332   0.459  16.713 -0.2809  0.1216  0.3274
 2564TIP3    H129107   1.374   0.377  16.687  0.0506  0.1637  0.7192
 2564TIP3    H229108   1.380   0.526  16.666 -0.1303  0.1409  0.5067
 2565TIP3   OH229109   2.364   1.351   3.259 -0.1329 -0.1674  0.0347
 2565TIP3    H129110   2.372   1.446   3.257 -0.8210 -0.0956  0.7461
 2565TIP3    H229111   2.454   1.319   3.247  0.0989  0.5698 -0.1814
 2566TIP3   OH229112   6.075   3.419  10.838  0.5186  0.0829 -0.1680
 2566TIP3    H129113   6.006   3.482  10.858 -0.7522 -1.1605 -0.5635
 2566TIP3    H229114   6.116   3.452  10.759  0.5013  0.9248  0.1734
 2567TIP3   OH229115   3.953   1.686   3.735  0.3346  0.1149  0.0514
 2567TIP3    H129116   4.010   1.718   3.805  0.0744  0.0013  0.3180
 2567TIP3    H229117   3.871   1.665   3.779  0.0942  0.2529 -0.3250
 2568TIP3   OH229118   2.295   1.867  10.595 -0.3317 -0.0343  0.4099
 2568TIP3    H129119   2.215   1.840  10.550  0.7480  0.2780 -1.7547
 2568TIP3    H229120   2.328   1.940  10.544  0.5938  0.7679  2.1186
 2569TIP3   OH229121   2.621   5.233   4.009  0.1432 -0.0371  0.7137
 2569TIP3    H129122   2.672   5.294   4.063 -0.0429 -0.2635  1.1510
 2569TIP3    H229123   2.687   5.180   3.965  0.3155  0.7984 -0.0491
 2570TIP3   OH229124   1.302   5.193  14.009 -0.2883 -1.0873  0.6941
 2570TIP3    H129125   1.296   5.135  13.932  3.4855  0.6946 -1.0443
 2570TIP3    H229126   1.248   5.268  13.986  0.2468 -0.8835  0.0985
 2571TIP3   OH229127   3.215   2.549  14.272 -0.3379 -0.3752  0.3898
 2571TIP3    H129128   3.235   2.463  14.309  0.6898 -0.4169 -0.2286
 2571TIP3    H229129   3.214   2.534  14.177 -2.1364 -0.1093  0.3547
 2572TIP3   OH229130   2.907   3.424  16.326  0.2819  0.1138 -0.6349
 2572TIP3    H129131   2.905   3.427  16.231  1.1777 -1.3225 -0.7037
 2572TIP3    H229132   2.872   3.509  16.354 -1.3390 -0.0074 -2.2235
 2573TIP3   OH229133   2.384   6.555  12.478  0.3699  0.2284  0.4035
 2573TIP3    H129134   2.337   6.624  12.525  0.2996  0.7094 -0.3728
 2573TIP3    H229135   2.399   6.590  12.390 -0.9190 -1.2621 -0.4527
 2574TIP3   OH229136   3.069   5.455   5.611  0.2954 -0.4559 -0.3815
 2574TIP3    H129137   3.043   5.427   5.699 -0.2464 -2.4941 -1.1690
 2574TIP3    H229138   3.159   5.488   5.622 -0.2131  0.4594  1.1456
 2575TIP3   OH229139   2.914   5.242   1.076 -0.5722 -0.1466 -0.5448
 2575TIP3    H129140   2.988   5.302   1.069 -1.1287  0.3504 -2.6336
 2575TIP3    H229141   2.840   5.296   1.104 -0.7604 -0.0937 -1.1217
 2576TIP3   OH229142   6.495   4.189  16.762  0.2299  0.1294 -0.2344
 2576TIP3    H129143   6.448   4.110  16.736 -0.7843  1.2934 -2.0720
 2576TIP3    H229144   6.578   4.184  16.714 -0.8475  1.3406 -2.2800
 2577TIP3   OH229145   0.429   4.604  13.979  0.0460 -0.3984  0.3410
 2577TIP3    H129146   0.519   4.638  13.981  0.0815 -0.3441 -1.4719
 2577TIP3    H229147   0.395   4.623  14.066  1.4181  0.6212  0.6802
 2578TIP3   OH229148   6.748   0.935  11.416 -0.2584  0.2607  0.5000
 2578TIP3    H129149   6.759   0.870  11.347 -0.3794  0.3531  0.3927
 2578TIP3    H229150   6.759   1.020  11.372  3.8204  0.2661  1.3517
 2579TIP3   OH229151   2.422   0.479  14.241 -0.2606 -0.1260 -0.1089
 2579TIP3    H129152   2.405   0.445  14.329  0.8789  1.6630  0.8306
 2579TIP3    H229153   2.452   0.403  14.192  1.8064 -0.6070  1.8245
 2580TIP3   OH229154   2.098   6.300  17.088 -0.5655  0.0517  0.2227
 2580TIP3    H129155   2.043   6.315  17.011  1.0559 -0.4068 -1.0545
 2580TIP3    H229156   2.123   6.387  17.118 -0.4598  0.2087 -0.3219
 2581TIP3   OH229157   2.062   1.465  12.215 -0.3530 -0.2862 -0.4436
 2581TIP3    H129158   2.030   1.506  12.135 -1.1879 -1.1667 -0.5804
 2581TIP3    H229159   2.091   1.378  12.188 -0.9705 -0.7242  0.2529
 2582TIP3   OH229160   5.523   6.712   2.910 -0.4461  0.6681  0.3819
 2582TIP3    H129161   5.579   6.768   2.963 -0.2335 -1.5089  2.5850
 2582TIP3    H229162   5.440   6.759   2.903  0.5293  2.3660  0.0184
 2583TIP3   OH229163   1.693   2.835   4.151  0.3158  0.0798 -0.5382
 2583TIP3    H129164   1.630   2.792   4.093 -0.7655 -0.0651  0.7143
 2583TIP3    H229165   1.685   2.928   4.131  1.9863 -0.1866 -2.5985
 2584TIP3   OH229166   6.032   4.572   0.169  0.2443  0.1825 -0.3889
 2584TIP3    H129167   5.978   4.644   0.138  0.9967  1.1889  0.6108
 2584TIP3    H229168   6.025   4.506   0.100 -0.6709  1.0957 -1.1874
 2585TIP3   OH229169   4.523   1.222  15.733  0.7782 -0.0075 -0.1260
 2585TIP3    H129170   4.537   1.195  15.824  2.1154 -0.0130 -0.3148
 2585TIP3    H229171   4.575   1.160  15.682 -1.6122 -1.3052 -1.0679
 2586TIP3   OH229172   4.937   4.101   6.221 -0.1382 -0.4091  0.6989
 2586TIP3    H129173   4.898   4.016   6.201  0.2484  0.1265 -2.5715
 2586TIP3    H229174   4.862   4.158   6.240 -0.7545 -0.3252 -1.8409
 2587TIP3   OH229175   6.248   2.628  11.296  0.1877 -0.1178  0.2182
 2587TIP3    H129176   6.221   2.719  11.286 -0.8828 -0.4524  0.0421
 2587TIP3    H229177   6.339   2.627  11.267  0.0824  0.8170 -0.1641
 2588TIP3   OH229178   3.680   3.182  13.424 -0.0275  0.0665  0.4484
 2588TIP3    H129179   3.766   3.185  13.467 -0.2634  1.1529  0.8563
 2588TIP3    H229180   3.696   3.137  13.341  0.7363 -0.6643  0.9802
 2589TIP3   OH229181   1.351   2.837  17.018  0.4825  0.0204  0.4879
 2589TIP3    H129182   1.403   2.796  16.948  0.1794 -0.0851  0.3228
 2589TIP3    H229183   1.265   2.795  17.011  0.5359 -0.1902  1.1104
 2590TIP3   OH229184   2.751   2.771   1.094 -0.2432  0.0124 -0.1910
 2590TIP3    H129185   2.767   2.770   1.189  0.4773 -0.7210 -0.3122
 2590TIP3    H229186   2.756   2.863   1.070  0.0557  0.1540  0.4002
 2591TIP3   OH229187   4.349   5.441  15.818  0.8745  0.6985  0.1181
 2591TIP3    H129188   4.289   5.380  15.860  1.3084  0.0561 -0.1725
 2591TIP3    H229189   4.377   5.396  15.738  1.4661  1.1284  0.0732
 2592TIP3   OH229190   3.109   0.509   4.198 -0.1002  0.6428 -0.0068
 2592TIP3    H129191   3.059   0.450   4.141  3.4777 -1.2713 -1.3171
 2592TIP3    H229192   3.098   0.595   4.158 -3.3183  0.5116  0.4751
 2593TIP3   OH229193   1.277   3.403   1.328  0.1963 -0.0062  0.0838
 2593TIP3    H129194   1.317   3.342   1.267  1.8594  0.8106  0.3248
 2593TIP3    H229195   1.342   3.472   1.339 -2.0612  2.4109 -1.0592
 2594TIP3   OH229196   1.145   3.297   3.305  0.1330 -0.1503  0.5372
 2594TIP3    H129197   1.221   3.312   3.361  0.5288 -1.0087  0.2438
 2594TIP3    H229198   1.183   3.285   3.217 -0.3378 -0.7055  0.4137
 2595TIP3   OH229199   5.965   0.576   1.154  0.1927  0.3643  0.2379
 2595TIP3    H129200   5.887   0.601   1.104 -0.4245 -1.0736  0.4730
 2595TIP3    H229201   6.030   0.555   1.087 -0.2630 -0.4122  0.0296
 2596TIP3   OH229202   1.525   1.055   4.323 -0.0913 -0.3990  0.7175
 2596TIP3    H129203   1.618   1.042   4.307  0.1611  1.2666  0.7638
 2596TIP3    H229204   1.521   1.118   4.395 -1.2425  0.5725 -0.1652
 2597TIP3   OH229205   0.720   4.946  16.222 -0.5313 -0.1180 -0.3589
 2597TIP3    H129206   0.629   4.973  16.207 -0.9294 -0.0011  2.0888
 2597TIP3    H229207   0.764   5.026  16.252 -0.0016 -0.5620  0.0451
 2598TIP3   OH229208   4.480   5.109   2.415  0.1191  0.1570 -0.1376
 2598TIP3    H129209   4.471   5.059   2.334 -1.8375 -0.9755  0.7444
 2598TIP3    H229210   4.523   5.049   2.476 -1.8276 -0.3374  0.7885
 2599TIP3   OH229211   1.795   4.814  12.509 -0.2744 -0.1900  0.5440
 2599TIP3    H129212   1.861   4.880  12.489  0.1348 -0.2950  1.5325
 2599TIP3    H229213   1.796   4.807  12.604 -4.1547  2.3822  0.9128
 2600TIP3   OH229214   3.008   3.948   4.963  0.1405 -0.1824 -0.2373
 2600TIP3    H129215   3.026   3.855   4.974 -0.0680 -0.1330  0.5729
 2600TIP3    H229216   2.914   3.953   4.945  0.3578 -0.2107 -1.3884
 2601TIP3   OH229217   0.067   0.589   2.725  0.1671 -0.3318 -0.0244
 2601TIP3    H129218   0.118   0.524   2.678  0.0525 -0.7429  0.4150
 2601TIP3    H229219   0.095   0.673   2.689  1.8109 -0.4927  0.8443
 2602TIP3   OH229220   3.049   3.050   2.971 -0.3865 -0.7156  0.1777
 2602TIP3    H129221   2.984   3.107   3.012  1.3839  1.4107  0.1504
 2602TIP3    H229222   3.132   3.097   2.981  0.6017 -1.6690 -2.8918
 2603TIP3   OH229223   6.262   0.693   2.047 -0.0791  0.2497  0.3007
 2603TIP3    H129224   6.250   0.730   2.134  0.6524  1.0506  0.0686
 2603TIP3    H229225   6.175   0.694   2.007 -0.3434  0.2377  0.8832
 2604TIP3   OH229226   1.398   3.838   2.294 -0.1711 -0.3588 -0.3469
 2604TIP3    H129227   1.430   3.790   2.218 -1.0289 -0.9258 -0.3640
 2604TIP3    H229228   1.311   3.870   2.267  1.0261  2.5753 -0.9107
 2605TIP3   OH229229   4.643   4.599   4.306 -0.3193 -0.4356 -0.0239
 2605TIP3    H129230   4.691   4.674   4.268 -1.1774  0.0646 -0.1383
 2605TIP3    H229231   4.597   4.561   4.232 -1.4624  0.1308  0.3787
 2606TIP3   OH229232   3.165   4.911   2.957  0.0508  0.5584  0.3428
 2606TIP3    H129233   3.197   4.881   2.871  1.9912 -0.1711  1.2926
 2606TIP3    H229234   3.200   5.000   2.964 -0.7520  0.9029  0.0682
 2607TIP3   OH229235   6.466   4.314   6.185  0.1208  0.1143 -0.1564
 2607TIP3    H129236   6.416   4.240   6.220  0.2338  0.4863  0.8104
 2607TIP3    H229237   6.403   4.361   6.129  0.4518 -1.5060 -1.9462
 2608TIP3   OH229238   4.818   6.062  17.141 -0.2106 -0.0550  0.2712
 2608TIP3    H129239   4.871   5.985  17.120 -1.1115 -0.6909  0.3184
 2608TIP3    H229240   4.828   6.119  17.065  1.1275  0.1663  0.5866
 2609TIP3   OH229241   0.693   1.378   1.213 -0.0695 -0.3408 -0.4140
 2609TIP3    H129242   0.788   1.388   1.209 -0.1774  3.5798  2.6405
 2609TIP3    H229243   0.679   1.299   1.266  1.5289 -0.0098  0.5307
 2610TIP3   OH229244   1.018   6.123   1.173  0.5184  0.3332 -0.2480
 2610TIP3    H129245   0.938   6.177   1.175  1.3123  1.4710  1.0719
 2610TIP3    H229246   1.042   6.122   1.080  0.8280  2.7916 -0.2454
 2611TIP3   OH229247   1.497   3.322  13.213 -0.2972 -0.8079  0.6762
 2611TIP3    H129248   1.512   3.416  13.197  1.4013 -0.9769  1.1651
 2611TIP3    H229249   1.433   3.297  13.147  0.1285  0.4375 -0.2443
 2612TIP3   OH229250   2.772   0.970   5.968  0.4411 -0.5598  0.3080
 2612TIP3    H129251   2.693   1.022   5.952 -0.2394 -0.5658  3.3987
 2612TIP3    H229252   2.838   1.035   5.994  1.1504 -0.6760 -1.1726
 2613TIP3   OH229253   2.403   3.631  11.824  0.0470  0.1174  0.9521
 2613TIP3    H129254   2.430   3.722  11.814 -0.6301  0.1563 -0.6329
 2613TIP3    H229255   2.310   3.631  11.801  0.1630 -1.0507  0.4338
 2614TIP3   OH229256   2.501   1.066   3.209  0.5849  0.7552  0.0161
 2614TIP3    H129257   2.485   1.106   3.123 -0.0651 -0.6149 -0.5110
 2614TIP3    H229258   2.422   1.083   3.259  1.0304  1.6988  0.4004
 2615TIP3   OH229259   0.654   0.446  14.023 -0.4792 -0.2089 -0.2218
 2615TIP3    H129260   0.616   0.533  14.022  1.1794  0.5163 -1.3181
 2615TIP3    H229261   0.697   0.437  13.938  0.5740 -1.5500  0.4312
 2616TIP3   OH229262   6.040   4.745  11.267 -0.0248 -0.2755  0.3432
 2616TIP3    H129263   6.069   4.794  11.344  0.4613  1.0670 -0.6651
 2616TIP3    H229264   6.122   4.715  11.226 -0.2934 -1.3176  0.5485
 2617TIP3   OH229265   3.792   6.062  16.360  0.2342 -0.3542 -0.4782
 2617TIP3    H129266   3.852   6.100  16.296  0.1717  1.2240  0.3560
 2617TIP3    H229267   3.777   5.973  16.330  0.4381  0.2750 -2.4979
 2618TIP3   OH229268   4.055   5.521   1.942 -0.2438 -0.1587  1.2046
 2618TIP3    H129269   4.123   5.453   1.943 -1.6859 -1.6265  1.3373
 2618TIP3    H229270   4.104   5.604   1.942  1.5320 -1.1398  3.6233
 2619TIP3   OH229271   1.432   2.021  15.841  0.4851  0.4073 -0.8414
 2619TIP3    H129272   1.346   2.062  15.828 -0.3955 -1.1025  0.0003
 2619TIP3    H229273   1.492   2.094  15.852 -0.7709  1.4938 -1.0342
 2620TIP3   OH229274   0.172   4.021  11.792 -0.1645  0.0796 -0.1772
 2620TIP3    H129275   0.165   4.011  11.697 -1.6063 -0.3141 -0.0332
 2620TIP3    H229276   0.119   4.098  11.812 -0.0043  0.0584  0.3397
 2621TIP3   OH229277   5.881   0.455   5.905 -0.4483 -0.4672  0.6139
 2621TIP3    H129278   5.886   0.360   5.915 -2.5134 -0.4907  1.5534
 2621TIP3    H229279   5.891   0.489   5.993  0.7307  0.2279  0.2219
 2622TIP3   OH229280   6.144   2.551  15.779 -0.4642 -0.3152 -0.0438
 2622TIP3    H129281   6.214   2.605  15.742 -1.3421 -0.3808 -1.8826
 2622TIP3    H229282   6.112   2.499  15.705 -1.1476 -1.7145  1.2074
 2623TIP3   OH229283   5.492   6.769  13.203 -0.0506 -0.6312 -0.3853
 2623TIP3    H129284   5.545   6.779  13.282 -2.1222 -1.4854  1.1690
 2623TIP3    H229285   5.555   6.766  13.131  1.8804  0.0529  1.2473
 2624TIP3   OH229286   0.033   1.578  13.862  0.0115  0.3195  0.2018
 2624TIP3    H129287   0.037   1.602  13.769 -0.3388  1.6129  0.5125
 2624TIP3    H229288   0.107   1.624  13.901 -1.1911  1.6322  0.9637
 2625TIP3   OH229289   6.145   0.226  11.601 -0.5340 -0.2324 -0.1285
 2625TIP3    H129290   6.112   0.293  11.661 -2.0318 -1.6377  0.6865
 2625TIP3    H229291   6.108   0.249  11.516 -0.1896  0.5538 -0.0675
 2626TIP3   OH229292   4.760   5.044  13.121 -0.0985 -0.5363  0.5138
 2626TIP3    H129293   4.810   5.115  13.080 -0.0676  0.2547  1.9023
 2626TIP3    H229294   4.808   5.025  13.202 -0.3375 -1.8719  0.3462
 2627TIP3   OH229295   3.403   4.312   6.939 -0.0016 -0.1505  0.3521
 2627TIP3    H129296   3.462   4.288   6.868 -0.0912 -0.5357  0.4056
 2627TIP3    H229297   3.411   4.407   6.946  0.4869 -0.1829  0.2493
 2628TIP3   OH229298   5.030   0.133  15.116  0.7668  0.8574 -0.3818
 2628TIP3    H129299   5.064   0.044  15.123  0.5097  0.6952 -1.1576
 2628TIP3    H229300   4.938   0.127  15.141  0.6253  0.8142 -0.8996
 2629TIP3   OH229301   3.183   1.313  15.857 -0.3694 -0.5426  0.0319
 2629TIP3    H129302   3.139   1.258  15.921 -0.5147  0.2793  0.6469
 2629TIP3    H229303   3.115   1.336  15.793 -0.6723  0.1457  0.5941
 2630TIP3   OH229304   3.034   3.075   1.190  0.2704  0.2320 -0.2851
 2630TIP3    H129305   3.019   3.154   1.138  1.5379  1.0001  0.4875
 2630TIP3    H229306   2.949   3.059   1.232 -0.2469  0.6675 -1.1231
 2631TIP3   OH229307   2.930   1.807  13.478  0.1550  0.4493  0.5861
 2631TIP3    H129308   2.984   1.734  13.507 -2.3596 -1.2895  1.0883
 2631TIP3    H229309   2.843   1.769  13.465 -0.6003  2.8066 -1.7644
 2632TIP3   OH229310   4.936   4.917  16.021  0.7891  0.0030 -0.1730
 2632TIP3    H129311   4.912   4.847  16.082 -0.1185  1.5696  1.3088
 2632TIP3    H229312   4.898   4.996  16.059  2.7762  1.5085 -1.2198
 2633TIP3   OH229313   3.524   2.369   1.462  0.3823  0.8165 -0.2189
 2633TIP3    H129314   3.438   2.387   1.501  0.5306  0.9380  0.0486
 2633TIP3    H229315   3.583   2.430   1.505  0.4090  1.5054 -1.1918
 2634TIP3   OH229316   1.279   2.224  12.640 -0.5449 -0.1277  0.8517
 2634TIP3    H129317   1.316   2.151  12.591  2.1449  0.0936  2.4586
 2634TIP3    H229318   1.319   2.302  12.601 -1.0220  0.2633  1.1349
 2635TIP3   OH229319   0.994   0.153  16.036  0.3586 -0.3138 -0.7979
 2635TIP3    H129320   1.026   0.195  15.956  2.2259 -1.1503 -0.5174
 2635TIP3    H229321   1.027   0.209  16.107 -0.8485  0.1352 -0.5736
 2636TIP3   OH229322   1.863   3.621  15.743 -0.5185  0.1468  0.2390
 2636TIP3    H129323   1.848   3.670  15.824  0.8055 -0.4298  0.8485
 2636TIP3    H229324   1.906   3.684  15.685 -0.0059  0.0977  0.5621
 2637TIP3   OH229325   3.080   5.598  16.472  0.5482 -0.4005  0.4873
 2637TIP3    H129326   3.033   5.520  16.440  1.1000 -0.7891  0.6186
 2637TIP3    H229327   3.018   5.670  16.459  0.7903 -0.5325 -1.5298
 2638TIP3   OH229328   6.250   5.264   2.847  0.2751 -0.4740  0.1502
 2638TIP3    H129329   6.226   5.225   2.763 -0.4236  3.0294 -1.3891
 2638TIP3    H229330   6.168   5.267   2.896  0.1070  0.0612 -0.1622
 2639TIP3   OH229331   1.023   1.690   4.008  0.3664  0.2134 -0.0340
 2639TIP3    H129332   1.032   1.651   3.922 -3.0706  3.2473 -1.8988
 2639TIP3    H229333   0.941   1.655   4.042  0.3260  1.1549  0.8609
 2640TIP3   OH229334   0.696   4.777  11.729  0.2331  0.1097  0.1421
 2640TIP3    H129335   0.773   4.831  11.712 -1.4342  3.1467  1.6333
 2640TIP3    H229336   0.640   4.790  11.653  0.0685  0.0463  0.2525
 2641TIP3   OH229337   3.503   1.136  14.854 -0.8212 -0.4699 -0.4445
 2641TIP3    H129338   3.549   1.210  14.813 -0.6677  0.3387  1.1730
 2641TIP3    H229339   3.533   1.060  14.804  0.4150  0.3426 -0.9828
 2642TIP3   OH229340   6.098   0.457  17.085 -0.0613  0.5631  0.5399
 2642TIP3    H129341   6.011   0.474  17.121 -1.7873 -0.2989 -3.0881
 2642TIP3    H229342   6.107   0.520  17.014  0.5604 -2.0606 -1.7772
 2643TIP3   OH229343   5.267   2.005  15.815  0.4499 -0.5695 -0.0947
 2643TIP3    H129344   5.280   2.090  15.857 -0.7413  0.1130 -1.0655
 2643TIP3    H229345   5.341   1.952  15.845  1.2837  0.8469  0.4202
 2644TIP3   OH229346   0.803   2.872   3.366 -0.1555 -0.9117  0.0911
 2644TIP3    H129347   0.811   2.782   3.335  1.7422 -1.2316  1.4115
 2644TIP3    H229348   0.889   2.911   3.348 -0.3443  0.0594  1.2141
 2645TIP3   OH229349   0.657   3.852  17.117 -0.6232 -0.2266 -0.0616
 2645TIP3    H129350   0.646   3.852  17.022 -1.4140 -1.0162  0.0225
 2645TIP3    H229351   0.608   3.928  17.147  0.0993  0.3506 -0.3293
 2646TIP3   OH229352   5.215   1.551   0.308  1.0147 -0.0583 -0.2447
 2646TIP3    H129353   5.259   1.470   0.334  2.2790  1.3502  2.1904
 2646TIP3    H229354   5.131   1.549   0.354  0.7819 -0.2614 -0.6746
 2647TIP3   OH229355   3.445   2.010   6.600 -0.1264 -0.4869 -0.3557
 2647TIP3    H129356   3.409   2.059   6.673 -3.9624 -0.9635 -1.8162
 2647TIP3    H229357   3.454   1.920   6.633  2.3339  0.1692  0.8304
 2648TIP3   OH229358   0.211   3.481   1.846  0.0169  0.0557 -0.1401
 2648TIP3    H129359   0.207   3.387   1.831  2.5606  0.1965 -2.1617
 2648TIP3    H229360   0.189   3.492   1.939 -0.0834 -2.5380  0.1720
 2649TIP3   OH229361   4.532   5.785   5.037 -0.2321 -0.3694  0.3178
 2649TIP3    H129362   4.523   5.735   5.118 -2.2906  0.4035  0.5923
 2649TIP3    H229363   4.500   5.873   5.059  0.5813  0.2662 -0.9453
 2650TIP3   OH229364   5.713   5.961   1.832  0.4246 -0.1145 -0.1579
 2650TIP3    H129365   5.751   5.935   1.748  0.4497 -0.7631  0.0448
 2650TIP3    H229366   5.677   5.879   1.868  0.2639  0.1894  0.3818
 2651TIP3   OH229367   2.959   0.231  16.296  0.2355  0.4610  0.1003
 2651TIP3    H129368   2.935   0.182  16.218 -0.0744 -0.3263  0.6867
 2651TIP3    H229369   2.973   0.321  16.265  0.8780 -0.0075 -0.9910
 2652TIP3   OH229370   6.193   2.245  15.815  0.5156  0.2865 -0.4570
 2652TIP3    H129371   6.227   2.244  15.725  1.1838 -0.9455 -0.2094
 2652TIP3    H229372   6.188   2.338  15.838 -1.5993  0.7229 -2.4695
 2653TIP3   OH229373   4.061   2.696  13.589  0.8629 -0.3431  0.3487
 2653TIP3    H129374   3.974   2.656  13.592  0.5053  0.4188  0.0127
 2653TIP3    H229375   4.091   2.683  13.499  1.2783 -0.9746  0.5693
 2654TIP3   OH229376   1.886   5.248   2.855  0.2654 -0.2476 -0.1770
 2654TIP3    H129377   1.849   5.180   2.911 -0.9792 -0.4593 -1.2568
 2654TIP3    H229378   1.873   5.216   2.766 -1.8354  2.1470 -0.7645
 2655TIP3   OH229379   5.246   3.361  11.549  0.6882  0.0701 -0.5417
 2655TIP3    H129380   5.244   3.365  11.453 -0.5001 -0.9545 -0.5801
 2655TIP3    H229381   5.217   3.272  11.570  0.7884  0.3329  0.7746
 2656TIP3   OH229382   4.953   2.246   6.272  0.7840  0.3602  0.1995
 2656TIP3    H129383   5.020   2.307   6.302  0.7388 -0.0282  1.1198
 2656TIP3    H229384   4.994   2.198   6.201  0.5385  2.0425 -1.1194
 2657TIP3   OH229385   2.792   3.352   4.670 -0.3289  0.2347  0.2394
 2657TIP3    H129386   2.887   3.357   4.665 -0.3351 -0.2343 -0.5082
 2657TIP3    H229387   2.775   3.267   4.711 -0.4321 -0.1746 -0.6281
 2658TIP3   OH229388   6.762   4.056   5.343  0.3370  0.0640 -0.3917
 2658TIP3    H129389   6.808   3.977   5.370  0.3232 -0.0488 -0.6864
 2658TIP3    H229390   6.698   4.072   5.412 -0.2145 -0.6536 -0.7335
 2659TIP3   OH229391   3.485   5.267   6.276  0.1213  0.3658 -0.1076
 2659TIP3    H129392   3.414   5.243   6.217 -0.0464  1.0700 -0.1964
 2659TIP3    H229393   3.470   5.214   6.355 -1.0669  1.2265  0.2571
 2660TIP3   OH229394   2.895   4.314  13.624  0.5207 -0.2413  0.5046
 2660TIP3    H129395   2.819   4.327  13.568  1.2519  1.3061 -0.1484
 2660TIP3    H229396   2.964   4.285  13.564  0.4551 -1.6490  1.0931
 2661TIP3   OH229397   5.124   6.305  16.141  0.1461  0.3764  0.2441
 2661TIP3    H129398   5.032   6.300  16.166  0.3334 -1.1942  0.6908
 2661TIP3    H229399   5.170   6.256  16.210  1.1466 -0.1313 -0.7707
 2662TIP3   OH229400   6.045   1.947  12.792 -0.3577 -0.3505  0.5831
 2662TIP3    H129401   6.115   2.012  12.794  1.3533 -2.0718 -1.2016
 2662TIP3    H229402   6.034   1.920  12.883  1.8618 -0.5930  0.8056
 2663TIP3   OH229403   6.147   4.425   3.571  0.0227 -0.1794 -0.7060
 2663TIP3    H129404   6.079   4.369   3.534 -0.1960  0.0337 -0.6247
 2663TIP3    H229405   6.136   4.508   3.526 -0.0934  0.0081 -0.3295
 2664TIP3   OH229406   0.128   2.064  13.940  0.2071 -0.1259  0.1762
 2664TIP3    H129407   0.075   2.027  13.869  0.2038  0.2782 -0.0367
 2664TIP3    H229408   0.206   2.098  13.896  0.7156 -0.8520  0.5065
 2665TIP3   OH229409   5.271   1.956  11.577  0.5810  0.4473  0.0804
 2665TIP3    H129410   5.324   1.887  11.538  1.1606  0.0402  1.5498
 2665TIP3    H229411   5.236   1.917  11.657 -0.7858  1.1813 -0.1409
 2666TIP3   OH229412   5.125   1.415   0.985  0.1000 -0.0191  0.0186
 2666TIP3    H129413   5.034   1.391   0.963  0.3739 -0.8235 -0.2571
 2666TIP3    H229414   5.178   1.345   0.947  1.0463  1.8045 -2.1098
 2667TIP3   OH229415   2.484   0.675  14.513 -0.1141 -0.0907 -0.1146
 2667TIP3    H129416   2.440   0.700  14.432  1.1058  1.1219 -0.4431
 2667TIP3    H229417   2.552   0.614  14.486  0.1804  0.1798 -0.0021
 2668TIP3   OH229418   1.491   3.579   1.166  0.5870 -0.4226 -0.4490
 2668TIP3    H129419   1.510   3.543   1.079  0.9920 -0.1443 -0.4790
 2668TIP3    H229420   1.577   3.595   1.204  0.4077 -0.2454 -0.1179
 2669TIP3   OH229421   0.557   4.106   0.982  0.4391  0.2825  0.2546
 2669TIP3    H129422   0.522   4.135   0.898 -0.2099  1.5349  0.9406
 2669TIP3    H229423   0.576   4.013   0.970  0.0415  0.3851 -1.1704
 2670TIP3   OH229424   6.506   6.722  13.780 -0.0544 -0.1504 -0.1937
 2670TIP3    H129425   6.436   6.786  13.789  0.3017  0.1931  0.1633
 2670TIP3    H229426   6.467   6.650  13.731 -0.5199  0.2441 -0.4016
 2671TIP3   OH229427   4.636   6.056   2.319 -0.2806 -0.2755 -0.6083
 2671TIP3    H129428   4.628   6.151   2.325 -0.2180 -0.3553  0.8248
 2671TIP3    H229429   4.729   6.038   2.329 -0.6281 -0.6826  2.4184
 2672TIP3   OH229430   4.717   3.231   6.181 -0.6405  0.1029  0.3133
 2672TIP3    H129431   4.774   3.293   6.225 -1.1168  1.9179 -1.5624
 2672TIP3    H229432   4.759   3.146   6.195 -0.2552  0.7153  3.3653
 2673TIP3   OH229433   3.653   6.022  10.771 -0.4203  0.1217  0.2105
 2673TIP3    H129434   3.707   5.973  10.709  0.0089  1.8018 -0.7798
 2673TIP3    H229435   3.677   6.113  10.757 -0.2345  0.5329  2.9548
 2674TIP3   OH229436   1.671   6.729  14.819 -0.2254 -0.3025 -0.0998
 2674TIP3    H129437   1.642   6.675  14.745 -2.2333  1.5383 -0.7285
 2674TIP3    H229438   1.729   6.795  14.779 -1.2972  0.6827 -0.0759
 2675TIP3   OH229439   3.398   4.920  14.729  0.0878 -0.1674 -0.2979
 2675TIP3    H129440   3.330   4.930  14.662 -0.2537  3.1264  0.4620
 2675TIP3    H229441   3.468   4.979  14.701  1.2185 -0.9897  0.7124
 2676TIP3   OH229442   1.695   2.021   0.144 -0.4997 -0.0169 -0.1905
 2676TIP3    H129443   1.690   2.048   0.052  0.1894  0.2477 -0.1487
 2676TIP3    H229444   1.605   2.032   0.176 -0.8731 -0.6642 -0.9815
 2677TIP3   OH229445   2.825   1.551  12.338  0.3237 -0.0779  0.1023
 2677TIP3    H129446   2.757   1.615  12.317 -0.2886 -1.0112 -0.7429
 2677TIP3    H229447   2.907   1.601  12.331 -0.2486  0.9876  0.9209
 2678TIP3   OH229448   3.693   0.566   3.269  0.6608  0.5110 -0.6708
 2678TIP3    H129449   3.759   0.516   3.222  0.2472  1.2067 -2.0067
 2678TIP3    H229450   3.614   0.559   3.215  0.5249  2.3708 -0.7487
 2679TIP3   OH229451   6.424   4.251  14.404  0.0501 -1.0322 -0.5172
 2679TIP3    H129452   6.399   4.177  14.460 -1.3703 -0.6029 -0.5718
 2679TIP3    H229453   6.468   4.210  14.329  1.2526 -1.6678  0.5129
 2680TIP3   OH229454   0.047   4.171   0.199  0.4624  0.5524  0.6621
 2680TIP3    H129455   0.099   4.153   0.120  0.4974  0.6737  0.6570
 2680TIP3    H229456  -0.012   4.096   0.206  0.0739  0.8125  0.2032
 2681TIP3   OH229457   2.141   5.191  17.035 -0.0317  0.2876 -0.2459
 2681TIP3    H129458   2.054   5.153  17.048  0.6418 -0.9223  1.0177
 2681TIP3    H229459   2.130   5.284  17.051 -1.3595  0.3419 -1.4393
 2682TIP3   OH229460   2.103   4.938   0.429 -0.2325  0.5315  0.3463
 2682TIP3    H129461   2.120   4.849   0.461 -2.4302  0.2690  0.8551
 2682TIP3    H229462   2.179   4.988   0.456  0.2084 -0.7965  1.6469
 2683TIP3   OH229463   6.369   5.471   4.793  0.0765  0.1118 -0.2237
 2683TIP3    H129464   6.396   5.390   4.749  2.1733  2.0596 -2.7169
 2683TIP3    H229465   6.312   5.514   4.730  0.7076  1.5523  0.1642
 2684TIP3   OH229466   0.241   2.093   5.821  0.2383 -0.2825 -0.1923
 2684TIP3    H129467   0.246   2.161   5.889 -1.8512  0.4072 -0.7020
 2684TIP3    H229468   0.233   2.011   5.871 -0.2681  0.1235  0.4096
 2685TIP3   OH229469   4.135   2.757  13.331  0.0599  0.0459 -0.4295
 2685TIP3    H129470   4.175   2.698  13.268 -1.0431  1.2462 -2.3342
 2685TIP3    H229471   4.203   2.822  13.349 -0.6106  1.4988 -2.8645
 2686TIP3   OH229472   5.873   2.481  13.399  0.6734 -0.1865 -0.3007
 2686TIP3    H129473   5.916   2.400  13.371 -0.7061 -1.3655  0.9228
 2686TIP3    H229474   5.829   2.458  13.481 -1.1619  1.3569 -0.8297
 2687TIP3   OH229475   5.019   3.154   0.407 -0.1747 -0.0597 -0.2393
 2687TIP3    H129476   4.926   3.134   0.394 -0.6638  1.6614  0.5556
 2687TIP3    H229477   5.033   3.236   0.361  1.1788 -0.7534 -1.1027
 2688TIP3   OH229478   0.719   0.117   4.292  0.5489  0.4956 -0.3075
 2688TIP3    H129479   0.750   0.208   4.293  1.5486  0.1690  2.4578
 2688TIP3    H229480   0.799   0.065   4.297 -0.1115 -0.4870  0.0735
 2689TIP3   OH229481   2.855   0.474   3.228 -0.3760 -0.1693 -0.2378
 2689TIP3    H129482   2.779   0.421   3.254  0.3871 -1.6730 -1.0374
 2689TIP3    H229483   2.928   0.437   3.277  0.2031  0.0192 -0.9595
 2690TIP3   OH229484   2.246   3.873   4.592 -0.5750  0.0565  0.8599
 2690TIP3    H129485   2.198   3.930   4.533  0.1195  0.7750  0.9773
 2690TIP3    H229486   2.208   3.786   4.578  0.8445 -0.1563 -2.0084
 2691TIP3   OH229487   2.425   0.225   4.824  0.4289  0.9375  0.4613
 2691TIP3    H129488   2.374   0.196   4.748  1.4654  0.4877 -0.0765
 2691TIP3    H229489   2.499   0.164   4.828  0.9273  1.5823  1.2236
 2692TIP3   OH229490   6.343   4.656  15.000 -0.0238 -0.8224 -0.3675
 2692TIP3    H129491   6.379   4.587  14.945  0.0885 -0.7371 -0.4019
 2692TIP3    H229492   6.248   4.652  14.986  0.1650  0.5502 -2.1410
 2693TIP3   OH229493   6.732   3.884  13.077  0.2126 -0.4404 -0.2524
 2693TIP3    H129494   6.814   3.835  13.068  0.7977 -0.2241  3.1055
 2693TIP3    H229495   6.753   3.955  13.137 -2.3712 -0.2482  0.4894
 2694TIP3   OH229496   0.436   4.966  15.134 -0.0174  0.3990  0.4649
 2694TIP3    H129497   0.369   5.034  15.127 -1.0509 -0.8393 -2.8880
 2694TIP3    H229498   0.388   4.887  15.155  0.6694 -0.0589  0.3182
 2695TIP3   OH229499   3.241   0.254   3.929  0.6751  0.7814 -0.1401
 2695TIP3    H129500   3.254   0.269   3.835  1.9600 -0.2466 -0.1415
 2695TIP3    H229501   3.146   0.259   3.941  0.3966 -0.2161 -1.7093
 2696TIP3   OH229502   3.371   4.191   5.801  0.2489 -0.8813 -0.1778
 2696TIP3    H129503   3.401   4.103   5.825  1.7468  0.0041  1.3818
 2696TIP3    H229504   3.358   4.187   5.706 -0.1367 -2.8925 -0.0661
 2697TIP3   OH229505   5.336   0.538  12.592 -0.2752 -0.1507  0.3934
 2697TIP3    H129506   5.398   0.534  12.519  0.1423 -1.2089  0.7989
 2697TIP3    H229507   5.310   0.630  12.596 -0.3581 -0.0949 -1.1346
 2698TIP3   OH229508   4.407   1.384   3.135  0.2506  0.5444  0.1603
 2698TIP3    H129509   4.376   1.405   3.047 -0.7896  0.3067  0.4575
 2698TIP3    H229510   4.457   1.303   3.124 -0.5626  0.0654 -0.0930
 2699TIP3   OH229511   5.372   6.616  13.951  0.5889 -0.2269 -0.7452
 2699TIP3    H129512   5.457   6.627  13.909  0.3371 -0.1612 -1.2411
 2699TIP3    H229513   5.334   6.704  13.953 -0.3293 -0.5710 -2.3734
 2700TIP3   OH229514   2.285   3.761  10.992  0.4307  0.1170  0.4138
 2700TIP3    H129515   2.307   3.673  10.963 -3.7451 -0.5829 -0.9566
 2700TIP3    H229516   2.290   3.815  10.913  1.4320  0.7843  0.9317
 2701TIP3   OH229517   0.533   0.146  16.742 -0.4746 -0.1532 -0.1140
 2701TIP3    H129518   0.588   0.216  16.706  0.1260 -1.0693 -1.0153
 2701TIP3    H229519   0.460   0.138  16.681 -0.7452 -0.0567  0.1938
 2702TIP3   OH229520   4.959   1.749   4.594  0.1679 -0.2496  0.4564
 2702TIP3    H129521   4.927   1.826   4.640  0.3898 -0.3047  0.7074
 2702TIP3    H229522   4.951   1.678   4.658  1.0688 -0.2065  0.6223
 2703TIP3   OH229523   5.174   6.717   6.270 -0.5494 -0.4304  0.4236
 2703TIP3    H129524   5.218   6.632   6.271 -1.7965 -1.1088 -0.8047
 2703TIP3    H229525   5.226   6.770   6.210 -0.2068 -0.5500  0.6101
 2704TIP3   OH229526   2.887   0.609  14.307 -0.2895  0.4367  0.1311
 2704TIP3    H129527   2.834   0.682  14.274 -1.4092 -0.7642 -0.8201
 2704TIP3    H229528   2.854   0.532  14.259  3.3544 -0.1488 -1.6185
 2705TIP3   OH229529   1.294   2.585   5.359 -0.0557 -0.3984 -0.6157
 2705TIP3    H129530   1.288   2.538   5.276  2.3311 -1.5244 -0.2254
 2705TIP3    H229531   1.366   2.646   5.347 -1.1166  0.9723 -0.0822
 2706TIP3   OH229532   4.659   6.063   0.409 -0.1396 -0.8535  0.0813
 2706TIP3    H129533   4.604   6.012   0.468 -1.8685  1.1687  0.3001
 2706TIP3    H229534   4.607   6.072   0.330  0.2119  0.4026 -0.0199
 2707TIP3   OH229535   2.856   5.081   0.397 -0.3605 -0.0543 -0.4655
 2707TIP3    H129536   2.823   5.104   0.484 -0.1307  0.6512 -0.5616
 2707TIP3    H229537   2.951   5.073   0.410 -0.3353 -0.0299 -0.6419
 2708TIP3   OH229538   5.808   5.261  11.109 -0.6051 -0.2558 -0.1254
 2708TIP3    H129539   5.730   5.297  11.068 -0.7158 -0.6389 -0.2581
 2708TIP3    H229540   5.803   5.167  11.091  0.7346 -0.0800 -1.5836
 2709TIP3   OH229541   5.256   2.334  16.257 -0.0778  0.1799 -0.4985
 2709TIP3    H129542   5.319   2.331  16.329  1.5752  1.9328 -1.8181
 2709TIP3    H229543   5.289   2.270  16.194 -1.5952 -1.4485  0.3167
 2710TIP3   OH229544   6.369   3.183  15.719  0.3572 -0.4067  0.1080
 2710TIP3    H129545   6.353   3.092  15.745  0.7893 -0.4406  0.2513
 2710TIP3    H229546   6.290   3.230  15.747 -0.0011 -0.7935 -0.2503
 2711TIP3   OH229547   6.264   2.786   4.169  0.7927  0.3682 -0.0335
 2711TIP3    H129548   6.173   2.759   4.156  0.2254  1.9695  0.4902
 2711TIP3    H229549   6.275   2.789   4.264  2.3538 -2.8636 -0.0438
 2712TIP3   OH229550   6.740   0.798  14.959 -0.1275  0.5851  0.4188
 2712TIP3    H129551   6.818   0.747  14.983  0.7453  0.3171 -2.7910
 2712TIP3    H229552   6.667   0.738  14.970  0.8844 -1.4167 -3.2228
 2713TIP3   OH229553   3.784   5.446  11.966 -1.4924 -0.5266  0.2810
 2713TIP3    H129554   3.873   5.440  12.002 -1.1357 -1.8742 -0.7783
 2713TIP3    H229555   3.745   5.520  12.011  1.2647  2.2077 -1.5588
 2714TIP3   OH229556   6.575   3.687   6.286  0.5824 -0.0698  0.1956
 2714TIP3    H129557   6.515   3.637   6.231  1.3615 -0.6440 -0.1355
 2714TIP3    H229558   6.525   3.765   6.311 -0.8149 -1.2479  1.1321
 2715TIP3   OH229559   6.711   5.889  15.936 -0.0840  0.1912  0.6449
 2715TIP3    H129560   6.622   5.889  15.901  1.0515 -3.5438 -2.5837
 2715TIP3    H229561   6.751   5.969  15.902 -2.0540  1.7362  1.8812
 2716TIP3   OH229562   5.534   1.695   5.209 -0.4887 -0.2806  0.0786
 2716TIP3    H129563   5.580   1.613   5.228  0.3118  0.4257  1.2702
 2716TIP3    H229564   5.448   1.668   5.177 -0.9598 -1.5784  2.3678
 2717TIP3   OH229565   4.435   2.028   0.314  0.1394 -0.2088 -0.5294
 2717TIP3    H129566   4.505   1.974   0.350 -0.6415 -2.3977 -2.1553
 2717TIP3    H229567   4.476   2.076   0.242 -0.1068 -1.8524 -1.7911
 2718TIP3   OH229568   2.858   4.063  13.292 -0.0402 -0.0149  0.4591
 2718TIP3    H129569   2.939   4.104  13.324 -0.3368  1.2545 -0.4001
 2718TIP3    H229570   2.847   3.986  13.348  1.1611  0.4212  1.3233
 2719TIP3   OH229571   1.259   1.014  14.837 -0.5243  0.0544 -1.1350
 2719TIP3    H129572   1.271   1.024  14.932 -0.2441 -0.2300 -1.1390
 2719TIP3    H229573   1.165   1.029  14.823 -0.8256 -1.2308 -0.6317
 2720TIP3   OH229574   3.582   4.325   5.920 -0.1269  0.3175 -0.9457
 2720TIP3    H129575   3.596   4.266   5.994  1.5285 -0.7514 -2.0803
 2720TIP3    H229576   3.497   4.299   5.884 -0.4655  0.1661 -0.0526
 2721TIP3   OH229577   2.837   0.935   1.463  0.0806 -0.9148 -0.3160
 2721TIP3    H129578   2.838   0.842   1.441  1.2448 -1.3945  1.5669
 2721TIP3    H229579   2.879   0.939   1.549 -1.1343  1.2096  0.2138
 2722TIP3   OH229580   2.570   2.776   5.353  0.0624  0.0614 -0.5016
 2722TIP3    H129581   2.511   2.751   5.282 -1.8143 -0.0142  1.0419
 2722TIP3    H229582   2.656   2.746   5.325 -0.5669  0.4424 -2.9455
 2723TIP3   OH229583   1.419   1.542   0.728 -0.9016 -0.4557 -0.4519
 2723TIP3    H129584   1.504   1.501   0.746 -0.7123 -0.6809 -1.8148
 2723TIP3    H229585   1.435   1.636   0.739 -0.4386 -0.4856 -0.8638
 2724TIP3   OH229586   4.581   4.292  11.841  0.2924 -0.1975 -0.6483
 2724TIP3    H129587   4.542   4.377  11.822 -1.9641 -1.0875 -0.1995
 2724TIP3    H229588   4.518   4.228  11.806 -0.5750 -1.7691  3.4538
 2725TIP3   OH229589   2.042   2.072   3.349  0.5163 -0.0725  0.0387
 2725TIP3    H129590   1.977   2.143   3.353 -0.2674 -0.8725  2.3662
 2725TIP3    H229591   2.093   2.083   3.430  1.6900 -0.9663 -0.5727
 2726TIP3   OH229592   2.145   1.673  12.861  0.0923 -0.2055 -0.1893
 2726TIP3    H129593   2.132   1.724  12.781 -1.5625 -0.8733 -0.3642
 2726TIP3    H229594   2.235   1.641  12.855 -0.0777 -0.4229 -1.8904
 2727TIP3   OH229595   3.567   0.395  14.638  0.3144  0.0436 -0.4545
 2727TIP3    H129596   3.594   0.318  14.688  0.8770  1.2091  1.0781
 2727TIP3    H229597   3.641   0.455  14.645 -0.7693  1.3704 -0.2565
 2728TIP3   OH229598   6.193   4.881   4.361 -0.0977 -0.1752  0.4253
 2728TIP3    H129599   6.222   4.963   4.320  0.8217 -0.7144 -0.0171
 2728TIP3    H229600   6.243   4.813   4.315 -0.0217 -0.8872  1.5591
 2729TIP3   OH229601   2.033   4.986   1.627  0.3828 -0.0701 -0.3291
 2729TIP3    H129602   2.116   4.978   1.674  1.1174  0.7532 -1.4613
 2729TIP3    H229603   2.050   5.050   1.558 -0.9870 -0.4323 -1.0336
 2730TIP3   OH229604   6.281   0.179  13.419  0.5439  0.1333 -0.3498
 2730TIP3    H129605   6.269   0.239  13.492 -2.3405 -1.5439  0.6334
 2730TIP3    H229606   6.267   0.234  13.341 -1.7639  0.8345  0.5190
 2731TIP3   OH229607   1.486   1.790   5.799 -0.0341 -0.0903  0.3716
 2731TIP3    H129608   1.469   1.698   5.779 -2.0201 -0.1734  2.3021
 2731TIP3    H229609   1.581   1.794   5.813  0.4254 -1.3280 -2.1252
 2732TIP3   OH229610   2.443   1.939   2.144 -0.6274 -0.1261  0.4309
 2732TIP3    H129611   2.494   1.902   2.072 -0.7159  0.2412  0.1763
 2732TIP3    H229612   2.362   1.971   2.103 -1.0316 -0.6497  0.8268
 2733TIP3   OH229613   2.832   3.256   4.934 -0.2042 -0.4551 -0.3748
 2733TIP3    H129614   2.841   3.201   5.011  1.3484 -1.8746 -1.5249
 2733TIP3    H229615   2.869   3.341   4.959  1.5812 -1.3393 -0.0002
 2734TIP3   OH229616   6.161   4.566  11.995 -0.5182 -0.0047  0.0564
 2734TIP3    H129617   6.068   4.549  12.015 -0.8083 -0.6599 -1.7940
 2734TIP3    H229618   6.202   4.480  12.002 -0.0655  0.2604  0.7065
 2735TIP3   OH229619   3.257   2.925  12.308  0.1157 -0.5017 -0.1139
 2735TIP3    H129620   3.207   2.851  12.343  0.1595 -0.6002 -0.2615
 2735TIP3    H229621   3.333   2.885  12.265  0.8132 -0.3129  0.9126
 2736TIP3   OH229622   0.326   0.981   0.782 -0.4832  0.0706  0.0852
 2736TIP3    H129623   0.316   0.954   0.691 -3.1956 -2.0747  0.9418
 2736TIP3    H229624   0.406   0.938   0.812  0.4306  0.8082 -1.2476
 2737TIP3   OH229625   2.758   4.144   3.888  0.1471  0.0616 -0.2198
 2737TIP3    H129626   2.798   4.109   3.808 -0.4504 -0.3800 -0.3291
 2737TIP3    H229627   2.817   4.214   3.916 -0.1308  0.8561 -1.5853
 2738TIP3   OH229628   4.354   6.785   0.183  0.1045 -0.2093  0.4011
 2738TIP3    H129629   4.364   6.864   0.131  3.2506 -0.7434  0.0851
 2738TIP3    H229630   4.271   6.747   0.153  1.2583  0.0886 -3.4825
 2739TIP3   OH229631   0.701   1.650   1.290  0.0290 -0.7431 -0.0926
 2739TIP3    H129632   0.718   1.563   1.255  1.5013  0.2643 -1.9894
 2739TIP3    H229633   0.719   1.710   1.217 -0.7345  1.1661  1.2225
 2740TIP3   OH229634   3.116   2.631  14.658 -0.2279  0.4774 -0.3349
 2740TIP3    H129635   3.044   2.574  14.686 -0.7020  1.5285  0.6474
 2740TIP3    H229636   3.094   2.717  14.694  1.4048  0.8682 -0.2085
 2741TIP3   OH229637   1.164   1.781   5.642 -0.5898  0.1573  0.1908
 2741TIP3    H129638   1.195   1.735   5.564 -2.5717 -0.7219 -0.0911
 2741TIP3    H229639   1.229   1.851   5.656  1.2108 -1.2971 -0.6876
 2742TIP3   OH229640   2.428   3.465  13.347  0.2977 -0.2210 -0.5325
 2742TIP3    H129641   2.474   3.389  13.382 -0.0474 -0.3390 -0.3272
 2742TIP3    H229642   2.466   3.479  13.260  3.4069  2.0324  1.1171
 2743TIP3   OH229643   2.844   2.561  15.241 -0.1875  0.4058  0.0290
 2743TIP3    H129644   2.792   2.628  15.285 -0.1878 -0.3147  1.1414
 2743TIP3    H229645   2.815   2.563  15.150 -2.9246 -0.6921  0.8270
 2744TIP3   OH229646   0.360   3.729  14.758  0.4372 -0.1643  0.8056
 2744TIP3    H129647   0.338   3.646  14.716  2.2746 -0.3130  0.1178
 2744TIP3    H229648   0.381   3.705  14.849  0.8604 -0.4361  0.6342
 2745TIP3   OH229649   5.437   2.672  13.635 -0.2915  0.2924  0.4836
 2745TIP3    H129650   5.441   2.598  13.695  1.2426 -1.2695 -1.4781
 2745TIP3    H229651   5.382   2.642  13.563  0.6458  0.8920 -0.5039
 2746TIP3   OH229652   5.337   6.498  16.661 -0.3447  0.0483 -0.2717
 2746TIP3    H129653   5.336   6.415  16.709 -1.4730  0.3846  0.3036
 2746TIP3    H229654   5.331   6.472  16.569  2.9463 -0.6487 -0.3586
 2747TIP3   OH229655   6.197   0.621  13.230 -0.3578  0.0431  0.0337
 2747TIP3    H129656   6.185   0.557  13.159  0.1563  0.1908 -0.1929
 2747TIP3    H229657   6.291   0.617  13.250 -0.0916  1.6107 -0.8231
 2748TIP3   OH229658   1.262   6.564  16.736 -0.4343  1.2803  0.4928
 2748TIP3    H129659   1.335   6.622  16.758  0.0924  0.9220 -0.3103
 2748TIP3    H229660   1.290   6.477  16.766 -0.6979  1.2122  0.5434
 2749TIP3   OH229661   3.288   0.778   2.793  0.1793 -0.4615  0.5122
 2749TIP3    H129662   3.198   0.777   2.826  0.3110 -1.6319  0.8540
 2749TIP3    H229663   3.318   0.867   2.808 -0.1915 -0.6426  2.4126
 2750TIP3   OH229664   0.313   5.065   1.357  0.2424  0.1015 -0.5121
 2750TIP3    H129665   0.232   5.114   1.349  0.0420  0.3529  2.4214
 2750TIP3    H229666   0.382   5.131   1.360  0.2255  0.0754  0.5968
 2751TIP3   OH229667   5.828   0.186   0.649 -0.2038 -0.0167  0.2136
 2751TIP3    H129668   5.781   0.201   0.731  0.7770  0.0758  0.7638
 2751TIP3    H229669   5.919   0.177   0.675  0.4114  2.0228 -1.0657
 2752TIP3   OH229670   4.720   4.922   4.444  0.9157  0.0211 -0.1931
 2752TIP3    H129671   4.760   4.951   4.526  0.3058  1.7634 -0.4794
 2752TIP3    H229672   4.719   5.001   4.389 -0.8813 -0.5231 -0.9877
 2753TIP3   OH229673   2.808   2.652  17.073 -0.4737  0.7043  0.0355
 2753TIP3    H129674   2.806   2.620  17.163  0.7510  2.0901  0.5863
 2753TIP3    H229675   2.720   2.685  17.056 -1.0890 -0.8072  0.2450
 2754TIP3   OH229676   3.313   6.226  13.251  0.2614 -0.3559 -0.1004
 2754TIP3    H129677   3.363   6.282  13.311 -1.5316 -1.0044  2.1051
 2754TIP3    H229678   3.379   6.185  13.195  1.9012  1.1827  0.6705
 2755TIP3   OH229679   4.720   3.298   3.046  0.4514 -0.1805  0.1480
 2755TIP3    H129680   4.709   3.204   3.061  1.5028 -0.0256  1.9595
 2755TIP3    H229681   4.677   3.340   3.121  1.6323  0.7388  0.3268
 2756TIP3   OH229682   1.825   1.025  11.033  0.4408  0.5459 -0.1415
 2756TIP3    H129683   1.770   1.059  11.104  0.3401 -2.0088  1.0427
 2756TIP3    H229684   1.762   0.998  10.966 -0.0077 -4.0711  1.9508
 2757TIP3   OH229685   1.432   2.492  12.596 -0.7367  0.0398  0.5284
 2757TIP3    H129686   1.486   2.453  12.665 -0.8865 -1.9804 -0.4781
 2757TIP3    H229687   1.456   2.584  12.596 -1.0213  0.1555  3.5598
 2758TIP3   OH229688   0.804   0.780   2.035  0.8377  0.2364  0.1954
 2758TIP3    H129689   0.714   0.798   2.062  1.2625 -0.5662  2.1965
 2758TIP3    H229690   0.818   0.688   2.056  1.7148 -0.0065 -1.3402
 2759TIP3   OH229691   3.210   1.242  16.631  0.1071 -0.2733  0.4662
 2759TIP3    H129692   3.176   1.268  16.717 -0.7147  1.3651 -0.3254
 2759TIP3    H229693   3.159   1.294  16.569  0.6960 -1.4457 -1.0175
 2760TIP3   OH229694   1.450   2.785   1.271  0.6406  0.2898 -0.1337
 2760TIP3    H129695   1.435   2.814   1.361 -0.6378 -0.2622 -0.1416
 2760TIP3    H229696   1.535   2.741   1.273  0.5353  0.1207  0.8579
 2761TIP3   OH229697   6.751   4.597  11.430  0.3541 -0.3945 -0.5647
 2761TIP3    H129698   6.720   4.652  11.359  2.7763  1.9418  0.1056
 2761TIP3    H229699   6.841   4.576  11.407  0.3067 -1.8737  0.5078
 2762TIP3   OH229700   4.540   3.518  16.289  0.5463 -0.6302  0.3701
 2762TIP3    H129701   4.481   3.525  16.364  0.2815 -0.0277  0.1122
 2762TIP3    H229702   4.610   3.580  16.307 -0.2808  0.5879 -0.5643
 2763TIP3   OH229703   1.885   3.100   0.992  0.1424  0.4977 -0.3531
 2763TIP3    H129704   1.833   3.032   1.035  0.0767  0.6003 -0.2663
 2763TIP3    H229705   1.915   3.156   1.064 -1.1464  1.4808 -0.5446
 2764TIP3   OH229706   2.368   1.040  12.803  0.4129  0.4315 -0.5825
 2764TIP3    H129707   2.343   1.129  12.828  1.6960  0.8471 -0.7590
 2764TIP3    H229708   2.402   1.001  12.883  0.5309  0.3393 -0.6773
 2765TIP3   OH229709   2.413   2.113  12.164 -0.0389 -0.3165  0.3173
 2765TIP3    H129710   2.462   2.156  12.234 -0.8974  2.8609 -0.9521
 2765TIP3    H229711   2.475   2.109  12.091 -0.5273  0.4586 -0.1476
 2766TIP3   OH229712   4.465   3.400   0.265 -0.1872  0.1937  0.0565
 2766TIP3    H129713   4.482   3.335   0.197 -1.2705 -1.3482  1.2310
 2766TIP3    H229714   4.541   3.393   0.324  0.4808  1.1442 -0.6671
 2767TIP3   OH229715   3.304   0.299  12.019  0.4531  0.3187  0.4493
 2767TIP3    H129716   3.351   0.234  11.967 -0.9971 -0.6582  0.3413
 2767TIP3    H229717   3.239   0.336  11.960  0.5027  1.0437  0.8429
 2768TIP3   OH229718   0.853   2.940   5.733 -0.2769  0.3440 -0.3128
 2768TIP3    H129719   0.822   2.851   5.719 -3.1579  0.9773  1.6570
 2768TIP3    H229720   0.944   2.929   5.761 -0.1253 -1.8491 -1.5682
 2769TIP3   OH229721   4.908   3.906  11.719  0.2543  0.1195 -0.0230
 2769TIP3    H129722   4.835   3.900  11.658  2.2437 -0.2123 -2.4354
 2769TIP3    H229723   4.873   3.872  11.802 -2.0251 -0.9945 -1.4113
 2770TIP3   OH229724   4.116   2.171   6.098 -0.1080  0.3846 -0.4366
 2770TIP3    H129725   4.164   2.120   6.032 -1.1500 -0.8636 -0.2436
 2770TIP3    H229726   4.101   2.109   6.169  0.1821  1.4705  0.5764
 2771TIP3   OH229727   0.132   3.587  10.754  0.2070 -0.3547 -0.0331
 2771TIP3    H129728   0.132   3.514  10.815  0.6937 -0.1942  0.1659
 2771TIP3    H229729   0.074   3.560  10.683 -3.0328  0.7804  2.0570
 2772TIP3   OH229730   5.363   5.347   1.845  0.6494 -0.3025 -0.3006
 2772TIP3    H129731   5.293   5.412   1.853  0.7192 -0.4536  1.8041
 2772TIP3    H229732   5.336   5.275   1.903  3.0796  0.1343  1.4513
 2773TIP3   OH229733   5.960   3.743   2.066 -0.3543  0.1139  0.1092
 2773TIP3    H129734   5.894   3.688   2.024  2.2201 -1.9771 -1.3084
 2773TIP3    H229735   6.024   3.681   2.102  2.2877  2.1035 -0.9784
 2774TIP3   OH229736   4.970   5.685   3.934 -0.5007 -0.2017  0.1696
 2774TIP3    H129737   4.954   5.666   3.842 -1.8698  0.1255  0.3383
 2774TIP3    H229738   5.066   5.685   3.942 -0.3336  1.1398 -1.5419
 2775TIP3   OH229739   0.797   2.888   2.191  0.0847  0.4793 -0.0975
 2775TIP3    H129740   0.825   2.804   2.155 -2.5244  0.0850 -1.3106
 2775TIP3    H229741   0.854   2.952   2.149  1.1438 -0.5283 -0.2448
 2776TIP3   OH229742   4.642   4.216   4.724  0.5834 -0.0623 -0.8625
 2776TIP3    H129743   4.724   4.213   4.674  0.8155  0.1805 -0.4941
 2776TIP3    H229744   4.667   4.188   4.812  0.1034 -0.8443 -0.9791
 2777TIP3   OH229745   1.833   1.377   5.805 -0.1352 -0.1498  0.6478
 2777TIP3    H129746   1.818   1.366   5.711 -2.2692 -1.4666  1.1047
 2777TIP3    H229747   1.751   1.412   5.838  0.2482 -0.6845  2.1946
 2778TIP3   OH229748   6.131   4.543  12.659  0.4126  0.0933  0.5638
 2778TIP3    H129749   6.130   4.506  12.747 -0.0986 -1.6151 -0.1432
 2778TIP3    H229750   6.222   4.534  12.631  0.3822 -0.2160  0.5629
 2779TIP3   OH229751   1.941   0.055  12.044 -0.6659 -0.0397 -0.4240
 2779TIP3    H129752   1.894   0.079  12.124 -1.5397 -0.4259 -0.8098
 2779TIP3    H229753   2.029   0.032  12.073 -0.7641  0.5395  0.3326
 2780TIP3   OH229754   1.114   0.709   3.758  0.0457 -0.1663 -0.2724
 2780TIP3    H129755   1.022   0.689   3.768  0.5645 -2.3781  0.2420
 2780TIP3    H229756   1.133   0.691   3.665 -0.1862  1.0204 -0.5653
 2781TIP3   OH229757   0.064   6.741   1.354  0.4000 -0.3434 -0.5504
 2781TIP3    H129758   0.143   6.764   1.404  0.4721 -2.3818  0.2946
 2781TIP3    H229759   0.001   6.810   1.376  1.8908  1.2439 -1.1517
 2782TIP3   OH229760   2.081   4.088  13.287 -0.2727  0.2122  0.1626
 2782TIP3    H129761   2.031   4.008  13.305  1.3174 -0.9882 -0.6711
 2782TIP3    H229762   2.109   4.119  13.373 -0.0413 -0.6882  0.4120
 2783TIP3   OH229763   4.337   1.574   3.828 -0.4634 -0.4873  0.6781
 2783TIP3    H129764   4.391   1.652   3.840 -0.3823 -0.6042  1.0747
 2783TIP3    H229765   4.313   1.548   3.917 -3.8449  1.4121  0.4075
 2784TIP3   OH229766   1.656   5.704   2.429  0.4190  0.4778  0.3869
 2784TIP3    H129767   1.719   5.639   2.460 -0.8897 -0.5751  0.8930
 2784TIP3    H229768   1.673   5.712   2.335  2.0339  1.0292  0.7205
 2785TIP3   OH229769   1.021   6.719  11.439 -0.1212  0.1568 -0.2327
 2785TIP3    H129770   1.068   6.658  11.381 -1.0419 -1.7287  0.9585
 2785TIP3    H229771   0.929   6.695  11.430 -0.6045  1.9933 -0.4319
 2786TIP3   OH229772   0.153   3.723   3.169 -0.4452  0.7593  0.2138
 2786TIP3    H129773   0.130   3.665   3.098  0.3933  1.5772 -0.7539
 2786TIP3    H229774   0.076   3.726   3.225 -0.8623 -0.4226 -0.2938
 2787TIP3   OH229775   6.153   6.494   4.288 -0.5185  0.6959  0.4145
 2787TIP3    H129776   6.225   6.543   4.248 -0.5633 -0.1616 -0.7477
 2787TIP3    H229777   6.180   6.482   4.379  1.0484 -0.0294 -0.1203
 2788TIP3   OH229778   5.870   1.958   5.367  0.6221  0.2596 -0.1286
 2788TIP3    H129779   5.859   1.923   5.279  0.9364  2.4626 -1.0725
 2788TIP3    H229780   5.781   1.969   5.400  0.4835  0.1037 -0.4533
 2789TIP3   OH229781   4.886   1.754   0.770 -0.4153 -0.2663  0.5088
 2789TIP3    H129782   4.953   1.819   0.748 -1.3871  0.4263 -0.4098
 2789TIP3    H229783   4.803   1.796   0.751 -1.1043 -1.4205  0.8689
 2790TIP3   OH229784   4.407   1.315  13.238  0.0495 -0.1819 -0.1742
 2790TIP3    H129785   4.332   1.292  13.293 -0.8928  0.3651 -1.1948
 2790TIP3    H229786   4.435   1.401  13.270  1.1353 -1.0243  1.1315
 2791TIP3   OH229787   5.708   2.796  12.977  0.3339 -0.0806  0.9491
 2791TIP3    H129788   5.661   2.712  12.975  1.0752 -0.5035  1.1643
 2791TIP3    H229789   5.756   2.794  13.059 -1.4451  1.5499  2.0699
 2792TIP3   OH229790   5.261   4.504   0.402  0.1336  0.3462 -0.0871
 2792TIP3    H129791   5.256   4.410   0.386  1.7124  0.1739  0.3457
 2792TIP3    H229792   5.282   4.541   0.316  1.7792  0.0739  0.1823
 2793TIP3   OH229793   2.798   4.169   0.798 -0.0364 -0.2372 -0.2044
 2793TIP3    H129794   2.812   4.262   0.817  1.2425 -0.4648  0.0079
 2793TIP3    H229795   2.862   4.149   0.729 -1.5088 -0.5288 -1.5157
 2794TIP3   OH229796   2.748   5.572   6.368  0.2504 -0.0007  0.6210
 2794TIP3    H129797   2.690   5.641   6.336 -0.2620 -0.2782  0.9326
 2794TIP3    H229798   2.796   5.613   6.440  2.0990  0.9093 -1.0788
 2795TIP3   OH229799   3.325   3.061   2.676  0.3867 -0.1531 -0.2323
 2795TIP3    H129800   3.306   3.151   2.704  0.4686 -0.3777  0.5732
 2795TIP3    H229801   3.421   3.058   2.674  0.3799 -0.1491 -0.4980
 2796TIP3   OH229802   2.022   1.822   6.033  1.0293  0.1244 -0.0015
 2796TIP3    H129803   2.008   1.748   6.093  1.2533  0.8592  0.9605
 2796TIP3    H229804   1.959   1.888   6.062  1.0595  0.4424 -0.6570
 2797TIP3   OH229805   3.755   6.352  12.290 -0.0974  0.7814 -0.9963
 2797TIP3    H129806   3.734   6.369  12.381  0.1670  1.8808 -1.1337
 2797TIP3    H229807   3.817   6.279  12.292 -0.9697  0.0415 -0.3759
 2798TIP3   OH229808   5.154   6.432   0.065 -0.1874 -0.2515 -0.0677
 2798TIP3    H129809   5.249   6.444   0.067  0.0792 -1.3835 -2.9942
 2798TIP3    H229810   5.139   6.344   0.098 -0.2096 -0.1320  0.2424
 2799TIP3   OH229811   0.018   3.807   4.857  0.0560 -0.4126 -0.8520
 2799TIP3    H129812   0.022   3.711   4.856  0.8492 -0.3743 -1.2068
 2799TIP3    H229813   0.017   3.832   4.765  0.1389 -0.0698 -0.7592
 2800TIP3   OH229814   1.041   2.876   3.214  0.2944  0.3348  0.7348
 2800TIP3    H129815   1.030   2.786   3.183  1.2163  0.5432 -0.1994
 2800TIP3    H229816   1.136   2.890   3.213  0.2341  0.9014  2.0730
 2801TIP3   OH229817   1.703   2.575  16.054 -0.3356  0.4478 -0.4340
 2801TIP3    H129818   1.749   2.491  16.060  0.3571  0.6305 -2.6308
 2801TIP3    H229819   1.760   2.629  15.999 -1.1776  2.0795  0.2658
 2802TIP3   OH229820   2.773   1.993  12.883  0.3374  0.4477  0.3383
 2802TIP3    H129821   2.738   1.972  12.969  2.9150 -0.8765  1.1290
 2802TIP3    H229822   2.775   1.909  12.837  3.0359  0.3283  0.5835
 2803TIP3   OH229823   6.414   0.104   3.107  0.1586 -0.0936 -0.1299
 2803TIP3    H129824   6.359   0.159   3.162  0.5384  0.7353 -0.5748
 2803TIP3    H229825   6.503   0.121   3.136  0.1381 -2.2595  1.3306
 2804TIP3   OH229826   3.312   4.486   3.871 -0.9467 -0.0063  0.1557
 2804TIP3    H129827   3.308   4.557   3.807 -0.6550  1.2469  1.5153
 2804TIP3    H229828   3.283   4.526   3.953 -1.0514 -1.5297  0.8745
 2805TIP3   OH229829   6.728   4.041  11.076 -0.1596  0.2194  0.1603
 2805TIP3    H129830   6.813   4.085  11.090 -0.5517  0.9102  0.4344
 2805TIP3    H229831   6.751   3.951  11.053  0.6151 -0.4376  3.2228
 2806TIP3   OH229832   3.409   0.491   5.907 -0.1384  0.0341  0.1498
 2806TIP3    H129833   3.380   0.524   5.992  1.2503  2.3668 -0.2641
 2806TIP3    H229834   3.501   0.470   5.920  0.0693  0.3811 -0.7702
 2807TIP3   OH229835   2.419   1.925  12.801 -0.2127 -0.4804  0.0870
 2807TIP3    H129836   2.393   1.890  12.716  0.5030 -2.6663  0.7297
 2807TIP3    H229837   2.460   2.009  12.781 -1.8400 -0.0329 -1.5187
 2808TIP3   OH229838   1.330   1.547  10.703 -0.3908 -0.4786 -0.2916
 2808TIP3    H129839   1.306   1.638  10.723  1.1261 -0.3532  1.0254
 2808TIP3    H229840   1.410   1.553  10.652 -0.1864 -1.0826 -0.0506
 2809TIP3   OH229841   5.821   5.835  13.942 -0.3441 -0.0091 -0.3233
 2809TIP3    H129842   5.776   5.771  13.997  2.1353 -0.0305  1.8191
 2809TIP3    H229843   5.766   5.913  13.945 -0.4473 -0.1321  1.9413
 2810TIP3   OH229844   4.047   3.066   2.841  0.5058 -0.6533  0.0638
 2810TIP3    H129845   4.001   3.149   2.829  0.0910 -1.0212 -1.0163
 2810TIP3    H229846   4.109   3.062   2.769 -1.3138 -2.4604 -1.4925
 2811TIP3   OH229847   2.895   2.443   5.015  0.0662  0.1279  0.3706
 2811TIP3    H129848   2.989   2.425   5.012 -0.1250 -0.7206 -0.6103
 2811TIP3    H229849   2.862   2.386   5.084 -0.3040 -2.3063 -1.7577
 2812TIP3   OH229850   4.240   6.559  13.626  0.0665  0.0381  0.2368
 2812TIP3    H129851   4.298   6.484  13.613 -2.7520 -2.3345  0.9352
 2812TIP3    H229852   4.289   6.633  13.589  2.6558 -2.2000 -1.0230
 2813TIP3   OH229853   4.470   4.832   1.759 -0.6050  0.1415  0.1838
 2813TIP3    H129854   4.420   4.913   1.770 -0.1103  0.5456 -0.4363
 2813TIP3    H229855   4.504   4.838   1.669 -1.4051 -1.2308 -0.2238
 2814TIP3   OH229856   2.892   2.541  13.941 -0.3616  0.1426  0.1135
 2814TIP3    H129857   2.963   2.568  13.883 -0.2226 -1.6917 -0.6139
 2814TIP3    H229858   2.925   2.461  13.983 -1.5727 -0.1179  0.5943
 2815TIP3   OH229859   6.593   0.953   1.224 -0.4571 -0.7041  0.1161
 2815TIP3    H129860   6.681   0.943   1.186  0.7193  0.5773  2.3677
 2815TIP3    H229861   6.594   0.892   1.298 -1.4274 -0.5667  0.2361
 2816TIP3   OH229862   0.646   3.124   6.325 -0.6833  0.2852 -0.1791
 2816TIP3    H129863   0.563   3.170   6.336 -1.3279 -1.4861  3.0012
 2816TIP3    H229864   0.622   3.032   6.315  0.8944 -0.3594  1.5732
 2817TIP3   OH229865   4.865   5.854   5.261  0.0605  0.5217 -0.2828
 2817TIP3    H129866   4.951   5.810   5.264  0.1213  0.6892  0.4482
 2817TIP3    H229867   4.802   5.782   5.269  0.1337  0.4216 -0.5817
 2818TIP3   OH229868   4.002   1.806  16.817  0.0598  0.2660 -0.0318
 2818TIP3    H129869   3.969   1.759  16.741  0.9774 -0.5024  0.0429
 2818TIP3    H229870   4.083   1.847  16.788 -1.7196  3.4725 -0.6665
 2819TIP3   OH229871   2.599   1.829   1.959 -0.7527  0.1074 -0.1639
 2819TIP3    H129872   2.557   1.744   1.960  1.7071 -1.1524  1.8182
 2819TIP3    H229873   2.600   1.855   1.867  2.2965 -4.0026 -1.4217
 2820TIP3   OH229874   1.575   1.243   4.888 -0.2814  0.2112 -0.3066
 2820TIP3    H129875   1.518   1.308   4.847  0.2898  0.7643 -0.2289
 2820TIP3    H229876   1.663   1.274   4.871 -0.0234  0.2118  0.9397
 2821TIP3   OH229877   0.520   0.801   0.853 -0.6469 -0.2000 -0.2572
 2821TIP3    H129878   0.597   0.852   0.829 -0.1161 -1.1206 -0.5274
 2821TIP3    H229879   0.545   0.710   0.838 -1.9481 -0.4863 -0.8570
 2822TIP3   OH229880   3.157   2.544   2.844 -0.3616  0.7961  0.0994
 2822TIP3    H129881   3.199   2.630   2.847 -1.8277  1.6351 -1.9083
 2822TIP3    H229882   3.178   2.509   2.758 -0.4504 -0.5212  0.5952
 2823TIP3   OH229883   2.127   4.222  16.919  0.2855 -0.4387 -0.3028
 2823TIP3    H129884   2.158   4.312  16.934 -0.9452 -0.0122 -0.2959
 2823TIP3    H229885   2.140   4.207  16.826 -0.8689  0.2703 -0.5842
 2824TIP3   OH229886   1.488   5.008  11.931  0.1147 -0.4354  0.0653
 2824TIP3    H129887   1.451   5.078  11.878 -1.3269 -0.1305  1.4347
 2824TIP3    H229888   1.509   5.049  12.015 -0.6309 -1.6141  0.8438
 2825TIP3   OH229889   2.208   0.519   5.757  0.2634 -0.6588 -0.0687
 2825TIP3    H129890   2.125   0.501   5.800  0.6464 -2.4958 -0.0526
 2825TIP3    H229891   2.185   0.574   5.682 -0.3431  3.1943  2.7782
 2826TIP3   OH229892   2.740   6.220  12.370  0.7353 -0.2961  0.2683
 2826TIP3    H129893   2.826   6.260  12.361 -0.3939  2.6059  1.8145
 2826TIP3    H229894   2.735   6.159  12.297  3.9068 -0.2117 -0.1184
 2827TIP3   OH229895   5.641   2.771  14.514  0.7120 -0.2477  0.7507
 2827TIP3    H129896   5.654   2.681  14.484 -2.0051  0.0804 -1.5282
 2827TIP3    H229897   5.647   2.765  14.609 -0.4010 -3.0111  0.6995
 2828TIP3   OH229898   5.691   5.321  13.067 -0.6967  0.6995 -0.0327
 2828TIP3    H129899   5.596   5.329  13.065 -0.6122  1.6093 -0.5795
 2828TIP3    H229900   5.707   5.244  13.121 -1.8097 -0.8648 -1.8977
 2829TIP3   OH229901   1.778   6.016  13.867  0.1034  0.1700  0.2832
 2829TIP3    H129902   1.763   5.929  13.904 -1.1899  0.0056 -0.5846
 2829TIP3    H229903   1.780   6.002  13.773  2.3486  0.7475  0.2257
 2830TIP3   OH229904   0.336   0.795   6.469 -0.2333 -0.1469  0.2218
 2830TIP3    H129905   0.349   0.859   6.398  1.4744  1.7522  2.1782
 2830TIP3    H229906   0.375   0.714   6.435  0.8361  0.8141 -0.9305
 2831TIP3   OH229907   3.722   4.213  15.040 -0.3412 -0.2415 -0.3115
 2831TIP3    H129908   3.743   4.220  15.133 -1.2492 -2.2268  0.0769
 2831TIP3    H229909   3.796   4.164  15.002 -1.2518 -1.7977 -0.1089
 2832TIP3   OH229910   2.428   4.055   5.208  0.1110 -0.2690  0.2020
 2832TIP3    H129911   2.462   4.101   5.285  1.2480 -2.6393  1.1661
 2832TIP3    H229912   2.506   4.021   5.163 -0.6563 -0.6228 -0.8951
 2833TIP3   OH229913   0.133   4.310  12.040  0.4765  0.1442 -0.3138
 2833TIP3    H129914   0.218   4.274  12.014  1.1158  0.2587  1.5618
 2833TIP3    H229915   0.154   4.381  12.101 -0.9446  0.7178 -0.4602
 2834TIP3   OH229916   0.917   4.697   1.113 -0.8440 -0.1074 -0.6123
 2834TIP3    H129917   0.993   4.645   1.139  1.0156  0.7797 -3.9590
 2834TIP3    H229918   0.844   4.635   1.112  0.6145 -1.8615 -1.1080
 2835TIP3   OH229919   0.809   5.621  16.884 -0.0676 -1.0869  0.7035
 2835TIP3    H129920   0.901   5.632  16.909 -0.7837  2.5070  2.1249
 2835TIP3    H229921   0.812   5.593  16.793  2.4436  0.0712  0.3892
 2836TIP3   OH229922   3.197   6.215   1.441 -0.7198  0.3566  0.1162
 2836TIP3    H129923   3.255   6.157   1.491  0.3032  1.3514  0.1108
 2836TIP3    H229924   3.155   6.269   1.507 -1.0426  0.1707  0.0620
 2837TIP3   OH229925   6.125   5.244  15.239 -0.0549  0.7629  0.0165
 2837TIP3    H129926   6.142   5.338  15.242 -1.5788  1.0637 -0.0455
 2837TIP3    H229927   6.204   5.206  15.201  1.7267  1.6844  2.6774
 2838TIP3   OH229928   5.399   4.728   1.926  0.1189 -0.2167  0.1131
 2838TIP3    H129929   5.464   4.786   1.888  0.4463 -0.2421  0.6195
 2838TIP3    H229930   5.394   4.755   2.018 -0.1326 -0.6220  0.2209
 2839TIP3   OH229931   2.373   2.550  15.829 -0.1458 -0.5292 -0.0758
 2839TIP3    H129932   2.467   2.530  15.830 -0.4878 -2.1824  0.8538
 2839TIP3    H229933   2.364   2.625  15.888  0.4972 -0.8403  0.4215
 2840TIP3   OH229934   2.379   2.231  13.971 -0.3664  0.5351  0.0536
 2840TIP3    H129935   2.453   2.285  13.999 -2.3226  2.7087  1.2308
 2840TIP3    H229936   2.340   2.199  14.053 -2.3352  1.6719 -0.4019
 2841TIP3   OH229937   4.267   5.711   2.103  0.3272  0.1151 -0.2822
 2841TIP3    H129938   4.225   5.668   2.177 -0.1474  1.4979  0.2795
 2841TIP3    H229939   4.197   5.759   2.060  1.1962  2.1533  0.4549
 2842TIP3   OH229940   3.546   1.414   2.404  0.0622 -0.0030  0.5404
 2842TIP3    H129941   3.484   1.446   2.470 -0.2354  0.6291 -0.0396
 2842TIP3    H229942   3.496   1.348   2.356 -0.1921  0.5522  0.0313
 2843TIP3   OH229943   3.463   1.433  16.459 -0.4965 -0.5279  0.3096
 2843TIP3    H129944   3.516   1.376  16.403 -0.3853  0.0823 -0.2215
 2843TIP3    H229945   3.426   1.497  16.398  1.1778  1.3378  1.2164
 2844TIP3   OH229946   3.326   5.674  16.159 -0.3560  0.0178 -0.7473
 2844TIP3    H129947   3.322   5.739  16.089 -2.4136 -0.2566 -0.9270
 2844TIP3    H229948   3.238   5.634  16.160 -0.3432 -0.0567  1.8801
 2845TIP3   OH229949   5.819   1.908   1.000 -0.1050  0.8243 -0.3685
 2845TIP3    H129950   5.785   1.873   0.918  1.6121 -1.9490  0.0695
 2845TIP3    H229951   5.767   1.865   1.068  3.1202 -2.2652  0.2406
 2846TIP3   OH229952   5.368   4.417  16.759  0.5269  0.5894  0.6625
 2846TIP3    H129953   5.401   4.347  16.703 -0.3478  0.6223  0.1042
 2846TIP3    H229954   5.364   4.379  16.846  2.9582  0.8707  0.9238
 2847TIP3   OH229955   2.200   5.478  12.391 -0.8296  0.2557  0.1669
 2847TIP3    H129956   2.206   5.515  12.303 -1.0398 -1.0590 -0.4052
 2847TIP3    H229957   2.285   5.496  12.431 -0.8662  1.1837 -0.1701
 2848TIP3   OH229958   6.450   3.974  14.850 -0.2489  0.0642 -0.6150
 2848TIP3    H129959   6.410   3.991  14.935 -0.0488 -1.7505 -0.1198
 2848TIP3    H229960   6.543   3.961  14.871  0.0794  1.2903 -1.3372
 2849TIP3   OH229961   6.683   2.251  14.503  0.0438 -0.0894 -0.1048
 2849TIP3    H129962   6.727   2.335  14.488 -0.8826  0.4843  0.2778
 2849TIP3    H229963   6.593   2.276  14.528 -0.0178 -1.1655  0.8000
 2850TIP3   OH229964   6.306   3.962   1.685 -0.4673  0.1742 -0.0919
 2850TIP3    H129965   6.315   4.015   1.605 -0.3774 -0.0657 -0.2404
 2850TIP3    H229966   6.212   3.941   1.689 -0.3443 -0.4478 -0.5391
 2851TIP3   OH229967   5.190   2.884  16.733 -0.2708 -0.4469 -1.3774
 2851TIP3    H129968   5.100   2.881  16.701 -0.5340 -1.4341 -0.5516
 2851TIP3    H229969   5.194   2.962  16.788 -1.0337 -1.2129 -0.2147
 2852TIP3   OH229970   0.347   2.672  11.858 -0.0891 -0.0591 -0.2808
 2852TIP3    H129971   0.416   2.734  11.835 -0.0541  0.7059  1.8065
 2852TIP3    H229972   0.285   2.677  11.785 -0.1811  2.5669 -0.0448
 2853TIP3   OH229973   3.353   3.353   4.135  0.3683 -0.0130  0.7508
 2853TIP3    H129974   3.296   3.417   4.093  2.6149  2.5280  1.4369
 2853TIP3    H229975   3.322   3.349   4.226 -0.2430 -0.4782  0.5256
 2854TIP3   OH229976   2.686   3.180   3.511 -0.0236  0.1468  0.3620
 2854TIP3    H129977   2.603   3.132   3.516 -0.7133  1.4466  1.6447
 2854TIP3    H229978   2.751   3.112   3.495 -1.1464 -1.0910  0.8786
 2855TIP3   OH229979   5.305   4.735   4.869 -0.0963  0.0818  0.0917
 2855TIP3    H129980   5.330   4.642   4.861 -0.5969 -0.1374  0.9653
 2855TIP3    H229981   5.382   4.783   4.837 -0.8176 -0.6508 -2.8266
 2856TIP3   OH229982   0.074   1.819   6.583  0.6848 -0.0211 -0.1421
 2856TIP3    H129983   0.037   1.887   6.527  0.2155  1.0819  1.4946
 2856TIP3    H229984   0.091   1.746   6.523 -2.1162  0.2381 -1.3094
 2857TIP3   OH229985   2.689   2.723  14.188  0.0082  0.5145  0.0691
 2857TIP3    H129986   2.675   2.632  14.214 -2.9517  0.6989 -0.7101
 2857TIP3    H229987   2.680   2.773  14.269 -0.6164  0.3099  0.1260
 2858TIP3   OH229988   4.320   0.959   6.587  0.5217 -0.0671  0.0157
 2858TIP3    H129989   4.343   1.049   6.611  1.9835 -0.6455  0.8698
 2858TIP3    H229990   4.231   0.965   6.553  0.0874  1.4981  1.3548
 2859TIP3   OH229991   3.921   3.549   0.235 -0.0207  0.1028  0.3129
 2859TIP3    H129992   4.011   3.520   0.245  0.1572  0.8891  0.9904
 2859TIP3    H229993   3.927   3.640   0.205 -0.5870  0.3971  1.0739
 2860TIP3   OH229994   6.094   1.269  10.642  0.3515 -0.5864 -0.3889
 2860TIP3    H129995   6.130   1.349  10.603  0.6411 -1.2073 -1.4493
 2860TIP3    H229996   6.171   1.213  10.655  0.4172  0.0947  2.3080
 2861TIP3   OH229997   5.728   4.444  12.155  0.5805 -0.5341  0.1401
 2861TIP3    H129998   5.705   4.351  12.149 -0.7239 -0.3042  1.2651
 2861TIP3    H229999   5.802   4.447  12.215 -0.0269 -0.7567  0.9051
 2862TIP3   OH230000   3.133   4.056  15.454 -0.1581 -0.8640  0.4314
 2862TIP3    H130001   3.096   4.130  15.405 -0.2323 -1.7385 -0.8505
 2862TIP3    H230002   3.208   4.028  15.402  1.8758  0.3799  2.6163
 2863TIP3   OH230003   5.688   0.332  13.042  0.2795  0.0868 -0.0138
 2863TIP3    H130004   5.749   0.394  13.081  0.7313 -0.9683  0.9776
 2863TIP3    H230005   5.605   0.349  13.088 -0.0211  1.0831 -0.9127
 2864TIP3   OH230006   6.469   1.931   6.412 -0.4274  0.1174 -0.5145
 2864TIP3    H130007   6.531   1.993   6.450 -1.4652  0.7951  0.0995
 2864TIP3    H230008   6.422   1.895   6.487  0.2703 -1.5670 -0.8385
 2865TIP3   OH230009   1.463   2.635   4.934 -0.1393 -0.0167 -0.1040
 2865TIP3    H130010   1.377   2.676   4.934 -0.4913 -0.7307  0.4261
 2865TIP3    H230011   1.521   2.699   4.893 -1.0177  0.2657 -0.9093
 2866TIP3   OH230012   4.533   3.404   3.203 -0.4500  0.0265  0.0426
 2866TIP3    H130013   4.486   3.483   3.178  1.4283  0.6773 -1.5345
 2866TIP3    H230014   4.545   3.411   3.297 -0.0868  1.7584 -0.1278
 2867TIP3   OH230015   1.777   5.518   2.824  0.4995  0.1047  0.3368
 2867TIP3    H130016   1.857   5.466   2.832  0.2506 -0.0873  1.7053
 2867TIP3    H230017   1.739   5.490   2.741  1.6155 -0.1286 -0.1140
 2868TIP3   OH230018   4.789   2.403   1.029  0.4422  0.1189  0.3345
 2868TIP3    H130019   4.802   2.464   1.102  1.0427 -0.4049  0.6711
 2868TIP3    H230020   4.700   2.421   0.999  0.7626  1.4501  0.1574
 2869TIP3   OH230021   1.635   5.759   5.836 -0.0821 -0.2962  0.3005
 2869TIP3    H130022   1.727   5.755   5.811 -0.3457 -2.2401 -0.4130
 2869TIP3    H230023   1.600   5.673   5.813 -2.3252  0.7691 -0.4049
 2870TIP3   OH230024   3.811   0.328   0.477  0.3235  0.1395 -0.0944
 2870TIP3    H130025   3.817   0.307   0.570 -1.2581  1.1537  0.2609
 2870TIP3    H230026   3.889   0.381   0.459  0.6405 -0.0759  0.6393
 2871TIP3   OH230027   5.112   6.075   0.206  0.2456  0.2830  0.5763
 2871TIP3    H130028   5.096   6.047   0.295  0.9394 -0.4137  0.4918
 2871TIP3    H230029   5.123   5.994   0.156 -1.1947  0.6392 -0.3547
 2872TIP3   OH230030   4.260   4.713   1.390 -0.3510 -0.4036  0.1521
 2872TIP3    H130031   4.331   4.760   1.434 -0.7970  1.8823 -1.4822
 2872TIP3    H230032   4.304   4.661   1.323 -0.1378  0.3274 -0.2790
 2873TIP3   OH230033   0.305   6.331  14.313  0.3563  0.4435  0.4966
 2873TIP3    H130034   0.288   6.287  14.229  3.5417 -1.3921  0.7553
 2873TIP3    H230035   0.358   6.408  14.289  0.4360  0.4618  0.7310
 2874TIP3   OH230036   2.370   0.768  14.272 -0.3662  0.0366  0.0827
 2874TIP3    H130037   2.406   0.691  14.228  1.7504  1.1248 -0.2045
 2874TIP3    H230038   2.280   0.775  14.240 -0.5171 -2.1924 -0.0279
 2875TIP3   OH230039   1.605   5.503   5.728  0.2320 -0.0795 -0.2224
 2875TIP3    H130040   1.563   5.421   5.703 -0.0084  0.6992 -2.4433
 2875TIP3    H230041   1.662   5.479   5.801 -0.1789 -2.1395 -0.5555
 2876TIP3   OH230042   3.180   5.784  12.320  0.5210 -0.9639  0.1101
 2876TIP3    H130043   3.240   5.761  12.249 -1.1390  0.5940 -1.8733
 2876TIP3    H230044   3.230   5.846  12.374  1.7193 -1.9877  0.1971
 2877TIP3   OH230045   1.544   3.344   3.726 -0.2476  0.1192 -0.7891
 2877TIP3    H130046   1.573   3.340   3.634  0.5919  0.1708 -0.5291
 2877TIP3    H230047   1.483   3.271   3.734 -0.4486  0.2088 -1.4357
 2878TIP3   OH230048   5.030   0.147   4.244  0.0277 -0.5057 -0.1718
 2878TIP3    H130049   5.084   0.225   4.254 -0.6221 -0.3235  2.3507
 2878TIP3    H230050   4.951   0.178   4.200 -0.4275  0.3837  1.2403
 2879TIP3   OH230051   5.095   3.584  16.350  0.5043 -0.6037  0.0449
 2879TIP3    H130052   5.087   3.664  16.297  2.4502 -1.2628 -1.2973
 2879TIP3    H230053   5.188   3.579  16.372  0.3578 -2.3606  0.3416
 2880TIP3   OH230054   5.782   5.169  14.169  0.2821 -0.6055  0.8803
 2880TIP3    H130055   5.814   5.196  14.255  0.0576 -0.0136  0.7843
 2880TIP3    H230056   5.688   5.158  14.181  0.4521 -1.8560  1.0435
 2881TIP3   OH230057   4.468   4.735  12.143 -0.3150 -0.5284 -0.4059
 2881TIP3    H130058   4.537   4.756  12.080 -0.3981  0.5807 -0.1195
 2881TIP3    H230059   4.512   4.731  12.228 -0.1883 -2.1100 -0.5168
 2882TIP3   OH230060   3.423   1.265  16.028  0.2218  0.0692  0.0845
 2882TIP3    H130061   3.426   1.281  16.122 -0.9728 -3.1931  0.7274
 2882TIP3    H230062   3.331   1.275  16.005  0.2377 -0.8595 -0.4048
 2883TIP3   OH230063   5.492   6.089  16.035  0.1994  0.0100  0.2700
 2883TIP3    H130064   5.483   5.996  16.058  1.3033  0.0711  0.9600
 2883TIP3    H230065   5.462   6.136  16.112 -2.1889  0.2699 -0.7503
 2884TIP3   OH230066   1.756   3.582  12.946  0.0836 -0.3805 -0.1269
 2884TIP3    H130067   1.849   3.594  12.966  0.6906  0.0851 -3.0157
 2884TIP3    H230068   1.740   3.489  12.964  0.4823  0.0561  2.6677
 2885TIP3   OH230069   0.212   2.663  16.711  0.4429 -0.0136  0.1382
 2885TIP3    H130070   0.160   2.673  16.631 -1.2564  1.2912  1.4031
 2885TIP3    H230071   0.289   2.718  16.695  0.6075 -0.5447 -1.0002
 2886TIP3   OH230072   3.022   1.455  15.689  0.1824 -0.4077 -0.3365
 2886TIP3    H130073   2.947   1.502  15.723 -1.2599 -2.0376 -1.1793
 2886TIP3    H230074   3.041   1.498  15.605  0.0735 -0.1042 -0.2045
 2887TIP3   OH230075   3.767   0.022   3.004  0.0527 -0.5786 -0.1305
 2887TIP3    H130076   3.839   0.057   3.057 -0.6956 -0.3125  0.7339
 2887TIP3    H230077   3.708  -0.018   3.068  0.2743 -2.3351 -0.9836
 2888TIP3   OH230078   5.650   3.506   4.426 -0.1329  0.4262 -0.0261
 2888TIP3    H130079   5.745   3.500   4.434 -0.4125 -0.5840  3.0851
 2888TIP3    H230080   5.634   3.596   4.397  1.7734  0.3220 -1.5325
 2889TIP3   OH230081   5.385   6.372   1.309 -0.1562 -0.0900 -0.0551
 2889TIP3    H130082   5.403   6.286   1.270 -2.1132  0.2191 -1.7314
 2889TIP3    H230083   5.408   6.361   1.401  0.0695 -2.2956 -0.3316
 2890TIP3   OH230084   0.561   5.857  13.660 -0.3683  0.3524 -0.3093
 2890TIP3    H130085   0.599   5.891  13.741 -0.6571 -0.3656  0.1356
 2890TIP3    H230086   0.617   5.783  13.636 -1.5176 -0.7591  0.3944
 2891TIP3   OH230087   6.073   0.473  12.205 -0.1119 -0.5300 -0.0918
 2891TIP3    H130088   6.167   0.455  12.213 -0.5973 -3.4063 -0.6938
 2891TIP3    H230089   6.043   0.476  12.296  0.1503 -1.8441  0.0441
 2892TIP3   OH230090   3.062   6.335   1.627  0.1885  0.2234  0.1938
 2892TIP3    H130091   3.124   6.407   1.613 -0.6711  0.7908 -0.7611
 2892TIP3    H230092   3.006   6.365   1.698  0.9316 -0.2357  0.9704
 2893TIP3   OH230093   4.435   5.941   5.668 -0.5080 -0.3044  0.5482
 2893TIP3    H130094   4.472   5.853   5.664  0.0813 -0.1544  2.2986
 2893TIP3    H230095   4.396   5.955   5.582  2.3570 -0.9738 -0.9229
 2894TIP3   OH230096   2.867   1.916  15.101  0.3152 -0.2130  0.6845
 2894TIP3    H130097   2.891   1.863  15.025  1.2183  0.7223  0.3008
 2894TIP3    H230098   2.925   1.886  15.171  0.9551  0.3927  0.4160
 2895TIP3   OH230099   6.110   4.877  13.441 -0.0938 -0.3335  0.6026
 2895TIP3    H130100   6.050   4.825  13.494  0.1672  0.3373  1.5673
 2895TIP3    H230101   6.121   4.958  13.490  1.3587 -0.3309  0.2785
 2896TIP3   OH230102   1.705   6.493   1.128  0.1576 -0.1486  0.0597
 2896TIP3    H130103   1.642   6.484   1.057 -0.0825  0.6026  0.1706
 2896TIP3    H230104   1.779   6.439   1.101  0.9727  1.8377 -1.8008
 2897TIP3   OH230105   6.584   2.796  11.448  0.1002 -0.0007 -0.2046
 2897TIP3    H130106   6.664   2.843  11.472 -0.6660  0.7785  0.8711
 2897TIP3    H230107   6.579   2.723  11.510  0.6048 -0.7591 -1.0469
 2898TIP3   OH230108   3.914   0.064   0.784  0.1429  0.1180 -0.6784
 2898TIP3    H130109   3.870   0.148   0.771 -0.8618 -0.1234  1.0628
 2898TIP3    H230110   3.864   0.002   0.731  0.9419  0.6241 -2.0410
 2899TIP3   OH230111   0.660   0.628  14.624  0.3441  0.1726 -0.5055
 2899TIP3    H130112   0.622   0.540  14.632 -1.0383  0.6555 -1.4313
 2899TIP3    H230113   0.668   0.641  14.529 -0.7229  1.5518 -0.4256
 2900TIP3   OH230114   1.653   2.087   5.365 -0.1087 -0.1664  0.1638
 2900TIP3    H130115   1.677   2.017   5.424  0.9938 -1.2919 -1.5599
 2900TIP3    H230116   1.681   2.167   5.409  0.8792 -1.0013  1.0611
 2901TIP3   OH230117   3.588   5.009  10.990  0.2846  0.0181  0.0926
 2901TIP3    H130118   3.634   5.087  11.021 -0.2234  0.5092 -0.3914
 2901TIP3    H230119   3.532   4.983  11.063  2.2946 -1.3580  1.1862
 2902TIP3   OH230120   1.834   6.199  14.189 -0.0017  0.1479 -0.5728
 2902TIP3    H130121   1.826   6.288  14.154 -1.1231 -0.1511 -1.0740
 2902TIP3    H230122   1.869   6.148  14.117 -0.2203 -0.0107 -0.5659
 2903TIP3   OH230123   2.878   3.230   2.225  0.7040  0.2691 -0.2194
 2903TIP3    H130124   2.902   3.245   2.316  0.0251  0.1315 -0.0139
 2903TIP3    H230125   2.957   3.249   2.175  0.5784  2.0570  0.2452
 2904TIP3   OH230126   3.115   2.762   0.316 -0.1040  0.1602 -0.5889
 2904TIP3    H130127   3.177   2.696   0.284 -1.3311  0.1830 -3.1725
 2904TIP3    H230128   3.141   2.843   0.271 -1.5557  0.3243 -1.1609
 2905TIP3   OH230129   4.063   1.405   0.608 -0.5043 -0.4480 -0.1311
 2905TIP3    H130130   3.989   1.430   0.553 -0.1394 -0.7020 -0.7371
 2905TIP3    H230131   4.041   1.317   0.640  0.2760 -1.2267 -1.6467
 2906TIP3   OH230132   6.462   6.244  16.593 -0.6861  0.0005  0.2972
 2906TIP3    H130133   6.480   6.150  16.589 -2.0157 -0.4080  2.8456
 2906TIP3    H230134   6.540   6.282  16.634  0.2733  0.1825 -1.6274
 2907TIP3   OH230135   3.819   4.996  13.222  0.6407 -1.0426 -0.2206
 2907TIP3    H130136   3.821   4.952  13.137  1.0201  1.4930 -1.5629
 2907TIP3    H230137   3.814   5.089  13.201  2.0188 -0.2919  2.5398
 2908TIP3   OH230138   6.391   1.576  16.256  0.0007  0.3890 -0.5965
 2908TIP3    H130139   6.341   1.537  16.185  0.5217  0.4363 -0.9926
 2908TIP3    H230140   6.398   1.669  16.234  0.3771  0.3587 -0.6133
 2909TIP3   OH230141   0.182   5.073   0.324  0.1617 -0.3167 -0.7291
 2909TIP3    H130142   0.240   5.085   0.399 -1.3712 -0.2723  0.4613
 2909TIP3    H230143   0.170   5.161   0.288  1.0834 -0.3703 -1.1814
 2910TIP3   OH230144   0.062   0.801   4.944  0.0985 -0.3177  0.5329
 2910TIP3    H130145   0.145   0.792   4.897  0.6261 -1.1623  1.6021
 2910TIP3    H230146  -0.003   0.816   4.875  1.2782  1.4122 -0.2344
 2911TIP3   OH230147   5.535   5.589  12.810 -0.3957  0.5060 -0.1625
 2911TIP3    H130148   5.501   5.500  12.804  1.2237 -0.3227  2.0206
 2911TIP3    H230149   5.560   5.599  12.902 -1.3728  3.5485 -0.1786
 2912TIP3   OH230150   3.797   2.260   1.325 -0.2397 -0.3471  0.1667
 2912TIP3    H130151   3.705   2.269   1.350 -0.1381 -1.5634  1.0020
 2912TIP3    H230152   3.794   2.226   1.235 -0.5963  0.8674 -0.2921
 2913TIP3   OH230153   0.208   0.469  14.414 -0.1490  0.6413  0.7151
 2913TIP3    H130154   0.128   0.445  14.461  0.2307 -0.9944  0.5520
 2913TIP3    H230155   0.193   0.440  14.324 -0.4127  2.7299  0.0450
 2914TIP3   OH230156   6.450   2.532   2.085 -0.3434 -0.4264  0.0446
 2914TIP3    H130157   6.393   2.460   2.113 -0.3556  0.4339  2.3288
 2914TIP3    H230158   6.401   2.575   2.014 -1.0041 -1.7209 -0.3067
 2915TIP3   OH230159   0.106   4.795  11.245  0.2463  0.1974  0.0220
 2915TIP3    H130160   0.143   4.717  11.286  1.6583  0.8339 -0.0238
 2915TIP3    H230161   0.077   4.764  11.159 -2.1325 -0.9873  1.1874
 2916TIP3   OH230162   5.054   0.075   5.331 -0.3612  0.0224 -0.1026
 2916TIP3    H130163   5.122   0.095   5.266 -1.3157  0.3705 -1.0203
 2916TIP3    H230164   4.977   0.123   5.300 -2.1743 -3.4712 -1.2457
 2917TIP3   OH230165   5.198   6.564  13.349 -0.2545  0.2628  0.6712
 2917TIP3    H130166   5.123   6.506  13.337 -0.9866  0.9494  1.8440
 2917TIP3    H230167   5.274   6.509  13.329 -0.9636 -0.9386  1.1957
 2918TIP3   OH230168   6.581   1.243   2.442 -0.1333  0.3284  0.0680
 2918TIP3    H130169   6.517   1.282   2.501 -0.7006 -1.6537  0.8044
 2918TIP3    H230170   6.665   1.260   2.483 -0.4509 -0.0665  0.8909
 2919TIP3   OH230171   5.193   3.165  14.279 -0.1239  0.6096  0.2695
 2919TIP3    H130172   5.222   3.181  14.189 -1.2191  1.7206  0.1055
 2919TIP3    H230173   5.267   3.193  14.334  0.9795 -1.0987 -0.3035
 2920TIP3   OH230174   2.972   4.698  13.956  0.5376  0.1578  0.0164
 2920TIP3    H130175   3.001   4.684  14.046  0.2479  1.8611  0.3800
 2920TIP3    H230176   3.038   4.654  13.902 -0.0167 -2.0659  1.0777
 2921TIP3   OH230177   2.043   4.149  15.868  0.6538  0.3605  0.0033
 2921TIP3    H130178   1.964   4.188  15.831 -0.9281 -2.0139  0.7295
 2921TIP3    H230179   2.105   4.147  15.796  0.1025  2.3613 -0.5505
 2922TIP3   OH230180   0.900   2.572  10.345 -0.8159  0.4001 -0.2511
 2922TIP3    H130181   0.865   2.612  10.424 -1.6742  0.3176 -0.5841
 2922TIP3    H230182   0.869   2.482  10.348 -0.4140  0.2533 -0.4226
 2923TIP3   OH230183   1.316   6.636  12.153  0.2419  0.0003  0.2323
 2923TIP3    H130184   1.261   6.677  12.220 -1.0142  0.1945 -0.8932
 2923TIP3    H230185   1.295   6.542  12.160 -0.1429  0.0591 -0.1035
 2924TIP3   OH230186   5.344   6.201   3.184 -0.5803 -0.9539 -0.3728
 2924TIP3    H130187   5.334   6.284   3.137  0.8137 -0.2228  0.5769
 2924TIP3    H230188   5.385   6.143   3.121  0.4764 -0.2413 -0.3610
 2925TIP3   OH230189   2.151   2.225  14.896  0.1340  0.1535  0.2401
 2925TIP3    H130190   2.087   2.165  14.858  0.5593  0.1685 -0.4925
 2925TIP3    H230191   2.164   2.193  14.985 -1.0868  0.2988  0.4872
 2926TIP3   OH230192   0.251   5.978  11.884 -0.2959  0.1252 -0.2000
 2926TIP3    H130193   0.197   5.901  11.900 -0.8401  0.4947 -0.2471
 2926TIP3    H230194   0.249   6.027  11.966  1.5313 -0.8090  0.4274
 2927TIP3   OH230195   2.760   0.154   5.457  0.3700 -0.4558  0.3361
 2927TIP3    H130196   2.671   0.124   5.442 -0.1246  0.0289  2.1257
 2927TIP3    H230197   2.813   0.074   5.459 -0.0992 -0.7833 -0.1672
 2928TIP3   OH230198   6.009   5.916   0.913  0.6195  0.6109 -0.2580
 2928TIP3    H130199   5.943   5.928   0.845  0.5986 -1.4915 -0.6301
 2928TIP3    H230200   5.959   5.885   0.989  0.5539  3.5215  0.9341
 2929TIP3   OH230201   2.009   6.135   2.794 -0.0137  0.1572 -0.8550
 2929TIP3    H130202   2.084   6.106   2.845  0.2787  0.2867 -1.2132
 2929TIP3    H230203   1.933   6.112   2.848  0.3748  2.1299  0.5467
 2930TIP3   OH230204   5.143   5.862   4.944  0.1786  0.0362 -0.3089
 2930TIP3    H130205   5.078   5.877   5.013 -0.8536 -0.0377 -1.2707
 2930TIP3    H230206   5.223   5.901   4.979 -0.2440 -0.3023  1.0906
 2931TIP3   OH230207   1.618   3.772  12.139 -0.3049  0.2491  0.2188
 2931TIP3    H130208   1.636   3.837  12.071 -1.9917  0.2423 -0.2431
 2931TIP3    H230209   1.697   3.717  12.141 -0.2541  0.2222 -1.7545
 2932TIP3   OH230210   2.362   1.430  12.395 -0.1618  0.0987  0.2469
 2932TIP3    H130211   2.270   1.448  12.416  0.4154  0.6214  2.4115
 2932TIP3    H230212   2.384   1.354  12.449  0.8209  0.2606  0.0719
 2933TIP3   OH230213   1.724   6.737  10.559  0.4326  0.4093 -0.1455
 2933TIP3    H130214   1.668   6.796  10.508  2.2487  3.9919  1.7438
 2933TIP3    H230215   1.810   6.746  10.520  0.5329 -1.9738 -0.5350
 2934TIP3   OH230216   4.524   1.825  16.679 -0.0159  0.0765 -0.0605
 2934TIP3    H130217   4.435   1.848  16.654  0.1732  0.6388 -0.2391
 2934TIP3    H230218   4.519   1.807  16.773 -0.3615 -0.1367 -0.1163
 2935TIP3   OH230219   4.248   4.919   2.500  0.3288  0.5283 -0.4348
 2935TIP3    H130220   4.287   4.966   2.573  0.5108  0.9024 -0.7641
 2935TIP3    H230221   4.211   4.839   2.538  2.6732 -0.5415 -0.3383
 2936TIP3   OH230222   5.573   0.252  14.555 -0.2159  0.4942  0.5298
 2936TIP3    H130223   5.490   0.291  14.529  0.1594  0.8774 -0.0868
 2936TIP3    H230224   5.551   0.161  14.576 -1.0161  0.9249  1.6070
 2937TIP3   OH230225   0.235   4.495   0.294 -0.0702  0.1175  0.1302
 2937TIP3    H130226   0.142   4.516   0.292 -0.3483 -0.9946  0.6042
 2937TIP3    H230227   0.238   4.408   0.334  1.2025  0.3070  0.4571
 2938TIP3   OH230228   2.319   4.963  12.298  0.4353  0.5358  0.2192
 2938TIP3    H130229   2.283   5.048  12.324 -0.7784  0.0872  0.0397
 2938TIP3    H230230   2.345   4.922  12.381  1.2162  1.1647  0.2890
 2939TIP3   OH230231   0.124   0.666  12.097 -0.4679 -0.4826  0.5870
 2939TIP3    H130232   0.210   0.648  12.060  0.6746 -0.2961  3.0101
 2939TIP3    H230233   0.085   0.580  12.112  0.7725 -0.7156  2.7050
 2940TIP3   OH230234   6.574   5.647   5.420  0.1018  0.4231 -0.1011
 2940TIP3    H130235   6.496   5.592   5.413 -0.2111  0.7304  0.9800
 2940TIP3    H230236   6.647   5.584   5.417 -0.2103  0.0599 -0.1731
 2941TIP3   OH230237   3.504   2.203   2.481 -0.1562 -0.1786  0.4802
 2941TIP3    H130238   3.546   2.285   2.508 -1.3891  0.1073  1.6233
 2941TIP3    H230239   3.571   2.157   2.431  0.3732  1.7858 -0.6821
 2942TIP3   OH230240   2.970   3.859   3.243  0.0963 -0.6172  0.0048
 2942TIP3    H130241   2.945   3.880   3.153 -0.8566 -2.5751 -0.2162
 2942TIP3    H230242   3.007   3.940   3.278  0.0759  0.2726 -2.0138
 2943TIP3   OH230243   5.855   0.538  13.070 -0.1307 -0.1763  0.0262
 2943TIP3    H130244   5.828   0.612  13.014  3.2187  2.0931  1.2482
 2943TIP3    H230245   5.864   0.576  13.157 -0.8102 -2.6695  1.2288
 2944TIP3   OH230246   1.084   2.615  16.621 -0.2244 -0.3333 -0.0346
 2944TIP3    H130247   1.050   2.595  16.709  0.8986 -1.9671  0.0437
 2944TIP3    H230248   1.174   2.584  16.622  0.3456  1.2213 -1.2354
 2945TIP3   OH230249   5.862   4.404  14.028 -0.2024  0.4862  0.1446
 2945TIP3    H130250   5.792   4.380  14.089  0.7379  0.3228  1.1690
 2945TIP3    H230251   5.907   4.322  14.011  1.9606  1.1640  2.3119
 2946TIP3   OH230252   0.576   4.582  15.320 -0.0018 -0.4067  0.3136
 2946TIP3    H130253   0.554   4.538  15.238  0.4575 -0.8887  0.4484
 2946TIP3    H230254   0.670   4.597  15.316  0.1010 -0.8719  0.9687
 2947TIP3   OH230255   2.344   3.562   1.832  0.0168 -0.0112  0.0931
 2947TIP3    H130256   2.269   3.618   1.813 -0.8748 -1.0369  0.4682
 2947TIP3    H230257   2.336   3.544   1.926  0.2883 -0.7416 -0.0217
 2948TIP3   OH230258   2.467   4.581  13.559 -0.8885  0.9419 -0.1524
 2948TIP3    H130259   2.404   4.607  13.625 -0.9821  0.6784 -0.1382
 2948TIP3    H230260   2.416   4.534  13.493 -0.4444 -0.8414  0.7318
 2949TIP3   OH230261   4.661   1.270   0.562  0.0245  0.3663 -0.3462
 2949TIP3    H130262   4.686   1.266   0.470 -1.3164 -0.3043 -0.6996
 2949TIP3    H230263   4.695   1.354   0.593  2.2559 -0.3057 -0.9004
 2950TIP3   OH230264   3.986   3.876   2.470 -0.5089  0.1047  0.6377
 2950TIP3    H130265   3.917   3.902   2.531 -2.5910  0.8780 -1.9678
 2950TIP3    H230266   4.065   3.918   2.503 -1.5767  0.5063  2.7731
 2951TIP3   OH230267   0.724   1.744   3.693 -0.2769  0.0814  0.3881
 2951TIP3    H130268   0.664   1.728   3.767  0.6833 -1.7547  0.8113
 2951TIP3    H230269   0.700   1.830   3.661 -3.0815 -0.5525  0.6244
 2952TIP3   OH230270   1.438   6.646   4.949  0.3126 -0.3110 -0.2237
 2952TIP3    H130271   1.347   6.639   4.919  0.0312 -0.3960  0.6029
 2952TIP3    H230272   1.432   6.628   5.043  1.5220 -2.7716 -0.5832
 2953TIP3   OH230273   3.332   1.764   4.930 -0.5680 -0.1229 -0.4337
 2953TIP3    H130274   3.300   1.842   4.885 -1.7613  0.6979  1.8091
 2953TIP3    H230275   3.386   1.797   5.002  1.0067 -1.4230 -0.9704
 2954TIP3   OH230276   6.551   4.074  11.850 -0.1413  0.0723  0.3552
 2954TIP3    H130277   6.624   4.136  11.844 -0.3135  0.6669  3.4838
 2954TIP3    H230278   6.593   3.990  11.867 -0.0760 -0.0869 -0.5560
 2955TIP3   OH230279   3.985   1.443  13.064  0.3709  0.7208  0.2159
 2955TIP3    H130280   4.019   1.362  13.102 -0.1834  1.7403  2.9958
 2955TIP3    H230281   4.062   1.488  13.030  0.6957 -0.9154 -1.3043
 2956TIP3   OH230282   6.502   4.338   3.994  0.0136 -0.4521 -0.7414
 2956TIP3    H130283   6.513   4.249   3.960 -1.9188 -0.7324 -0.6737
 2956TIP3    H230284   6.519   4.330   4.088  0.7289 -0.5679 -0.8766
 2957TIP3   OH230285   0.593   4.402   6.295  0.4810 -0.1362 -0.3792
 2957TIP3    H130286   0.567   4.370   6.381 -0.0075  0.3722 -0.3345
 2957TIP3    H230287   0.512   4.436   6.257  0.5689 -0.9381 -1.2967
 2958TIP3   OH230288   2.815   5.322   0.613 -0.7057  0.1031 -0.1553
 2958TIP3    H130289   2.883   5.367   0.563 -1.2602 -1.8125 -2.7797
 2958TIP3    H230290   2.750   5.389   0.632 -0.4302  0.9098 -1.9866
 2959TIP3   OH230291   1.329   0.274   0.042  0.6067  0.5329  0.1205
 2959TIP3    H130292   1.308   0.213   0.113  2.6238 -2.3871 -1.7091
 2959TIP3    H230293   1.244   0.294   0.002 -0.0268 -1.5717  0.3658
 2960TIP3   OH230294   3.564   5.998  12.680  0.0311  0.5454 -0.0072
 2960TIP3    H130295   3.537   5.983  12.771 -0.1577 -0.6447 -0.2511
 2960TIP3    H230296   3.642   5.943  12.669  0.7394  1.5743 -0.2312
 2961TIP3   OH230297   6.449   0.844   6.765  0.9085  0.2812 -0.4217
 2961TIP3    H130298   6.462   0.903   6.691 -1.1306  0.3604 -0.7444
 2961TIP3    H230299   6.355   0.848   6.783  1.2752 -0.2647  1.7415
 2962TIP3   OH230300   3.239   4.287   2.321 -0.5415  0.6760 -0.0413
 2962TIP3    H130301   3.215   4.209   2.272  0.9314 -0.3119  0.7867
 2962TIP3    H230302   3.226   4.263   2.413  0.8052  1.0785  0.2677
 2963TIP3   OH230303   1.222   4.151  11.931  0.2775  0.2478 -0.8379
 2963TIP3    H130304   1.247   4.061  11.913 -0.6943 -0.1275 -0.3420
 2963TIP3    H230305   1.197   4.187  11.846  0.6399  0.0417 -1.0299
 2964TIP3   OH230306   3.871   5.611   5.341  0.1295 -0.7838 -0.3697
 2964TIP3    H130307   3.860   5.586   5.433  1.2322 -1.6703 -0.4682
 2964TIP3    H230308   3.901   5.702   5.344 -2.7152  0.1848  0.0394
 2965TIP3   OH230309   0.763   4.859  14.234 -0.0531 -0.4418  0.0845
 2965TIP3    H130310   0.727   4.945  14.257 -1.4000 -1.1486  0.6183
 2965TIP3    H230311   0.857   4.875  14.223 -0.1484  0.8970  1.1576
 2966TIP3   OH230312   3.537   6.104  15.343 -0.0179 -0.3624 -0.3643
 2966TIP3    H130313   3.618   6.155  15.341  0.7055 -1.4689  0.4319
 2966TIP3    H230314   3.497   6.119  15.258 -0.5811  2.7655  0.3755
 2967TIP3   OH230315   0.445   4.726  12.767 -0.2214 -0.5345 -0.2794
 2967TIP3    H130316   0.521   4.706  12.822 -0.6128 -0.3340  0.3338
 2967TIP3    H230317   0.414   4.640  12.738  0.3477 -0.6087 -0.6871
 2968TIP3   OH230318   4.041   4.652   4.480 -0.4167  0.1003  0.0852
 2968TIP3    H130319   4.075   4.736   4.510 -1.0474  0.2931  0.2755
 2968TIP3    H230320   3.949   4.670   4.462 -0.0095  0.0371 -2.1559
 2969TIP3   OH230321   5.891   2.745  14.758  0.6404  0.1115  1.0244
 2969TIP3    H130322   5.859   2.830  14.787  2.0386  0.7362  0.8146
 2969TIP3    H230323   5.955   2.766  14.690 -1.5825 -1.2730 -1.5752
 2970TIP3   OH230324   1.844   3.307   5.610  0.0068 -0.4746  0.3463
 2970TIP3    H130325   1.776   3.353   5.659 -0.1198  0.0067 -0.2741
 2970TIP3    H230326   1.891   3.256   5.676 -0.6255 -0.4038  0.8557
 2971TIP3   OH230327   0.680   3.329   3.774  0.3949 -0.0669  0.1921
 2971TIP3    H130328   0.705   3.242   3.806  1.7795  0.5244  0.7648
 2971TIP3    H230329   0.604   3.313   3.719  0.3230 -1.5852  0.6991
 2972TIP3   OH230330   1.391   1.413   5.175  0.3878  0.0416 -0.5229
 2972TIP3    H130331   1.455   1.425   5.246  1.5392  0.5993 -1.6460
 2972TIP3    H230332   1.353   1.500   5.162  0.2907 -0.0306 -0.7161
 2973TIP3   OH230333   0.071   5.576   2.054 -0.3824  0.2116  0.5938
 2973TIP3    H130334   0.077   5.668   2.027 -0.5608  0.0208 -0.1027
 2973TIP3    H230335   0.136   5.531   2.000  1.3095  0.2662  2.4846
 2974TIP3   OH230336   5.247   5.480   1.092 -0.0976 -0.1827 -0.2097
 2974TIP3    H130337   5.171   5.437   1.055  0.2566 -1.9123  0.9940
 2974TIP3    H230338   5.318   5.461   1.031 -0.3230  0.1962 -0.5886
 2975TIP3   OH230339   1.024   1.935  16.553 -0.1185  0.8354 -0.0942
 2975TIP3    H130340   1.039   1.989  16.476 -0.8462  0.7344 -0.3077
 2975TIP3    H230341   0.977   1.992  16.614 -2.1826  0.0265 -0.8817
 2976TIP3   OH230342   5.004   5.959   2.336 -0.1953  0.0710 -0.0968
 2976TIP3    H130343   5.048   5.978   2.253  1.1281  0.6410  0.7242
 2976TIP3    H230344   4.928   5.908   2.311  2.3846 -3.3301 -1.3416
 2977TIP3   OH230345   6.527   3.699   0.581  0.0013  0.5275  0.1465
 2977TIP3    H130346   6.525   3.727   0.489  1.6463  0.1660 -0.0155
 2977TIP3    H230347   6.478   3.617   0.581 -2.5914  1.9930  0.1594
 2978TIP3   OH230348   6.059   1.907   5.992 -0.2198  0.0332 -0.8230
 2978TIP3    H130349   6.127   1.969   6.019 -0.5685 -0.3215  0.9316
 2978TIP3    H230350   6.094   1.865   5.913  1.5465 -0.0622 -0.0038
 2979TIP3   OH230351   5.489   4.922   3.292 -0.3713 -0.0087  1.0020
 2979TIP3    H130352   5.558   4.860   3.269 -0.6968 -0.2027  0.5292
 2979TIP3    H230353   5.515   4.958   3.377  0.9236  0.7904  0.2876
 2980TIP3   OH230354   1.058   4.149  13.974  0.2453 -0.5321  0.0218
 2980TIP3    H130355   1.124   4.118  13.912  0.5746 -1.0805  0.6480
 2980TIP3    H230356   1.036   4.236  13.943 -2.1127 -2.0692 -2.9472
 2981TIP3   OH230357   2.957   0.302   3.706  0.0523 -0.5341  0.0268
 2981TIP3    H130358   3.003   0.256   3.636  1.3554  3.1276 -1.6118
 2981TIP3    H230359   2.910   0.372   3.662 -1.5440  0.0185  2.5118
 2982TIP3   OH230360   2.949   3.595   3.216 -0.0125 -0.0755 -0.3470
 2982TIP3    H130361   2.951   3.689   3.234 -0.8262  0.2474 -1.8304
 2982TIP3    H230362   2.877   3.561   3.271  1.4391 -0.1621  1.5475
 2983TIP3   OH230363   6.732   6.297  16.750 -0.1951  0.1348  0.2103
 2983TIP3    H130364   6.738   6.391  16.767 -3.1029  0.1804  1.1872
 2983TIP3    H230365   6.786   6.284  16.671 -0.0549  2.6694 -0.1563
 2984TIP3   OH230366   4.622   1.734   5.589 -0.9594 -0.0944  0.0426
 2984TIP3    H130367   4.541   1.707   5.631 -0.6678 -0.8493  0.1144
 2984TIP3    H230368   4.606   1.826   5.565 -0.5352  0.9215  3.3199
 2985TIP3   OH230369   1.592   3.840  14.426 -0.0229 -0.4373 -0.4261
 2985TIP3    H130370   1.526   3.902  14.458  0.6007 -0.3725  0.7379
 2985TIP3    H230371   1.541   3.771  14.383 -1.0801 -2.0076  3.1723
 2986TIP3   OH230372   6.724   6.769  11.619  0.2891  0.0804  0.4014
 2986TIP3    H130373   6.762   6.829  11.554 -2.0284  1.5147  0.3291
 2986TIP3    H230374   6.773   6.786  11.699  2.0361 -0.5065 -0.4983
 2987TIP3   OH230375   4.332   0.624   3.259  0.3024  0.0922  0.0712
 2987TIP3    H130376   4.365   0.578   3.182 -1.5783 -1.0662 -0.0682
 2987TIP3    H230377   4.409   0.640   3.313  1.4946  0.0106 -1.5681
 2988TIP3   OH230378   1.087   2.232  12.879 -0.0740  0.1817 -0.4792
 2988TIP3    H130379   1.173   2.227  12.837 -0.3938 -2.5618 -0.9158
 2988TIP3    H230380   1.038   2.158  12.842 -1.9604  0.5235  1.2409
 2989TIP3   OH230381   4.605   2.996  16.818  0.0787  0.7655  0.2485
 2989TIP3    H130382   4.634   3.068  16.874 -0.7828  3.0298 -2.1140
 2989TIP3    H230383   4.537   2.952  16.869 -1.6609  3.6165  0.5130
 2990TIP3   OH230384   2.922   2.354   2.594 -0.2631  0.6042  0.4675
 2990TIP3    H130385   3.011   2.386   2.603  0.2288 -0.4377 -0.5256
 2990TIP3    H230386   2.931   2.270   2.547 -1.8598  1.1931 -0.9737
 2991TIP3   OH230387   5.455   2.512  12.556  0.0620 -0.5043  0.4115
 2991TIP3    H130388   5.439   2.570  12.630  0.4137  0.2135 -0.0688
 2991TIP3    H230389   5.375   2.518  12.503 -0.3076 -1.2419  0.8686
 2992TIP3   OH230390   1.896   3.552  12.456 -0.2109  0.3702 -0.1257
 2992TIP3    H130391   1.874   3.493  12.528 -0.7290 -0.2773 -0.7932
 2992TIP3    H230392   1.987   3.532  12.435 -0.2837  0.0334 -0.1290
 2993TIP3   OH230393   3.788   1.087   5.855 -0.0167 -0.2726  0.6856
 2993TIP3    H130394   3.705   1.041   5.866  0.1383 -0.9252 -0.7036
 2993TIP3    H230395   3.830   1.043   5.780  0.9899  0.8858  0.5509
 2994TIP3   OH230396   4.077   2.632  15.534  0.0479 -0.4769  0.2952
 2994TIP3    H130397   4.080   2.717  15.491 -0.4975  1.0085  3.0673
 2994TIP3    H230398   4.168   2.606  15.544  0.3889  1.2237  2.0583
 2995TIP3   OH230399   5.869   4.331  15.490 -0.1141 -0.2374  0.3867
 2995TIP3    H130400   5.908   4.419  15.496  0.3139 -0.4326  0.4979
 2995TIP3    H230401   5.920   4.287  15.422 -1.1377  0.0115 -0.5555
 2996TIP3   OH230402   3.936   5.985  16.082  0.0902 -0.1275  0.6329
 2996TIP3    H130403   4.025   5.955  16.100  1.0834  1.1231 -2.0315
 2996TIP3    H230404   3.918   5.957  15.993 -1.4724  1.3526  0.4463
 2997TIP3   OH230405   3.291   0.203   1.767  0.4628  0.0461  0.0755
 2997TIP3    H130406   3.202   0.182   1.794  0.7203  1.5943  2.2682
 2997TIP3    H230407   3.283   0.283   1.716  0.6218  0.2938  0.4391
 2998TIP3   OH230408   3.272   3.757  12.803  0.1499  0.1656 -0.0116
 2998TIP3    H130409   3.335   3.716  12.862 -0.8239 -0.3227  0.7093
 2998TIP3    H230410   3.293   3.850  12.806 -0.2982  0.2309  1.6122
 2999TIP3   OH230411   2.744   0.341  14.144  0.0742  0.2428  0.5599
 2999TIP3    H130412   2.729   0.248  14.155  1.4337  0.1036  1.4516
 2999TIP3    H230413   2.722   0.359  14.053  2.2548 -1.4678 -0.3430
 3000TIP3   OH230414   0.426   5.607  16.723 -0.4257  0.0472  0.3976
 3000TIP3    H130415   0.474   5.551  16.663 -2.2355 -2.0006  0.8125
 3000TIP3    H230416   0.344   5.627  16.678 -0.2176  1.5741  0.6638
 3001TIP3   OH230417   2.711   4.486   1.981 -0.2186  0.0782  0.3536
 3001TIP3    H130418   2.783   4.452   2.034  1.3436  2.1753 -0.3711
 3001TIP3    H230419   2.668   4.550   2.038  0.8003  1.5480 -0.5124
 3002TIP3   OH230420   2.699   0.170   0.238 -0.3623  0.4809 -0.6456
 3002TIP3    H130421   2.614   0.188   0.279  0.0764  0.0969  0.4446
 3002TIP3    H230422   2.691   0.207   0.150 -1.8041  0.0839 -0.6996
 3003TIP3   OH230423   2.081   4.994   5.178 -0.0170  0.1323 -0.6664
 3003TIP3    H130424   1.986   4.987   5.180 -0.0692  0.4731 -1.7122
 3003TIP3    H230425   2.107   4.991   5.270 -1.0397  0.1179 -0.3714
 3004TIP3   OH230426   6.787   1.769   5.683 -0.0272 -0.1187 -0.0288
 3004TIP3    H130427   6.825   1.849   5.719 -1.0972  0.9284 -1.1517
 3004TIP3    H230428   6.826   1.698   5.734  0.6454  1.1418  1.2431
 3005TIP3   OH230429   3.958   4.589   1.306 -0.1650  0.1561  0.0384
 3005TIP3    H130430   3.953   4.667   1.361 -0.7787  0.4798 -0.4762
 3005TIP3    H230431   3.976   4.518   1.368 -0.5455  0.5625  0.6250
 3006TIP3   OH230432   5.768   4.391   3.026  0.3728  0.5538 -0.5480
 3006TIP3    H130433   5.857   4.424   3.037  0.9024 -0.2958 -2.0343
 3006TIP3    H230434   5.754   4.334   3.102  2.2098 -1.6101 -1.7389
 3007TIP3   OH230435   6.190   4.006  15.296 -0.0970  0.0701  0.3160
 3007TIP3    H130436   6.243   4.033  15.370 -0.5280 -1.0771  1.0664
 3007TIP3    H230437   6.238   4.035  15.219 -1.2622  4.3396  1.0398
 3008TIP3   OH230438   5.687   6.392  15.825  0.3660 -0.4907 -0.4859
 3008TIP3    H130439   5.694   6.307  15.781 -0.4248 -1.6184  1.4940
 3008TIP3    H230440   5.761   6.442  15.792  0.0267 -1.4263 -2.7790
 3009TIP3   OH230441   3.923   3.261   2.498 -0.0016 -0.8168 -0.8889
 3009TIP3    H130442   3.901   3.225   2.412  0.9431  0.6354 -1.7588
 3009TIP3    H230443   4.015   3.238   2.511  0.3192  0.3524 -0.9994
 3010TIP3   OH230444   1.699   1.561   0.750  0.2844  0.1895  0.0160
 3010TIP3    H130445   1.724   1.484   0.699  0.1885  0.5660 -0.5983
 3010TIP3    H230446   1.720   1.537   0.841  3.6124  0.7617 -0.5362
 3011TIP3   OH230447   0.887   0.999   5.347 -0.0170  0.2069 -0.7322
 3011TIP3    H130448   0.928   1.033   5.426 -0.7764  2.9337 -1.4590
 3011TIP3    H230449   0.960   0.982   5.287  0.4034  0.0920 -0.1891
 3012TIP3   OH230450   1.375   5.245  12.875 -0.2031 -0.6309  0.8577
 3012TIP3    H130451   1.333   5.305  12.936  1.3252  0.7552  0.6035
 3012TIP3    H230452   1.396   5.300  12.799  0.4547 -1.6821  0.2726
 3013TIP3   OH230453   0.345   2.858   3.173 -0.5092  0.2843  0.2172
 3013TIP3    H130454   0.392   2.815   3.245 -1.2290 -0.5645  0.1828
 3013TIP3    H230455   0.298   2.787   3.130  1.4148  0.4554 -2.2818
 3014TIP3   OH230456   5.218   1.355  16.675 -0.2375 -0.0547 -0.8807
 3014TIP3    H130457   5.167   1.397  16.744 -1.5518 -0.9913 -1.2607
 3014TIP3    H230458   5.248   1.426  16.619  1.8845  0.8435  1.3258
 3015TIP3   OH230459   2.076   2.971  16.682 -0.2255  0.5331  0.0671
 3015TIP3    H130460   2.118   2.961  16.597  0.4221 -0.2460  0.4670
 3015TIP3    H230461   2.069   3.066  16.694 -0.0156  0.6517 -0.7005
 3016TIP3   OH230462   4.365   4.237   2.501  0.0964 -0.1209  0.6077
 3016TIP3    H130463   4.357   4.142   2.500 -0.5434 -0.0591  0.1664
 3016TIP3    H230464   4.440   4.254   2.560 -0.7553 -0.8274  1.9233
 3017TIP3   OH230465   4.846   4.932   2.537  0.4533 -0.1991  0.3632
 3017TIP3    H130466   4.864   4.873   2.464  2.3798 -0.6535  1.1690
 3017TIP3    H230467   4.751   4.930   2.547  0.3851 -2.1010 -0.5108
 3018TIP3   OH230468   1.823   3.987  16.192 -0.2145 -0.1270 -0.0075
 3018TIP3    H130469   1.807   4.081  16.187  1.1431  0.3788  3.6375
 3018TIP3    H230470   1.741   3.951  16.225 -0.3917 -0.1005 -0.4155
 3019TIP3   OH230471   1.370   5.352  13.593 -0.5131  0.0378  0.2041
 3019TIP3    H130472   1.367   5.257  13.604  0.1739  0.0430  0.4931
 3019TIP3    H230473   1.347   5.367  13.501  1.8797 -0.6019 -0.5485
 3020TIP3   OH230474   0.071   4.069   0.604 -0.0462  0.4124  0.4044
 3020TIP3    H130475   0.059   4.063   0.698  0.0491 -0.2790  0.3759
 3020TIP3    H230476  -0.011   4.105   0.571 -0.2196  0.2977  0.7101
 3021TIP3   OH230477   1.406   0.040   1.238 -0.2738  1.0941  0.3157
 3021TIP3    H130478   1.397   0.062   1.145 -0.2422  0.3866  0.1398
 3021TIP3    H230479   1.447   0.117   1.277  3.0460  0.0632 -0.9281
 3022TIP3   OH230480   2.620   4.700   0.122 -0.1126 -0.2080 -0.1015
 3022TIP3    H130481   2.653   4.676   0.208  1.1871 -1.1675 -0.8443
 3022TIP3    H230482   2.530   4.729   0.137 -0.4216 -1.8735  1.3561
 3023TIP3   OH230483   4.649   2.789  11.747  0.1021  0.3033 -0.5837
 3023TIP3    H130484   4.554   2.801  11.736 -0.3088 -1.6033  0.6286
 3023TIP3    H230485   4.667   2.703  11.709  1.2810  0.4850 -0.4556
 3024TIP3   OH230486   5.577   2.348   3.093 -0.1522 -0.3593  0.5083
 3024TIP3    H130487   5.612   2.261   3.115  1.7823 -0.3188 -2.1521
 3024TIP3    H230488   5.633   2.409   3.141  1.5494 -0.4388 -1.2862
 3025TIP3   OH230489   3.921   1.789  17.182  0.2752  0.1348 -0.2364
 3025TIP3    H130490   3.835   1.783  17.138  0.6677 -1.6173 -0.7993
 3025TIP3    H230491   3.968   1.711  17.153  1.3244  0.0298  1.6940
 3026TIP3   OH230492   2.609   3.374  16.533 -0.7447  0.1416  0.2537
 3026TIP3    H130493   2.620   3.349  16.442  1.3494 -0.2692  0.6032
 3026TIP3    H230494   2.514   3.377  16.546 -1.0489 -1.2457 -1.5194
 3027TIP3   OH230495   6.320   4.070  15.526 -0.0030 -0.7142  0.2489
 3027TIP3    H130496   6.279   4.140  15.576  0.6694  0.9277 -1.4566
 3027TIP3    H230497   6.414   4.078  15.547  0.1363 -0.7902 -0.3494
 3028TIP3   OH230498   1.493   3.556  11.967  0.2912 -0.2692 -0.6236
 3028TIP3    H130499   1.524   3.626  12.024 -2.8639 -0.7099  1.7400
 3028TIP3    H230500   1.417   3.593  11.923 -1.7018 -2.3170  1.0100
 3029TIP3   OH230501   0.456   3.541  14.303 -0.1611  0.4327 -0.5098
 3029TIP3    H130502   0.513   3.616  14.323  1.6134 -1.5262  2.2230
 3029TIP3    H230503   0.413   3.521  14.386 -1.2172 -1.1135 -1.4014
 3030TIP3   OH230504   2.295   0.455   4.968  0.3750  0.5307 -0.8165
 3030TIP3    H130505   2.268   0.520   4.903  0.0274 -0.6043 -1.8264
 3030TIP3    H230506   2.324   0.380   4.917  2.6464  0.6133  0.3116
 3031TIP3   OH230507   6.082   4.437  10.701  0.6657  0.3006 -0.3770
 3031TIP3    H130508   6.031   4.482  10.634  0.0698  2.6533  1.5764
 3031TIP3    H230509   6.172   4.464  10.684  0.9239 -1.4527 -1.9779
 3032TIP3   OH230510   6.231   4.239   2.097 -0.0635 -0.0892 -0.1034
 3032TIP3    H130511   6.228   4.271   2.187  1.7403 -0.6598  0.1704
 3032TIP3    H230512   6.179   4.159   2.098 -1.2040  0.6320  0.0985
 3033TIP3   OH230513   1.517   1.045   1.154 -0.3463 -0.3199  0.0888
 3033TIP3    H130514   1.489   1.087   1.235 -1.3536  1.3947 -1.1409
 3033TIP3    H230515   1.537   0.955   1.181 -1.0037  0.1156  2.1695
 3034TIP3   OH230516   0.067   5.475  11.339 -0.1249  0.1139  0.0507
 3034TIP3    H130517   0.134   5.520  11.288 -0.7318 -0.2392 -1.0649
 3034TIP3    H230518  -0.016   5.507  11.304 -0.5548 -0.8482  0.1681
 3035TIP3   OH230519   4.561   1.185   2.224 -0.2661  0.0632  0.5735
 3035TIP3    H130520   4.624   1.218   2.160 -1.1592  0.8777  0.1143
 3035TIP3    H230521   4.594   1.098   2.247  2.1929  1.2957  1.8956
 3036TIP3   OH230522   0.134   5.209  15.493  0.3181  0.0337  0.7340
 3036TIP3    H130523   0.154   5.229  15.585 -0.5915  0.3746  0.8567
 3036TIP3    H230524   0.089   5.286  15.460 -0.7445 -0.7000  0.4416
 3037TIP3   OH230525   1.214   5.751  11.353  0.0552 -0.0507 -0.6731
 3037TIP3    H130526   1.173   5.835  11.373  0.8498 -0.2533  2.1523
 3037TIP3    H230527   1.204   5.700  11.434  2.3559 -1.5052 -1.2563
 3038TIP3   OH230528   2.259   1.658   3.527 -0.6955 -0.3034  0.5781
 3038TIP3    H130529   2.223   1.597   3.592 -1.1997 -0.9520 -0.2936
 3038TIP3    H230530   2.184   1.711   3.500 -1.0444 -1.7338 -1.3261
 3039TIP3   OH230531   0.569   2.030   3.746  0.0728  0.3138  0.0259
 3039TIP3    H130532   0.580   2.125   3.739 -1.4395  0.4810 -0.2497
 3039TIP3    H230533   0.593   2.010   3.837  0.5330  0.9282  0.0469
 3040TIP3   OH230534   5.364   0.710  11.203  0.0274  0.6088 -0.9085
 3040TIP3    H130535   5.298   0.662  11.152  2.0719 -1.8525 -1.3230
 3040TIP3    H230536   5.447   0.672  11.176  1.4754  2.1320  1.2655
 3041TIP3   OH230537   6.421   3.450  11.881 -0.7172 -0.0342  0.4647
 3041TIP3    H130538   6.493   3.391  11.904 -1.5491 -0.5500  1.8315
 3041TIP3    H230539   6.359   3.395  11.833  0.2558  0.6550 -1.6389
 3042TIP3   OH230540   4.186   2.057  15.918  0.0862  0.2632  0.2513
 3042TIP3    H130541   4.150   2.098  15.839 -1.5657  1.8866  1.7840
 3042TIP3    H230542   4.235   2.127  15.961  0.1281 -0.3286  1.1838
 3043TIP3   OH230543   4.651   1.485  12.887  0.1690  0.4719  0.2011
 3043TIP3    H130544   4.636   1.409  12.831  2.3055  0.2422 -0.1287
 3043TIP3    H230545   4.635   1.454  12.976 -0.3167  0.0244 -0.0406
 3044TIP3   OH230546   2.082   2.239   1.606  0.1917 -0.1530 -0.0352
 3044TIP3    H130547   2.013   2.175   1.586  2.7722 -2.9048 -0.4103
 3044TIP3    H230548   2.109   2.218   1.696 -1.8206  3.2397  1.4896
 3045TIP3   OH230549   1.774   6.255  12.318 -0.0728  0.4460  0.0649
 3045TIP3    H130550   1.730   6.289  12.395 -1.8232  1.4132 -1.3166
 3045TIP3    H230551   1.849   6.313  12.306 -0.4642  1.0228  0.3637
 3046TIP3   OH230552   2.721   5.581   2.374 -0.2207  0.0176 -0.3771
 3046TIP3    H130553   2.638   5.533   2.369 -1.1288  1.5854 -0.6932
 3046TIP3    H230554   2.738   5.607   2.283 -0.1784  0.9950 -0.0966
 3047TIP3   OH230555   5.580   3.172  13.359 -0.0876  0.9484 -0.6583
 3047TIP3    H130556   5.643   3.105  13.383  1.0868  2.3785  0.3611
 3047TIP3    H230557   5.498   3.125  13.345  0.7173 -0.6771  0.0316
 3048TIP3   OH230558   3.226   4.341   2.894 -0.7240 -0.0854 -0.4100
 3048TIP3    H130559   3.181   4.293   2.964  1.8867 -0.2002  1.2406
 3048TIP3    H230560   3.295   4.282   2.865  0.9284  1.6644 -0.1222
 3049TIP3   OH230561   5.500   1.391  12.016  0.4116  0.1254 -0.1254
 3049TIP3    H130562   5.592   1.412  11.997  0.0561  1.0791 -0.8388
 3049TIP3    H230563   5.498   1.295  12.019  1.5741  0.1113  0.6393
 3050TIP3   OH230564   1.017   0.756   0.356 -0.0557  0.3195 -0.3680
 3050TIP3    H130565   1.028   0.848   0.376  0.1101 -0.0026  1.0692
 3050TIP3    H230566   0.957   0.754   0.282  2.3727  1.7133 -2.4746
 3051TIP3   OH230567   0.281   3.376  14.135 -0.3055 -1.0035 -0.0641
 3051TIP3    H130568   0.348   3.397  14.070 -0.8421 -0.9195 -0.5907
 3051TIP3    H230569   0.226   3.454  14.140  0.8342 -0.2947  1.8754
 3052TIP3   OH230570   5.902   4.037   0.906 -0.0489 -0.1173  1.1268
 3052TIP3    H130571   5.984   4.049   0.856  1.4301  1.0429  3.7403
 3052TIP3    H230572   5.887   3.942   0.905  0.0739 -0.1560 -1.2556
 3053TIP3   OH230573   2.133   2.485  11.099  0.2965 -0.1232  0.2244
 3053TIP3    H130574   2.161   2.576  11.089 -1.0012  0.3938  1.2093
 3053TIP3    H230575   2.115   2.475  11.193  1.3043 -1.6625  0.2859
 3054TIP3   OH230576   1.027   3.633  11.516  0.3566  0.1659 -0.2586
 3054TIP3    H130577   1.105   3.653  11.464 -0.2314  0.1904 -1.1548
 3054TIP3    H230578   0.954   3.656  11.458 -0.3165  1.5092  1.0786
 3055TIP3   OH230579   3.061   2.466   1.421 -0.0188  0.6913  0.1279
 3055TIP3    H130580   2.979   2.454   1.373  0.3191  1.4982 -0.6738
 3055TIP3    H230581   3.048   2.548   1.469 -0.0668  0.2827  0.8115
 3056TIP3   OH230582   3.441   5.423   5.958 -0.0228 -0.3295 -0.6955
 3056TIP3    H130583   3.400   5.350   6.004  1.7005 -1.7408 -1.3342
 3056TIP3    H230584   3.368   5.480   5.932 -1.1104 -0.1272  2.6551
 3057TIP3   OH230585   6.516   4.962   5.957  0.3491 -0.4531 -0.2573
 3057TIP3    H130586   6.514   4.873   5.992  2.4063 -1.2270 -1.9604
 3057TIP3    H230587   6.596   5.000   5.992  0.4286  0.0812 -0.9999
 3058TIP3   OH230588   1.090   3.839  17.050 -0.2175 -0.7710  0.2221
 3058TIP3    H130589   1.138   3.783  17.111  0.8939  0.8572  0.8639
 3058TIP3    H230590   1.104   3.798  16.964  1.4900 -0.8856  0.5372
 3059TIP3   OH230591   5.636   2.745  16.800  0.0214  0.3995  0.5152
 3059TIP3    H130592   5.558   2.769  16.749 -0.6607 -0.1529  1.2824
 3059TIP3    H230593   5.709   2.755  16.739 -0.7765 -0.1666 -0.5398
 3060TIP3   OH230594   6.587   6.409  12.857  0.2572 -0.1751 -0.7671
 3060TIP3    H130595   6.530   6.409  12.779 -0.0837  0.9273 -0.5334
 3060TIP3    H230596   6.563   6.489  12.904 -0.7851 -1.6980  1.3934
 3061TIP3   OH230597   2.570   0.258  16.082 -0.0937 -0.6959  0.2020
 3061TIP3    H130598   2.545   0.331  16.138 -0.3883 -0.7499  0.1439
 3061TIP3    H230599   2.540   0.180  16.128 -1.0803 -0.6911 -0.4087
 3062TIP3   OH230600   3.167   2.755   3.461  0.6635  0.2025  0.0383
 3062TIP3    H130601   3.249   2.761   3.412  1.1937  1.6542  1.0583
 3062TIP3    H230602   3.122   2.837   3.444  1.1910  1.0586  2.5147
 3063TIP3   OH230603   1.518   5.689  13.675  0.8049 -0.9129  0.2209
 3063TIP3    H130604   1.476   5.749  13.614  0.5880 -1.1156  0.1654
 3063TIP3    H230605   1.553   5.619  13.620  0.4349 -1.1979  0.3410
 3064TIP3   OH230606   4.465   6.277   1.897  0.4438 -0.8562 -0.7145
 3064TIP3    H130607   4.418   6.195   1.911  0.8513 -1.2279 -1.4899
 3064TIP3    H230608   4.398   6.338   1.865  0.0151 -0.6972  0.4654
 3065TIP3   OH230609   5.383   2.794  15.992 -0.7979 -0.6821  0.0049
 3065TIP3    H130610   5.296   2.778  16.028 -0.2417  0.7119  2.0229
 3065TIP3    H230611   5.375   2.879  15.948 -0.5623 -0.7529 -0.1761
 3066TIP3   OH230612   0.823   0.343  13.035 -0.8302 -0.5377  0.0288
 3066TIP3    H130613   0.750   0.316  13.092 -0.4415  1.5109  1.5297
 3066TIP3    H230614   0.807   0.436  13.017  0.4151 -0.5329 -1.1811
 3067TIP3   OH230615   0.091   4.700  13.537  0.4906 -0.3308 -0.1247
 3067TIP3    H130616   0.048   4.711  13.452 -0.4952  1.2875  0.5565
 3067TIP3    H230617   0.021   4.710  13.601  1.4361 -0.2744  0.9170
 3068TIP3   OH230618   4.084   0.492   0.992  0.6682 -0.2600 -0.5634
 3068TIP3    H130619   4.110   0.542   1.069  1.0195 -0.4371 -0.5673
 3068TIP3    H230620   4.147   0.517   0.924 -0.6487  1.1555 -1.2724
 3069TIP3   OH230621   6.096   3.320   2.808 -0.1310  0.2254  0.3742
 3069TIP3    H130622   6.054   3.356   2.730 -0.4250  0.9332  0.8620
 3069TIP3    H230623   6.026   3.316   2.873  0.6783  1.9752  1.3886
 3070TIP3   OH230624   4.998   2.208  13.624  0.7745 -0.4437 -0.5982
 3070TIP3    H130625   5.067   2.206  13.691  1.6072 -0.6234 -1.4570
 3070TIP3    H230626   4.917   2.193  13.673  1.1479  1.4302  0.6524
 3071TIP3   OH230627   2.962   5.911  15.971  0.1001  0.0044 -0.6421
 3071TIP3    H130628   3.019   5.962  15.912  1.6654 -1.3615 -0.3390
 3071TIP3    H230629   2.965   5.959  16.054 -0.6859  0.9450 -1.1356
 3072TIP3   OH230630   4.897   1.739  13.264 -0.1303  0.2537  0.0820
 3072TIP3    H130631   4.927   1.781  13.184  2.1933  0.0411  0.8192
 3072TIP3    H230632   4.843   1.806  13.307 -1.7910  0.1986 -1.8642
 3073TIP3   OH230633   0.103   0.817   1.139 -0.2110 -0.5370 -0.1145
 3073TIP3    H130634   0.153   0.743   1.172 -0.8044 -0.7594  0.2925
 3073TIP3    H230635   0.168   0.885   1.124  0.2851 -1.0047 -0.1108
 3074TIP3   OH230636   1.827   1.810   1.105  0.2009  0.4571  0.1406
 3074TIP3    H130637   1.797   1.765   1.185 -0.3616  0.7868  0.1216
 3074TIP3    H230638   1.921   1.797   1.104  0.3602  1.3454  1.4232
 3075TIP3   OH230639   1.633   1.873   3.781 -0.1819 -0.1824  0.3795
 3075TIP3    H130640   1.700   1.808   3.760 -1.2667 -0.9001 -1.0205
 3075TIP3    H230641   1.630   1.930   3.704  0.1270  1.0017  1.2199
 3076TIP3   OH230642   1.848   4.496   0.778  0.1027 -0.1616  0.0865
 3076TIP3    H130643   1.845   4.493   0.873  0.6437 -1.2301  0.0787
 3076TIP3    H230644   1.874   4.408   0.752 -0.7387 -0.0795 -1.0815
 3077TIP3   OH230645   0.784   3.224   1.598  0.1127 -0.1438 -0.3790
 3077TIP3    H130646   0.821   3.248   1.683  1.5773 -2.0998 -0.4324
 3077TIP3    H230647   0.856   3.183   1.550 -1.5558 -2.1728 -1.2769
 3078TIP3   OH230648   3.831   5.461  14.948  0.3422 -0.3611  0.3122
 3078TIP3    H130649   3.855   5.552  14.930  0.1589 -0.6616 -1.5810
 3078TIP3    H230650   3.915   5.415  14.956  0.4414 -0.3935 -0.8006
 3079TIP3   OH230651   5.808   6.716   1.589  0.5550  0.2540 -0.5234
 3079TIP3    H130652   5.792   6.633   1.543 -0.7718 -0.2227  0.7462
 3079TIP3    H230653   5.807   6.782   1.519 -1.1814 -0.4810 -1.2435
 3080TIP3   OH230654   3.477   0.824  13.380  0.2174 -0.5080 -0.1091
 3080TIP3    H130655   3.400   0.768  13.367 -0.8439  1.1474 -1.1407
 3080TIP3    H230656   3.441   0.907  13.409  1.6274  0.2662 -0.5491
 3081TIP3   OH230657   2.296   5.018  13.258 -0.3571 -0.0705 -0.3620
 3081TIP3    H130658   2.342   5.011  13.341 -0.2426 -0.5366 -0.4664
 3081TIP3    H230659   2.264   4.930  13.240 -1.4870  0.2994 -0.1778
 3082TIP3   OH230660   1.657   0.990   2.061  0.3593 -0.9229  0.6850
 3082TIP3    H130661   1.744   0.989   2.023 -0.1809  2.7713 -0.8705
 3082TIP3    H230662   1.598   0.978   1.987 -0.5563  1.3025  1.0142
 3083TIP3   OH230663   4.900   3.247  17.221  0.1854 -0.2844 -0.1338
 3083TIP3    H130664   4.849   3.189  17.278  1.3637  1.4256  2.7637
 3083TIP3    H230665   4.990   3.212  17.226 -0.1387 -1.8211 -3.2842
 3084TIP3   OH230666   4.047   4.172   2.384 -0.2519 -0.0310 -0.1621
 3084TIP3    H130667   4.091   4.249   2.417  1.4538 -1.4085  0.8241
 3084TIP3    H230668   4.036   4.115   2.460  0.1734 -1.5492 -1.2040
 3085TIP3   OH230669   3.172   1.223  12.249  0.2483  0.1121 -0.3341
 3085TIP3    H130670   3.190   1.131  12.270  0.2890 -0.3494 -2.2762
 3085TIP3    H230671   3.077   1.232  12.263  0.3753  0.0025  0.6383
 3086TIP3   OH230672   3.194   6.141  11.117  0.0054  0.8954  0.5411
 3086TIP3    H130673   3.281   6.177  11.097  0.1025  0.1465 -0.4285
 3086TIP3    H230674   3.135   6.187  11.056 -0.1493  0.7690  0.5963
 3087TIP3   OH230675   1.802   1.127  13.793  0.5073  0.2314  0.1740
 3087TIP3    H130676   1.763   1.042  13.772 -1.1770  1.4669 -1.9178
 3087TIP3    H230677   1.886   1.105  13.833 -0.6273 -2.4496  1.2460
 3088TIP3   OH230678   4.754   2.484   4.439  0.4572 -0.0317 -0.1750
 3088TIP3    H130679   4.726   2.529   4.359 -1.1538 -0.9156 -0.1244
 3088TIP3    H230680   4.776   2.555   4.499 -0.7354  0.6823 -0.5607
 3089TIP3   OH230681   1.439   3.008  13.683 -0.3035 -0.3655  0.3202
 3089TIP3    H130682   1.443   3.041  13.772  0.4303  0.7563 -0.1296
 3089TIP3    H230683   1.475   2.919  13.689  1.0680  0.2185  0.8962
 3090TIP3   OH230684   2.094   2.980  13.274  0.0544 -0.4261  0.1804
 3090TIP3    H130685   2.025   3.045  13.281 -1.1110 -1.6908  0.5118
 3090TIP3    H230686   2.158   3.020  13.215 -1.2621  0.4671 -0.6590
 3091TIP3   OH230687   0.817   0.638   6.404 -0.0929 -0.3870  0.7200
 3091TIP3    H130688   0.795   0.684   6.485  1.6294 -0.1070  1.0384
 3091TIP3    H230689   0.859   0.704   6.348  1.2463 -1.2401  0.6887
 3092TIP3   OH230690   2.567   2.308  15.982 -0.0899 -0.3984  0.7321
 3092TIP3    H130691   2.515   2.342  16.054 -0.4170  0.8016 -0.0586
 3092TIP3    H230692   2.515   2.235  15.947 -0.4340 -0.2864  1.0071
 3093TIP3   OH230693   5.481   5.837  13.940  0.3717 -0.1834 -0.1195
 3093TIP3    H130694   5.400   5.835  13.890 -0.3791 -1.4068  1.1170
 3093TIP3    H230695   5.505   5.930  13.944 -2.2703  0.4655  1.5620
 3094TIP3   OH230696   2.643   3.408   5.605 -0.0390 -0.1618  0.0986
 3094TIP3    H130697   2.660   3.326   5.652  1.8140  0.8018  1.1771
 3094TIP3    H230698   2.553   3.398   5.573 -0.6092 -1.7534  2.0050
 3095TIP3   OH230699   4.334   6.696   6.390  0.0734  0.2680  0.3738
 3095TIP3    H130700   4.314   6.745   6.470 -0.8640  0.4783  0.0224
 3095TIP3    H230701   4.412   6.645   6.411 -1.5752 -1.5720  2.2416
 3096TIP3   OH230702   5.463   6.595  11.133 -0.3630 -0.2543 -0.1066
 3096TIP3    H130703   5.462   6.685  11.099  0.7168  0.1222  0.8400
 3096TIP3    H230704   5.445   6.604  11.226 -1.4807 -1.1344 -0.2289
 3097TIP3   OH230705   0.481   2.802  16.666  0.4796 -0.5733  0.6998
 3097TIP3    H130706   0.447   2.880  16.623 -0.0419 -0.0866  1.9828
 3097TIP3    H230707   0.530   2.835  16.741  1.7663 -1.3980  0.2469
 3098TIP3   OH230708   6.452   2.336   1.823 -0.7815 -0.1423 -0.2931
 3098TIP3    H130709   6.365   2.335   1.783 -0.7794  1.9880 -0.4357
 3098TIP3    H230710   6.478   2.428   1.820  0.6807 -0.4695  1.4733
 3099TIP3   OH230711   0.832   6.446  15.384 -0.4176  0.1647 -0.4596
 3099TIP3    H130712   0.895   6.503  15.428 -1.8090  0.6716  0.9149
 3099TIP3    H230713   0.885   6.375  15.347  0.9554  0.5846  0.6607
 3100TIP3   OH230714   1.749   6.695   5.125  0.1023  0.2582  0.5619
 3100TIP3    H130715   1.659   6.716   5.101 -0.4808 -1.3953  1.2188
 3100TIP3    H230716   1.746   6.681   5.219  0.9653 -0.2092  0.5230
 3101TIP3   OH230717   2.273   2.545  13.040 -0.3699  0.0059  0.0789
 3101TIP3    H130718   2.259   2.502  12.956  0.1743  0.0254 -0.0286
 3101TIP3    H230719   2.339   2.491  13.084  0.0977  0.5498  0.0664
 3102TIP3   OH230720   0.580   1.089  11.608 -0.0963  0.2417  0.1822
 3102TIP3    H130721   0.508   1.100  11.546 -0.9113 -0.6349  0.9498
 3102TIP3    H230722   0.588   0.994  11.619  1.2680  0.3189  0.0131
 3103TIP3   OH230723   2.032   6.649   4.603  0.2124  0.0916  0.1447
 3103TIP3    H130724   2.028   6.709   4.528 -2.2444 -1.2481 -0.8505
 3103TIP3    H230725   2.078   6.572   4.570 -2.1125 -1.0744 -0.4374
 3104TIP3   OH230726   0.990   5.724  10.407 -0.4195 -0.1186 -0.2167
 3104TIP3    H130727   1.019   5.642  10.367  0.8049 -0.9591  2.2324
 3104TIP3    H230728   1.071   5.765  10.437 -1.3579 -0.6036  3.2435
 3105TIP3   OH230729   1.411   1.047  16.263 -0.4490 -0.2656 -0.2408
 3105TIP3    H130730   1.353   1.108  16.309 -3.5846 -3.5957  0.3762
 3105TIP3    H230731   1.464   1.008  16.333 -0.2909 -0.1982 -0.3237
 3106TIP3   OH230732   5.093   6.250  13.548  1.0597  0.0421 -0.5319
 3106TIP3    H130733   5.147   6.290  13.616  0.9889  2.1434 -1.6796
 3106TIP3    H230734   5.083   6.159  13.576 -0.8842  1.3491  3.4811
 3107TIP3   OH230735   4.128   4.945  13.302  0.4053  0.1316 -0.5163
 3107TIP3    H130736   4.044   4.989  13.289 -0.5031 -1.0774  1.0174
 3107TIP3    H230737   4.191   4.997  13.252 -0.8115  2.5437  0.4081
 3108TIP3   OH230738   5.395   5.154   1.519 -0.1011 -0.3083 -0.3530
 3108TIP3    H130739   5.487   5.132   1.534 -0.0164 -0.8267 -1.5758
 3108TIP3    H230740   5.379   5.130   1.427 -0.6576  2.5414 -1.0398
 3109TIP3   OH230741   3.686   1.660   0.457  0.1253  0.1860  0.5244
 3109TIP3    H130742   3.766   1.668   0.404  2.1057  0.0703  3.3966
 3109TIP3    H230743   3.654   1.749   0.466 -0.3991  0.1726 -1.1121
 3110TIP3   OH230744   1.373   3.329  17.100 -0.2331  0.5291  0.0204
 3110TIP3    H130745   1.460   3.357  17.128  0.4737 -0.0302 -1.5486
 3110TIP3    H230746   1.389   3.249  17.048 -1.5630  1.0093 -1.1607
 3111TIP3   OH230747   6.671   1.063  14.131  0.4289 -0.1284  0.5084
 3111TIP3    H130748   6.620   1.144  14.132  0.0155 -0.3995  1.5368
 3111TIP3    H230749   6.625   1.005  14.192  0.6222 -1.1957 -0.3307
 3112TIP3   OH230750   3.238   3.816  16.084  0.2207  0.1140 -0.0569
 3112TIP3    H130751   3.276   3.729  16.098  0.0669  0.2436  1.2085
 3112TIP3    H230752   3.308   3.866  16.041  1.5859  0.3880  2.3664
 3113TIP3   OH230753   2.172   4.763   5.628  0.1826 -0.7556  0.6058
 3113TIP3    H130754   2.225   4.843   5.635 -1.2531  0.2159  0.4768
 3113TIP3    H230755   2.159   4.751   5.534 -1.7988  0.3508  0.7038
 3114TIP3   OH230756   6.467   3.374   0.527  0.1369  0.2327 -0.0786
 3114TIP3    H130757   6.539   3.320   0.494  0.3880 -0.2420  1.2416
 3114TIP3    H230758   6.392   3.347   0.473  0.7304  0.0917 -0.8570
 3115TIP3   OH230759   0.079   2.898   0.296  0.1672  0.0213  0.2601
 3115TIP3    H130760   0.112   2.868   0.381  0.5425 -0.4492 -0.0475
 3115TIP3    H230761   0.015   2.966   0.318 -0.9141 -1.1941  0.9874
 3116TIP3   OH230762   4.556   5.947  12.637  0.0645 -0.3693  0.0127
 3116TIP3    H130763   4.552   6.016  12.570 -0.4150 -1.6814 -1.3429
 3116TIP3    H230764   4.469   5.948  12.677  0.7867  1.3625  1.6290
 3117TIP3   OH230765   5.165   0.694  13.941 -0.5359 -0.3674 -0.2603
 3117TIP3    H130766   5.076   0.716  13.968  0.8041  2.9601  1.7238
 3117TIP3    H230767   5.191   0.765  13.882  0.4112 -1.9486 -1.8072
 3118TIP3   OH230768   5.845   2.529   4.677 -0.5473 -0.2518  0.0021
 3118TIP3    H130769   5.771   2.589   4.680  0.6481  1.3086 -0.9821
 3118TIP3    H230770   5.908   2.566   4.739  0.3231 -0.3329 -0.8359
 3119TIP3   OH230771   0.870   0.844  13.061  0.2307  0.0524  0.0008
 3119TIP3    H130772   0.920   0.810  12.987  0.9261  0.7642  0.1345
 3119TIP3    H230773   0.910   0.803  13.138  2.2473  2.4523  0.3235
 3120TIP3   OH230774   0.857   0.992  14.148 -0.0581 -0.0955  0.3321
 3120TIP3    H130775   0.892   0.925  14.090  1.6936  2.0619 -1.2322
 3120TIP3    H230776   0.767   1.006  14.118 -0.1372 -1.1313  0.0909
 3121TIP3   OH230777   4.234   2.401   6.059 -0.3356 -0.1919  0.3264
 3121TIP3    H130778   4.171   2.451   6.006  1.8058  0.8908 -1.2783
 3121TIP3    H230779   4.190   2.318   6.076 -2.4229  0.7394 -0.3080
 3122TIP3   OH230780   2.926   2.925   5.409  0.2134  0.2797 -0.3558
 3122TIP3    H130781   2.956   2.999   5.461 -0.9657  0.2670  0.3697
 3122TIP3    H230782   2.866   2.878   5.467 -0.2346 -0.3803 -1.3390
 3123TIP3   OH230783   5.929   3.763  15.072 -0.5169 -0.2548 -0.4386
 3123TIP3    H130784   5.873   3.840  15.061 -1.6011 -0.7575  1.4237
 3123TIP3    H230785   5.878   3.703  15.125  0.9751 -1.5982 -0.4854
 3124TIP3   OH230786   2.478   5.189  13.465  0.3969 -0.4780  0.1835
 3124TIP3    H130787   2.433   5.224  13.388 -0.1376 -0.9125  0.2958
 3124TIP3    H230788   2.492   5.265  13.521 -1.1704 -0.5063  0.6359
 3125TIP3   OH230789   5.263   0.678   2.248  0.0331  0.3800  0.4678
 3125TIP3    H130790   5.271   0.758   2.195  0.1885 -0.4083 -0.7303
 3125TIP3    H230791   5.229   0.708   2.332  3.0433  2.1481  1.1402
 3126TIP3   OH230792   4.230   0.008  15.910 -0.6682 -0.1737 -0.2911
 3126TIP3    H130793   4.285   0.084  15.932 -0.8947 -0.0040 -0.3132
 3126TIP3    H230794   4.284  -0.044  15.851 -0.2116 -0.4249  0.3346
 3127TIP3   OH230795   0.888   6.642   4.349 -0.4481 -0.8582 -0.2331
 3127TIP3    H130796   0.946   6.698   4.400 -2.7276  0.2041  1.2766
 3127TIP3    H230797   0.943   6.609   4.277  2.1199 -0.3446  1.4410
 3128TIP3   OH230798   3.224   0.661  14.871 -0.5969 -0.0966 -0.2497
 3128TIP3    H130799   3.273   0.597  14.819  0.6497 -0.9474  1.8990
 3128TIP3    H230800   3.178   0.608  14.936 -2.5036  0.9173 -0.7363
 3129TIP3   OH230801   6.095   3.467  11.412  0.3524 -0.4995  0.2974
 3129TIP3    H130802   6.066   3.535  11.351 -0.2938 -0.8870  0.1603
 3129TIP3    H230803   6.186   3.487  11.431 -0.1068  0.9575  0.9969
 3130TIP3   OH230804   4.991   5.563  11.235  0.1412  0.3324 -0.4741
 3130TIP3    H130805   5.005   5.614  11.155 -0.3946 -0.5604 -1.1370
 3130TIP3    H230806   4.994   5.628  11.305  2.0519  0.9343 -1.0743
 3131TIP3   OH230807   3.208   4.783   5.016  0.1521 -0.0092 -0.0651
 3131TIP3    H130808   3.301   4.795   4.997 -0.2081  1.5172 -0.9296
 3131TIP3    H230809   3.206   4.738   5.101  1.6751 -0.5965 -0.3290
 3132TIP3   OH230810   3.902   1.602  15.023 -0.2290 -0.1160  0.3113
 3132TIP3    H130811   3.980   1.578  15.072 -0.0918  1.7465  1.0364
 3132TIP3    H230812   3.920   1.690  14.989 -1.3388 -0.3423 -0.9207
 3133TIP3   OH230813   3.358   2.136   6.815  0.1807  0.1805  0.0814
 3133TIP3    H130814   3.354   2.224   6.851 -0.7977  0.5500 -0.9082
 3133TIP3    H230815   3.273   2.123   6.774  0.7848 -0.7480 -0.8988
 3134TIP3   OH230816   3.558   5.252  13.851  0.0811 -0.6791  0.1669
 3134TIP3    H130817   3.467   5.230  13.867  0.6980 -2.4899  1.2638
 3134TIP3    H230818   3.579   5.210  13.767 -0.1159 -0.1154 -0.1743
 3135TIP3   OH230819   3.867   1.282   6.526 -0.4475  0.1523 -0.3470
 3135TIP3    H130820   3.835   1.312   6.441  1.6332  2.4987 -0.3618
 3135TIP3    H230821   3.921   1.354   6.558  0.2002 -1.4018  2.1959
 3136TIP3   OH230822   2.218   2.622  13.616  0.4711  0.1036 -0.5504
 3136TIP3    H130823   2.293   2.682  13.620  1.5120 -1.1726 -0.8547
 3136TIP3    H230824   2.183   2.622  13.706  0.3820  1.2641 -0.5770
 3137TIP3   OH230825   3.188   4.065  11.065  0.1412 -0.4918 -0.0199
 3137TIP3    H130826   3.129   4.132  11.030 -0.8295 -1.6762 -0.6863
 3137TIP3    H230827   3.167   3.986  11.015 -0.1599 -1.8275  2.1445
 3138TIP3   OH230828   3.486   4.830   4.993 -0.1796  0.0221 -0.5510
 3138TIP3    H130829   3.542   4.873   5.058  0.1995  0.4517 -1.1511
 3138TIP3    H230830   3.514   4.867   4.909  0.8882 -2.1862 -1.2165
 3139TIP3   OH230831   3.597   4.909  13.375 -0.0047 -0.4607  1.0223
 3139TIP3    H130832   3.539   4.984  13.390 -0.3839 -0.9426  2.0251
 3139TIP3    H230833   3.667   4.944  13.320 -0.4172  0.5218  1.1031
 3140TIP3   OH230834   6.544   3.408   2.926 -0.2534 -0.5715  0.1338
 3140TIP3    H130835   6.493   3.425   3.006  1.5308 -0.6884  1.3313
 3140TIP3    H230836   6.501   3.461   2.859 -1.6254 -0.2487  1.2322
 3141TIP3   OH230837   2.615   4.633  11.637  0.3041 -0.0851 -0.4753
 3141TIP3    H130838   2.686   4.696  11.647 -1.1667  1.4752  0.4507
 3141TIP3    H230839   2.567   4.638  11.720 -2.2757  0.6617 -1.9611
 3142TIP3   OH230840   4.974   6.602   6.524  0.5354 -0.6965 -0.5906
 3142TIP3    H130841   5.011   6.670   6.468 -0.0565  0.3594  0.2885
 3142TIP3    H230842   4.887   6.585   6.487 -0.0534  0.3570  0.2971
 3143TIP3   OH230843   6.334   1.231  17.091 -0.8684  0.8536 -0.3215
 3143TIP3    H130844   6.325   1.139  17.119 -0.1537  1.0932  0.7439
 3143TIP3    H230845   6.266   1.277  17.138 -1.2755  0.8629 -0.9161
 3144TIP3   OH230846   1.568   4.249   3.104  0.5304  0.5696  0.3854
 3144TIP3    H130847   1.506   4.301   3.053 -0.7582  0.8629  2.2220
 3144TIP3    H230848   1.515   4.176   3.138  1.5146  0.0388  0.7959
 3145TIP3   OH230849   3.439   3.614   0.171  0.3722 -0.1320  0.1020
 3145TIP3    H130850   3.506   3.647   0.231 -2.1200  0.0926  2.8610
 3145TIP3    H230851   3.451   3.666   0.091  1.8399  1.6460  1.4268
 3146TIP3   OH230852   1.710   3.669   3.029  0.1238 -0.1941 -0.1638
 3146TIP3    H130853   1.655   3.622   2.967  0.9891 -0.4141 -0.7676
 3146TIP3    H230854   1.795   3.626   3.024  0.5524  0.5782  0.2575
 3147TIP3   OH230855   4.542   4.319  17.080  0.2427 -0.1383  0.1490
 3147TIP3    H130856   4.587   4.385  17.026 -0.5902 -0.4018 -0.9053
 3147TIP3    H230857   4.579   4.329  17.167  0.1424  1.7303 -0.0007
 3148TIP3   OH230858   1.354   5.726   5.562 -0.5331 -0.1947  0.7537
 3148TIP3    H130859   1.329   5.663   5.629 -1.0055 -0.6540  0.1560
 3148TIP3    H230860   1.384   5.672   5.488  0.5294  0.3176  0.8125
 3149TIP3   OH230861   1.424   1.240   0.506  0.1268  0.2001 -0.1236
 3149TIP3    H130862   1.448   1.218   0.416  0.8721  0.9555 -0.1166
 3149TIP3    H230863   1.370   1.166   0.535  1.3068 -0.8747 -0.6163
 3150TIP3   OH230864   3.279   5.991   3.024  0.2324  0.3310 -0.0937
 3150TIP3    H130865   3.191   5.977   2.987  0.1576 -0.5832  0.4276
 3150TIP3    H230866   3.311   6.070   2.980 -0.3541 -0.0450 -1.2073
 3151TIP3   OH230867   5.457   1.716   4.437 -0.0412 -0.0218  0.0377
 3151TIP3    H130868   5.545   1.725   4.472 -0.6478  0.2501  1.5212
 3151TIP3    H230869   5.402   1.770   4.494 -1.4471 -1.6216  0.2376
 3152TIP3   OH230870   5.305   2.332   3.641 -0.4620 -0.1784 -0.0255
 3152TIP3    H130871   5.349   2.342   3.556 -0.2941  0.6610  0.1548
 3152TIP3    H230872   5.229   2.278   3.622 -1.1224  1.0462 -0.9618
 3153TIP3   OH230873   3.924   4.338  15.670  0.4203  0.2328  0.1613
 3153TIP3    H130874   3.967   4.264  15.711 -0.7589 -0.4433  0.1835
 3153TIP3    H230875   3.858   4.366  15.733 -0.0795  0.4221 -0.4434
 3154TIP3   OH230876   1.582   0.880  13.934 -1.1792  0.0069 -0.2152
 3154TIP3    H130877   1.661   0.898  13.984 -0.9026 -3.6960  0.8664
 3154TIP3    H230878   1.530   0.960  13.940  1.2356  1.5011  1.4283
 3155TIP3   OH230879   4.977   3.050  13.395 -0.5834 -0.5177  0.1105
 3155TIP3    H130880   5.034   2.977  13.373 -1.2373 -0.8373 -0.5555
 3155TIP3    H230881   4.931   3.070  13.313  2.4538  3.2493 -0.8409
 3156TIP3   OH230882   4.276   2.333   5.282 -0.2821  0.0658  0.2762
 3156TIP3    H130883   4.358   2.286   5.265  0.4033  0.9008  1.2605
 3156TIP3    H230884   4.245   2.298   5.365 -0.9676 -0.2766 -0.1117
 3157TIP3   OH230885   4.766   4.594   0.528  0.3986  0.4085 -0.2693
 3157TIP3    H130886   4.856   4.624   0.540  1.0695 -1.8119  0.4955
 3157TIP3    H230887   4.743   4.553   0.611 -1.3278  0.9462 -0.4590
 3158TIP3   OH230888   2.377   1.069  12.223  0.0235 -0.2547  0.3205
 3158TIP3    H130889   2.385   1.117  12.140  0.7747  1.1222  1.1719
 3158TIP3    H230890   2.358   0.979  12.196  1.3160 -0.0591 -1.4038
 3159TIP3   OH230891   3.620   5.390   0.032  0.5603  0.4582  0.1954
 3159TIP3    H130892   3.547   5.452   0.023  1.0782  0.8962 -1.1058
 3159TIP3    H230893   3.586   5.322   0.090 -1.6222 -0.4083 -1.9900
 3160TIP3   OH230894   5.871   1.111  14.555 -0.1068  0.1370 -0.1351
 3160TIP3    H130895   5.911   1.027  14.529 -0.1150 -0.6492  2.2205
 3160TIP3    H230896   5.778   1.090  14.567 -0.1280  0.5108  0.3443
 3161TIP3   OH230897   2.128   1.323  15.276  0.0796  0.3134 -0.1524
 3161TIP3    H130898   2.123   1.363  15.363 -0.3720 -1.5376  0.6873
 3161TIP3    H230899   2.044   1.343  15.235 -0.5008 -0.5651  0.6126
 3162TIP3   OH230900   0.554   1.426   2.679 -0.1807  0.3301 -0.0493
 3162TIP3    H130901   0.554   1.521   2.690  0.4240  0.2201  0.8959
 3162TIP3    H230902   0.501   1.393   2.752 -0.1218 -0.0782 -0.1889
 3163TIP3   OH230903   0.989   6.715   2.253 -0.3065  0.2160 -0.2057
 3163TIP3    H130904   1.014   6.700   2.344 -0.1336 -0.7345 -0.4006
 3163TIP3    H230905   1.070   6.700   2.204 -0.2871  1.1720 -0.4800
 3164TIP3   OH230906   2.570   0.277  15.250  0.1559 -0.5092  0.3537
 3164TIP3    H130907   2.544   0.353  15.302 -1.3071 -0.0708 -1.0055
 3164TIP3    H230908   2.511   0.208  15.277 -0.9675 -0.1354 -1.0820
 3165TIP3   OH230909   2.655   6.104   0.976  0.6916  0.3655  0.1102
 3165TIP3    H130910   2.729   6.089   0.917  0.5481 -1.0481  0.2684
 3165TIP3    H230911   2.615   6.185   0.944  2.5148  1.3740  0.2538
 3166TIP3   OH230912   2.258   5.882   0.627 -0.2768  0.3947  0.6438
 3166TIP3    H130913   2.327   5.816   0.619 -0.5454  0.2061 -0.1099
 3166TIP3    H230914   2.248   5.918   0.539  0.3996  1.9785  1.1864
 3167TIP3   OH230915   1.167   4.579   6.682 -0.0632  0.2609  0.4737
 3167TIP3    H130916   1.175   4.536   6.597  0.8955 -0.0656  0.7213
 3167TIP3    H230917   1.237   4.541   6.735  1.3414  2.7121  0.4519
 3168TIP3   OH230918   1.213   6.507  14.845 -0.4091 -0.1827  0.1486
 3168TIP3    H130919   1.155   6.564  14.896 -0.4718 -0.0864 -0.0291
 3168TIP3    H230920   1.263   6.458  14.910  1.6082  2.0421  0.3077
 3169TIP3   OH230921   4.579   1.606   2.958  0.4656 -0.2960  0.1061
 3169TIP3    H130922   4.485   1.608   2.974  0.5193 -0.2218  0.4028
 3169TIP3    H230923   4.590   1.647   2.872  0.3994  1.2127  0.8077
 3170TIP3   OH230924   0.770   3.972   2.280  0.3330 -0.0540  0.0127
 3170TIP3    H130925   0.676   3.976   2.267  0.5037  0.6544 -1.0317
 3170TIP3    H230926   0.787   4.033   2.352  0.2388  1.4623 -1.2124
 3171TIP3   OH230927   0.114   0.916   2.276 -0.1525  0.7580 -0.0508
 3171TIP3    H130928   0.156   0.836   2.310 -1.0262  0.0488 -0.6060
 3171TIP3    H230929   0.180   0.954   2.218  0.4195  0.6551  0.5230
 3172TIP3   OH230930   3.271   1.040  15.002 -0.6838 -0.1427  0.1992
 3172TIP3    H130931   3.326   1.083  14.936 -1.8005 -0.8107 -1.1887
 3172TIP3    H230932   3.228   1.112  15.047 -0.5849  0.2929 -0.3882
 3173TIP3   OH230933   2.194   1.449  11.122 -0.1445  0.1656  0.0233
 3173TIP3    H130934   2.224   1.441  11.032  0.7204 -0.3827  0.3569
 3173TIP3    H230935   2.100   1.464  11.114  0.4008  3.5546 -1.0989
 3174TIP3   OH230936   1.836   2.789  15.266  0.1349 -0.1408 -0.4896
 3174TIP3    H130937   1.897   2.748  15.328 -0.8810 -1.8226 -0.5675
 3174TIP3    H230938   1.753   2.746  15.283 -0.9226  1.7418 -0.7708
 3175TIP3   OH230939   4.297   4.418   3.929  1.3415  0.5616 -0.0343
 3175TIP3    H130940   4.345   4.413   3.846  0.0740 -0.6099 -0.7177
 3175TIP3    H230941   4.213   4.458   3.906 -0.0531 -2.1390  0.1612
 3176TIP3   OH230942   2.220   4.552  14.789  0.1648  0.4198  0.2775
 3176TIP3    H130943   2.283   4.583  14.854  0.5814  0.2902 -0.0630
 3176TIP3    H230944   2.268   4.485  14.740 -0.7101 -0.7489  0.9906
 3177TIP3   OH230945   6.555   5.117   1.022 -0.2990 -0.6310  0.2244
 3177TIP3    H130946   6.581   5.184   1.085 -0.8529  1.8114 -2.0790
 3177TIP3    H230947   6.634   5.064   1.010  0.9921  1.3310 -0.0573
 3178TIP3   OH230948   0.772   1.953   5.956  0.5992 -0.7010  0.0332
 3178TIP3    H130949   0.861   1.952   5.919  0.1690 -2.2087 -1.0201
 3178TIP3    H230950   0.718   1.910   5.889 -0.5969 -1.4418  1.4495
 3179TIP3   OH230951   3.343   3.873  11.764  0.3672 -0.6407  0.1613
 3179TIP3    H130952   3.344   3.795  11.710  2.5282  0.0482 -0.8349
 3179TIP3    H230953   3.416   3.926  11.733 -0.9080  1.6957  0.9448
 3180TIP3   OH230954   1.269   4.771   4.996  0.4612 -0.0882  0.1923
 3180TIP3    H130955   1.261   4.675   4.995 -0.2216 -0.0336  0.7290
 3180TIP3    H230956   1.179   4.803   4.991  0.7665  0.5507 -2.1705
 3181TIP3   OH230957   0.038   3.874  12.395  0.0185  0.5228  0.1077
 3181TIP3    H130958   0.034   3.948  12.333 -0.4580  0.0136 -0.4783
 3181TIP3    H230959   0.130   3.848  12.394  0.0145  0.5062 -0.4105
 3182TIP3   OH230960   3.549   0.040   5.437 -0.3290  0.3212  0.3610
 3182TIP3    H130961   3.614   0.052   5.368 -0.5265  2.9509  0.5613
 3182TIP3    H230962   3.601   0.027   5.517  0.0612  3.8385  0.7604
 3183TIP3   OH230963   0.042   1.715  16.513 -0.4590  0.1380 -0.3329
 3183TIP3    H130964  -0.034   1.723  16.571  0.0620  0.8574  0.2531
 3183TIP3    H230965   0.062   1.621  16.514 -0.0699  0.2217  1.1611
 3184TIP3   OH230966   2.058   4.339  16.477 -0.4982  0.0069  0.6487
 3184TIP3    H130967   2.125   4.318  16.413 -0.0862 -0.7717  1.3238
 3184TIP3    H230968   2.064   4.434  16.488 -1.3220  0.3156 -1.2758
 3185TIP3   OH230969   5.220   5.168   2.636  1.0072 -0.1174  0.1486
 3185TIP3    H130970   5.136   5.207   2.608  0.7588 -0.6858  0.0967
 3185TIP3    H230971   5.217   5.079   2.602  1.7762 -0.0376 -0.1205
 3186TIP3   OH230972   0.590   1.241  11.242  0.1073  0.5615 -0.2043
 3186TIP3    H130973   0.567   1.322  11.287 -2.1189  0.1394 -0.5466
 3186TIP3    H230974   0.653   1.269  11.175  1.4625  1.5719  1.4370
 3187TIP3   OH230975   0.121   6.472  12.736 -0.0189  0.1486  0.2870
 3187TIP3    H130976   0.057   6.477  12.664  0.2544 -0.5697 -0.0149
 3187TIP3    H230977   0.200   6.511  12.700  0.6784 -1.8539 -0.4532
 3188TIP3   OH230978   1.620   2.782  15.869  0.8302  0.5699 -0.2912
 3188TIP3    H130979   1.658   2.821  15.947  1.7406 -2.1163  0.6734
 3188TIP3    H230980   1.536   2.746  15.897  0.9019  0.0959 -0.6635
 3189TIP3   OH230981   5.637   2.881  15.151 -0.9966  0.0792  0.2583
 3189TIP3    H130982   5.572   2.835  15.204 -1.3149  2.2187  1.7888
 3189TIP3    H230983   5.719   2.832  15.165 -0.9889  0.7954  3.0504
 3190TIP3   OH230984   2.182   6.382  16.038 -0.1628  0.4145 -0.4736
 3190TIP3    H130985   2.127   6.435  15.981  0.2878 -0.4284 -1.7091
 3190TIP3    H230986   2.143   6.294  16.034 -0.1492  0.3561  0.5416
 3191TIP3   OH230987   6.475   5.907   3.686 -0.4537 -0.2609 -0.1551
 3191TIP3    H130988   6.552   5.962   3.698 -1.0353  0.7736 -1.0083
 3191TIP3    H230989   6.421   5.955   3.623 -1.6452 -1.1143  0.1872
 3192TIP3   OH230990   4.068   1.755   0.416  0.2873 -0.1632  0.8968
 3192TIP3    H130991   4.071   1.771   0.510  0.3850 -0.1338  0.8891
 3192TIP3    H230992   4.090   1.839   0.377  0.8307 -0.3210  0.8580
 3193TIP3   OH230993   6.693   3.321  12.908 -0.1487  0.5409 -0.5015
 3193TIP3    H130994   6.642   3.261  12.963 -2.2671  2.8985  0.2101
 3193TIP3    H230995   6.748   3.263  12.855 -1.1459 -1.9724  1.0662
 3194TIP3   OH230996   3.845   5.424  17.080 -0.4458  0.4468 -0.0817
 3194TIP3    H130997   3.754   5.405  17.101  0.9223 -3.0595  3.1998
 3194TIP3    H230998   3.876   5.348  17.032  0.9174  1.3898 -0.7537
 3195TIP3   OH230999   1.818   1.370   5.538 -0.3440  0.0007 -0.2569
 3195TIP3    H131000   1.868   1.291   5.521 -0.8997 -0.2294 -0.8716
 3195TIP3    H231001   1.857   1.436   5.480 -0.5127 -0.0824 -0.4657
 3196TIP3   OH231002   1.448   1.179  16.693  0.3596 -0.6015  0.3033
 3196TIP3    H131003   1.385   1.161  16.762  0.6859  1.5508  1.1921
 3196TIP3    H231004   1.395   1.211  16.620  0.1672 -1.4286  0.0746
 3197TIP3   OH231005   6.350   1.488   5.086 -0.0887 -0.2302 -0.3728
 3197TIP3    H131006   6.411   1.486   5.012  0.1496  0.1613 -0.1847
 3197TIP3    H231007   6.406   1.498   5.163 -0.5274  2.4908 -0.3647
 3198TIP3   OH231008   2.362   4.993  12.976  1.2036 -0.1617 -0.2248
 3198TIP3    H131009   2.418   5.070  12.980  0.5873  0.2827 -0.1482
 3198TIP3    H231010   2.320   4.989  13.062  1.3468 -0.6633 -0.1796
 3199TIP3   OH231011   6.079   3.635   3.333 -0.1909  0.5215  0.4631
 3199TIP3    H131012   6.150   3.689   3.299  0.2358 -0.4647 -0.2508
 3199TIP3    H231013   6.035   3.690   3.397 -0.4465  2.1122 -1.0389
 3200TIP3   OH231014   1.468   1.237  14.980  0.1665 -0.0840 -0.4292
 3200TIP3    H131015   1.468   1.186  15.061 -0.8876 -1.2611 -1.1553
 3200TIP3    H231016   1.550   1.213  14.937  0.7844  0.6269  0.3135
 3201TIP3   OH231017   0.799   2.450   2.260  0.2079  0.3565  0.6498
 3201TIP3    H131018   0.741   2.435   2.186  1.5306  0.6053 -0.4651
 3201TIP3    H231019   0.869   2.506   2.225  2.0756 -1.4034  1.4566
 3202TIP3   OH231020   3.800   1.389   6.282  0.0667  0.2192  0.3699
 3202TIP3    H131021   3.826   1.477   6.256  1.1377 -0.5659 -1.3134
 3202TIP3    H231022   3.847   1.331   6.222 -0.0357 -1.5387  1.9295
 3203TIP3   OH231023   4.503   4.153  10.770  0.3373 -0.0396 -0.1113
 3203TIP3    H131024   4.418   4.190  10.746 -0.3893 -0.3806  1.8314
 3203TIP3    H231025   4.490   4.058  10.764  0.0428 -0.1315  1.9399
 3204TIP3   OH231026   3.605   3.702  12.547  0.3935  0.3520  0.3976
 3204TIP3    H131027   3.700   3.691  12.535  0.2512 -1.6178  0.9454
 3204TIP3    H231028   3.575   3.618  12.580 -1.7233  0.6345 -0.7307
 3205TIP3   OH231029   4.499   0.998   5.437 -1.2450 -0.0522 -0.6688
 3205TIP3    H131030   4.546   1.071   5.477  0.4236 -0.1302 -2.4090
 3205TIP3    H231031   4.540   0.920   5.473 -1.2874 -0.1300 -0.7884
 3206TIP3   OH231032   2.578   1.063   2.011 -0.1840 -0.3283 -0.9715
 3206TIP3    H131033   2.631   0.983   2.008 -1.4250 -1.1852 -0.6512
 3206TIP3    H231034   2.613   1.113   2.084  0.1716 -0.8937 -0.7531
 3207TIP3   OH231035   3.904   5.438   3.482 -0.0716  0.3296 -0.1150
 3207TIP3    H131036   3.816   5.467   3.457 -0.0291  0.0298 -0.6022
 3207TIP3    H231037   3.959   5.461   3.408  0.7328  2.8026  1.1796
 3208TIP3   OH231038   3.818   1.949  12.279 -0.1601  0.5511  0.1859
 3208TIP3    H131039   3.776   1.899  12.349  0.6720  1.3437  1.2623
 3208TIP3    H231040   3.841   1.883  12.213  1.5810 -0.5968  1.8935
 3209TIP3   OH231041   1.400   2.197  11.550  0.1678 -0.4292  0.7570
 3209TIP3    H131042   1.429   2.112  11.583 -0.2266 -1.2645 -0.9980
 3209TIP3    H231043   1.452   2.260  11.599  1.9976 -1.7491  0.5737
 3210TIP3   OH231044   4.163   3.303  16.700 -0.0056 -0.2484  0.3102
 3210TIP3    H131045   4.255   3.284  16.684  0.0083  0.6101 -0.7271
 3210TIP3    H231046   4.157   3.398  16.691 -0.7461 -0.1391  1.7291
 3211TIP3   OH231047   1.467   0.323  14.657 -0.3080  0.6518  0.4547
 3211TIP3    H131048   1.474   0.377  14.736 -0.9024 -2.3381  2.6177
 3211TIP3    H231049   1.437   0.385  14.590  0.6665  3.3699  2.4063
 3212TIP3   OH231050   6.451   3.344  16.070 -0.1862  0.6961 -0.3654
 3212TIP3    H131051   6.506   3.342  16.149 -1.2784 -0.4150  0.3807
 3212TIP3    H231052   6.374   3.292  16.093 -1.4675  2.0578 -1.4790
 3213TIP3   OH231053   6.366   5.850   1.127  0.1512  0.0435 -0.0672
 3213TIP3    H131054   6.447   5.851   1.178  0.0503  0.5106  0.0804
 3213TIP3    H231055   6.388   5.899   1.047 -0.5927  1.9532  0.8866
 3214TIP3   OH231056   2.283   6.098   5.882 -0.5593  0.1053  0.2337
 3214TIP3    H131057   2.245   6.166   5.938 -0.4393  2.7813 -2.7627
 3214TIP3    H231058   2.208   6.058   5.838 -0.4097  1.0542 -0.9329
 3215TIP3   OH231059   3.509   1.821  16.484  0.1953  0.0177 -0.2918
 3215TIP3    H131060   3.541   1.893  16.538 -0.3941 -0.1093  0.2369
 3215TIP3    H231061   3.414   1.834  16.480 -0.3129 -2.3671  2.2792
 3216TIP3   OH231062   0.144   6.004  16.122  0.1623 -0.7456 -0.2894
 3216TIP3    H131063   0.127   6.006  16.028 -2.3215 -1.6993  0.0932
 3216TIP3    H231064   0.235   5.975  16.130  1.1538  1.5760 -2.4340
 3217TIP3   OH231065   2.011   2.877   0.746 -0.1862 -0.1119 -0.2592
 3217TIP3    H131066   2.097   2.907   0.775 -0.0604  1.4817 -2.1621
 3217TIP3    H231067   2.025   2.847   0.656 -1.3431 -1.1540 -0.0999
 3218TIP3   OH231068   3.065   1.674   5.513  0.1364 -0.3786 -0.1849
 3218TIP3    H131069   3.085   1.580   5.514 -0.8892 -0.5960  0.1507
 3218TIP3    H231070   3.078   1.702   5.604  1.5588  0.0500 -0.5095
 3219TIP3   OH231071   2.920   3.250   5.737  0.0895  0.5011 -0.2114
 3219TIP3    H131072   2.894   3.212   5.821  1.0155  1.1102  0.3673
 3219TIP3    H231073   2.906   3.344   5.748 -0.2554  0.5352 -0.9199
 3220TIP3   OH231074   4.441   5.175  17.110  0.0486  0.5991 -0.0764
 3220TIP3    H131075   4.471   5.089  17.082 -1.8922 -0.4483  0.9722
 3220TIP3    H231076   4.463   5.180  17.203 -0.8155  0.7942  0.1231
 3221TIP3   OH231077   1.340   3.719  14.877 -0.1720  0.9002  0.1299
 3221TIP3    H131078   1.297   3.634  14.871  0.1148  0.7164  0.7078
 3221TIP3    H231079   1.384   3.719  14.962  0.4869  1.3127 -0.2048
 3222TIP3   OH231080   0.737   1.865  16.865  0.0538  0.2308  0.1208
 3222TIP3    H131081   0.704   1.863  16.775  1.1311 -1.0399 -0.2611
 3222TIP3    H231082   0.724   1.775  16.897  1.7795  0.0753  0.4470
 3223TIP3   OH231083   2.137   1.291   5.722  0.1192 -0.6621 -0.2442
 3223TIP3    H131084   2.146   1.211   5.671  2.6234 -1.4812  1.3823
 3223TIP3    H231085   2.061   1.275   5.778  0.8360 -2.0682  0.3523
 3224TIP3   OH231086   2.733   6.130   1.882 -0.3184 -0.2733 -0.2670
 3224TIP3    H131087   2.789   6.067   1.836  0.1384 -1.1004  1.3919
 3224TIP3    H231088   2.648   6.087   1.889  0.2726 -1.1697  1.7786
 3225TIP3   OH231089   1.516   6.577  12.325 -0.0897  0.1731  0.2786
 3225TIP3    H131090   1.433   6.614  12.353 -0.0222  1.0038 -0.5900
 3225TIP3    H231091   1.497   6.534  12.242  0.3834  0.4862  0.0058
 3226TIP3   OH231092   3.229   6.551   1.557  0.1999  0.0520  0.7627
 3226TIP3    H131093   3.305   6.571   1.612 -0.4085  2.9375  0.6468
 3226TIP3    H231094   3.208   6.634   1.514 -0.2791 -1.7647 -2.6884
 3227TIP3   OH231095   2.545   2.439  17.184 -0.2706 -0.0047 -1.1873
 3227TIP3    H131096   2.584   2.427  17.097  2.1375 -0.3566 -0.0914
 3227TIP3    H231097   2.576   2.525  17.212 -0.2992 -0.2842 -0.2999
 3228TIP3   OH231098   0.763   3.961  12.105  0.3979 -0.0526 -0.0234
 3228TIP3    H131099   0.837   3.917  12.148  1.2324  0.4818 -0.8732
 3228TIP3    H231100   0.783   3.954  12.012 -1.0419 -0.5929 -0.2958
 3229TIP3   OH231101   5.364   2.032   4.297 -0.7439 -0.1662 -0.0758
 3229TIP3    H131102   5.459   2.029   4.307 -0.7605  0.2261  0.1927
 3229TIP3    H231103   5.335   2.101   4.357 -1.3639 -1.3299  0.9902
 3230TIP3   OH231104   4.284   5.723   1.722 -0.0135 -0.6909 -0.5779
 3230TIP3    H131105   4.227   5.675   1.662 -1.0086  0.3379 -0.4660
 3230TIP3    H231106   4.313   5.657   1.785 -0.5025 -1.3693 -1.0535
 3231TIP3   OH231107   1.294   6.079   3.960  0.0724  0.2960  0.3703
 3231TIP3    H131108   1.369   6.112   3.911 -0.4103  1.5449  0.4444
 3231TIP3    H231109   1.291   5.986   3.940 -0.7025  0.9397 -2.7973
 3232TIP3   OH231110   3.317   2.715  13.887  0.3170  0.2472 -0.5725
 3232TIP3    H131111   3.349   2.744  13.802  1.6504 -1.3011 -0.6148
 3232TIP3    H231112   3.375   2.758  13.950  0.7256 -0.3540 -0.5370
 3233TIP3   OH231113   1.789   2.334  13.288  0.4074 -0.4096 -0.7187
 3233TIP3    H131114   1.873   2.291  13.305  0.6110  0.6447  0.9633
 3233TIP3    H231115   1.763   2.299  13.202  2.2939 -1.1527 -1.0358
 3234TIP3   OH231116   3.693   6.642  10.481 -0.6547 -0.2174  0.1877
 3234TIP3    H131117   3.745   6.562  10.480 -2.4559 -1.4261 -0.5623
 3234TIP3    H231118   3.620   6.623  10.422 -2.1888  1.2541  1.5650
 3235TIP3   OH231119   0.942   6.572   3.775 -0.3630  0.2484  0.2137
 3235TIP3    H131120   0.987   6.654   3.795  0.3090 -0.2282  0.7017
 3235TIP3    H231121   0.949   6.563   3.680  1.2878 -0.2068  0.3557
 3236TIP3   OH231122   4.922   3.608   0.749  0.1463 -0.1083  0.3023
 3236TIP3    H131123   4.868   3.635   0.674  0.6843 -0.2285 -0.1276
 3236TIP3    H231124   4.977   3.683   0.767 -0.1356  0.0022  0.7254
 3237TIP3   OH231125   6.106   3.839  10.975  0.1594  0.1385 -0.2142
 3237TIP3    H131126   6.152   3.871  10.898  1.1537 -0.8349 -0.0252
 3237TIP3    H231127   6.064   3.758  10.946 -0.9336  0.6908 -0.2120
 3238TIP3   OH231128   3.265   3.419   0.128  0.1365  0.0743  0.0101
 3238TIP3    H131129   3.334   3.485   0.131  1.0963 -0.8994 -0.6565
 3238TIP3    H231130   3.255   3.392   0.219 -0.9523  1.8251  0.4447
 3239TIP3   OH231131   1.927   4.276   6.227  0.5482 -0.1342 -0.0676
 3239TIP3    H131132   1.909   4.261   6.135  0.3173  0.8198 -0.1789
 3239TIP3    H231133   1.849   4.244   6.273 -0.1777  1.2253 -0.3400
 3240TIP3   OH231134   3.390   2.227  12.768 -0.2291 -0.3282  0.0587
 3240TIP3    H131135   3.446   2.156  12.737 -0.6069 -0.1901 -0.9398
 3240TIP3    H231136   3.414   2.302  12.714 -1.4823 -0.3060 -0.4783
 3241TIP3   OH231137   1.666   4.586  14.963 -0.6240 -0.0684  0.3973
 3241TIP3    H131138   1.593   4.648  14.961 -0.0186  0.6518  0.2488
 3241TIP3    H231139   1.677   4.558  14.873  1.2396  2.1766 -0.1332
 3242TIP3   OH231140   4.640   5.588   3.562 -0.3125  0.3079 -0.2943
 3242TIP3    H131141   4.548   5.614   3.566 -0.7640 -1.3195  0.1847
 3242TIP3    H231142   4.638   5.493   3.555  1.3776 -0.0032  2.6644
 3243TIP3   OH231143   1.839   0.022  14.433 -0.3419 -0.0303  0.3681
 3243TIP3    H131144   1.903   0.078  14.477 -0.8458  0.8590 -0.0121
 3243TIP3    H231145   1.889  -0.054  14.405  0.8865  1.3517 -1.2715
 3244TIP3   OH231146   0.666   3.658   0.842  0.1157  0.0444  0.6732
 3244TIP3    H131147   0.623   3.640   0.758  1.3615 -0.4734  0.1443
 3244TIP3    H231148   0.719   3.736   0.826 -0.3065  0.4475  1.2188
 3245TIP3   OH231149   4.126   2.317  12.098 -0.2832  0.6262 -0.0598
 3245TIP3    H131150   4.182   2.288  12.170  0.2531  2.0716  0.1209
 3245TIP3    H231151   4.136   2.250  12.031  0.9572  0.4134  0.3265
 3246TIP3   OH231152   3.555   4.540  13.693 -0.1750  0.0761 -0.3315
 3246TIP3    H131153   3.527   4.594  13.619  0.1128  0.8446  0.1173
 3246TIP3    H231154   3.630   4.491  13.660  0.4766  1.0360 -0.3024
 3247TIP3   OH231155   3.586   3.644  12.083 -1.0206  0.0462 -0.6126
 3247TIP3    H131156   3.540   3.590  12.020  0.0850 -0.7396 -0.7602
 3247TIP3    H231157   3.558   3.611  12.169 -0.1378 -0.9586 -0.7023
 3248TIP3   OH231158   1.221   3.261   1.585  0.0079  0.2914 -0.0182
 3248TIP3    H131159   1.234   3.316   1.508 -0.1462 -1.3074 -1.2123
 3248TIP3    H231160   1.307   3.221   1.600  0.1342  0.8981  0.8670
 3249TIP3   OH231161   2.850   6.646   2.782  0.3200 -0.2294 -0.0839
 3249TIP3    H131162   2.818   6.708   2.848  0.8856  0.0553 -0.0790
 3249TIP3    H231163   2.902   6.583   2.832 -0.6461 -0.9920 -0.0175
 3250TIP3   OH231164   6.161   1.052   3.427 -0.1940 -0.3313 -0.0558
 3250TIP3    H131165   6.238   1.082   3.475  0.0038  0.9025 -1.1050
 3250TIP3    H231166   6.140   0.967   3.465 -0.3833  0.8435  2.5480
 3251TIP3   OH231167   2.025   1.424   1.739  0.0570 -0.2399 -0.3369
 3251TIP3    H131168   2.003   1.333   1.719 -0.0164 -0.5873  1.2832
 3251TIP3    H231169   2.093   1.419   1.806  1.1580  0.8939 -1.3303
 3252TIP3   OH231170   2.760   0.878   1.841 -0.1185 -0.0518  0.1699
 3252TIP3    H131171   2.775   0.804   1.901  1.8757 -0.8137 -1.2333
 3252TIP3    H231172   2.847   0.911   1.821 -0.9049  1.6041 -0.5994
 3253TIP3   OH231173   6.772   0.336   0.302  0.3669  0.4474  0.3360
 3253TIP3    H131174   6.772   0.255   0.353 -1.3346  0.6784  0.7053
 3253TIP3    H231175   6.730   0.313   0.220 -0.9956  1.1757  0.8127
 3254TIP3   OH231176   6.493   5.488   4.474 -0.5172 -0.0224 -0.5703
 3254TIP3    H131177   6.541   5.504   4.394  2.0050 -1.4299  0.6091
 3254TIP3    H231178   6.501   5.569   4.525  0.1866 -0.0810 -0.5914
 3255TIP3   OH231179   5.218   5.760   3.393 -0.4651 -0.1753 -0.2852
 3255TIP3    H131180   5.188   5.752   3.483 -0.0116 -1.0371 -0.2059
 3255TIP3    H231181   5.248   5.672   3.369  1.5148  0.5339 -0.5287
 3256TIP3   OH231182   1.847   1.618   5.337 -0.4293  0.3253  0.2277
 3256TIP3    H131183   1.903   1.673   5.282  0.1722  0.5341  1.0491
 3256TIP3    H231184   1.828   1.542   5.281  0.9330  0.1005  0.0470
 3257TIP3   OH231185   0.187   5.674  14.180 -0.3195 -0.1036 -0.1599
 3257TIP3    H131186   0.260   5.724  14.216  1.2586 -1.6995 -1.0746
 3257TIP3    H231187   0.127   5.741  14.147  1.3889  1.2081 -0.6809
 3258TIP3   OH231188   6.316   6.146   0.046 -0.2094  0.0524  0.2297
 3258TIP3    H131189   6.348   6.137  -0.044 -0.1220 -0.4065  0.3051
 3258TIP3    H231190   6.387   6.110   0.100  0.2600  1.4426  0.5571
 3259TIP3   OH231191   2.936   1.599   3.202 -0.4421 -0.2206 -0.3768
 3259TIP3    H131192   2.868   1.655   3.165  0.6120  0.0329 -1.9833
 3259TIP3    H231193   2.991   1.658   3.254 -0.8941 -0.2520  0.1356
 3260TIP3   OH231194   4.786   1.610   0.346  0.1931  0.2186 -0.0765
 3260TIP3    H131195   4.707   1.555   0.345 -0.3949  1.0647 -0.7823
 3260TIP3    H231196   4.828   1.593   0.261 -1.1920  2.5520 -1.2766
 3261TIP3   OH231197   6.236   2.092   6.079  0.1957 -0.3897 -0.4547
 3261TIP3    H131198   6.236   2.101   6.174  0.9564  0.0671 -0.5001
 3261TIP3    H231199   6.327   2.074   6.056  0.0973 -0.0459 -1.1357
 3262TIP3   OH231200   5.847   2.347  15.870 -0.0399 -0.3596  0.0268
 3262TIP3    H131201   5.916   2.282  15.854 -0.6132 -1.0697  0.4200
 3262TIP3    H231202   5.858   2.370  15.963  1.0204  1.1170 -0.4482
 3263TIP3   OH231203   5.271   4.245  16.381  0.1171 -0.2036 -0.0278
 3263TIP3    H131204   5.346   4.196  16.349  1.4972 -0.0947  2.9541
 3263TIP3    H231205   5.296   4.337  16.372  0.1223 -0.1551  0.4973
 3264TIP3   OH231206   5.649   1.119   4.484 -0.2283 -0.0415  0.1892
 3264TIP3    H131207   5.691   1.185   4.429  0.3548 -1.8939 -1.6697
 3264TIP3    H231208   5.581   1.081   4.428  0.1859 -1.7610  0.8289
 3265TIP3   OH231209   1.424   1.345  13.262  0.2522  0.0019 -0.0373
 3265TIP3    H131210   1.451   1.329  13.172 -0.6716  0.7936 -0.4712
 3265TIP3    H231211   1.427   1.441  13.271 -0.3338 -0.0319  0.5579
 3266TIP3   OH231212   3.817   2.739  16.254 -0.3193 -0.3561 -0.1464
 3266TIP3    H131213   3.857   2.669  16.203  0.5213 -1.5538  2.0998
 3266TIP3    H231214   3.818   2.707  16.345 -2.7256  1.2692  0.5017
 3267TIP3   OH231215   6.483   5.152  12.477  0.6737 -0.3800  0.4233
 3267TIP3    H131216   6.460   5.234  12.520 -0.7520 -0.6887  0.2845
 3267TIP3    H231217   6.525   5.100  12.546  0.4700  0.0008  0.8332
 3268TIP3   OH231218   2.869   1.471   6.446 -0.5394 -0.1129  0.0299
 3268TIP3    H131219   2.934   1.446   6.380 -1.2846 -0.0310 -0.7458
 3268TIP3    H231220   2.868   1.398   6.508  0.6557  0.1138  0.3349
 3269TIP3   OH231221   4.143   6.221  14.088 -0.5757 -0.2971  0.0558
 3269TIP3    H131222   4.151   6.125  14.087  1.2320 -0.1630 -0.9836
 3269TIP3    H231223   4.233   6.252  14.102 -0.6065  1.2704 -2.7451
 3270TIP3   OH231224   1.184   3.856  15.537 -0.0001  0.8969  0.5961
 3270TIP3    H131225   1.112   3.813  15.491  0.7345 -0.0723  0.3418
 3270TIP3    H231226   1.173   3.830  15.628  1.3376 -1.1404  0.2153
 3271TIP3   OH231227   6.559   3.359  16.813 -0.7859  0.1786  0.1398
 3271TIP3    H131228   6.650   3.389  16.816 -0.6779 -0.2215  0.9195
 3271TIP3    H231229   6.516   3.420  16.753 -0.6390  2.1611  1.9843
 3272TIP3   OH231230   3.784   0.606   1.853 -0.3793  0.0409 -0.4601
 3272TIP3    H131231   3.702   0.558   1.842 -2.1148  3.4606 -3.7516
 3272TIP3    H231232   3.758   0.685   1.901  1.8130 -0.6415  1.9926
 3273TIP3   OH231233   2.791   4.450   1.415 -0.3409  0.1473  0.3355
 3273TIP3    H131234   2.778   4.359   1.390  1.3970 -0.7622  2.5389
 3273TIP3    H231235   2.721   4.467   1.479  0.1814 -0.1020  0.9830
 3274TIP3   OH231236   0.982   4.548  14.361  0.5558  0.6233 -0.0581
 3274TIP3    H131237   1.032   4.563  14.281  1.9990  0.3669  0.7848
 3274TIP3    H231238   0.929   4.471  14.342 -0.7831  1.8723 -1.5359
 3275TIP3   OH231239   5.673   5.270  13.853 -0.1364  0.5755 -0.4981
 3275TIP3    H131240   5.743   5.248  13.915 -1.4244  1.7291  1.3888
 3275TIP3    H231241   5.600   5.213  13.876 -0.6811  1.1201 -0.8465
 3276TIP3   OH231242   0.003   5.490   2.298  0.0070 -0.3475 -0.2260
 3276TIP3    H131243  -0.085   5.519   2.323  1.5506  2.4962  2.2510
 3276TIP3    H231244   0.016   5.524   2.210 -1.1542 -0.2133 -0.3465
 3277TIP3   OH231245   6.345   1.378   3.846 -0.2794 -0.8335  0.4309
 3277TIP3    H131246   6.292   1.332   3.911  0.7993 -0.1214  1.8304
 3277TIP3    H231247   6.433   1.379   3.883  0.3587 -0.4698 -1.0752
 3278TIP3   OH231248   0.660   5.353   4.937 -0.1959 -0.2897  0.1053
 3278TIP3    H131249   0.624   5.383   5.020  2.9334 -2.0913  2.1977
 3278TIP3    H231250   0.753   5.378   4.940  0.1892 -1.2302 -2.4496
 3279TIP3   OH231251   1.825   1.870  13.219  0.5321 -0.3372  0.3456
 3279TIP3    H131252   1.867   1.927  13.283  0.4372  2.4112 -1.9505
 3279TIP3    H231253   1.865   1.895  13.135 -1.3793 -1.8604 -1.0466
 3280TIP3   OH231254   5.551   5.225  11.232 -0.3863  0.4731  0.1969
 3280TIP3    H131255   5.586   5.266  11.311  4.4799  0.2414 -1.6082
 3280TIP3    H231256   5.487   5.287  11.198 -1.6214  1.1439  3.5870
 3281TIP3   OH231257   0.596   2.355  14.313 -0.2789  0.1662  0.5487
 3281TIP3    H131258   0.568   2.280  14.366 -0.4622  1.7518  2.7885
 3281TIP3    H231259   0.515   2.391  14.277 -0.4910  0.7940  1.6062
 3282TIP3   OH231260   0.964   5.871   3.092 -0.1928  0.1930 -0.2717
 3282TIP3    H131261   1.049   5.913   3.106 -0.5440  0.5273  0.8983
 3282TIP3    H231262   0.901   5.928   3.136 -0.8192 -0.9409  0.3251
 3283TIP3   OH231263   0.045   5.634   0.745 -0.6928 -0.8682 -0.0824
 3283TIP3    H131264  -0.007   5.667   0.818 -0.3751  2.2449 -1.2147
 3283TIP3    H231265   0.134   5.666   0.763 -0.2128 -1.7603 -0.8252
 3284TIP3   OH231266   2.960   1.944  13.764 -0.4209 -0.6264  0.0210
 3284TIP3    H131267   2.921   1.994  13.693  0.0019  0.0373  0.2539
 3284TIP3    H231268   3.050   1.927  13.735 -0.0796  0.1043  0.6182
 3285TIP3   OH231269   1.502   5.809  15.095  0.2872  0.5359  0.1255
 3285TIP3    H131270   1.445   5.817  15.019  1.1550  0.4152 -0.5530
 3285TIP3    H231271   1.528   5.717  15.095  0.2341  0.5212  0.6075
 3286TIP3   OH231272   3.261   5.669  13.917 -0.1152  0.6650 -0.0868
 3286TIP3    H131273   3.169   5.688  13.898  0.0956  1.8352  0.0160
 3286TIP3    H231274   3.263   5.647  14.010 -0.0019  2.7338  0.4347
 3287TIP3   OH231275   2.197   1.534   3.797 -0.1594 -0.1319  0.8227
 3287TIP3    H131276   2.122   1.588   3.819 -0.4408  0.0303 -0.5101
 3287TIP3    H231277   2.264   1.559   3.861 -2.0361 -2.1845  3.7435
 3288TIP3   OH231278   2.422   0.799   1.383 -0.3994  0.5043 -0.0262
 3288TIP3    H131279   2.403   0.869   1.320  0.3636  0.0557 -0.7650
 3288TIP3    H231280   2.337   0.779   1.422 -1.2206 -0.4739 -2.2345
 3289TIP3   OH231281   6.087   5.868  14.112  0.3446  0.4085 -0.2809
 3289TIP3    H131282   6.046   5.785  14.136 -0.5027  0.6762 -0.7507
 3289TIP3    H231283   6.013   5.924  14.086  1.0268  0.8572 -1.2768
 3290TIP3   OH231284   4.425   4.141  16.725 -0.8176  0.4304  0.4213
 3290TIP3    H131285   4.357   4.161  16.790  0.1540  1.0206  1.2512
 3290TIP3    H231286   4.502   4.119  16.777 -0.3051 -0.0558 -0.5336
 3291TIP3   OH231287   0.793   0.918   2.319  0.2778  0.0344 -0.4639
 3291TIP3    H131288   0.706   0.931   2.281 -0.8057  2.1140  2.4818
 3291TIP3    H231289   0.853   0.928   2.246 -1.8336  1.3129 -2.0874
 3292TIP3   OH231290   0.386   1.818  16.931  0.2686 -0.7663 -0.2016
 3292TIP3    H131291   0.371   1.799  17.023  1.2165 -0.8404 -0.0497
 3292TIP3    H231292   0.316   1.877  16.906  0.7187  0.2604  0.8986
 3293TIP3   OH231293   5.160   6.604  16.014  0.1253  0.3372  0.3623
 3293TIP3    H131294   5.187   6.582  15.925  0.8268 -0.6791  0.8261
 3293TIP3    H231295   5.128   6.522  16.051 -2.1632  1.1930  0.3529
 3294TIP3   OH231296   1.024   3.348   1.171 -0.2550  0.2059  0.4202
 3294TIP3    H131297   1.101   3.361   1.226 -0.2194 -0.1426  0.4535
 3294TIP3    H231298   1.058   3.349   1.081 -0.1804 -0.1608  0.4437
 3295TIP3   OH231299   0.164   6.565  10.965  0.0230  0.2482 -0.4067
 3295TIP3    H131300   0.083   6.534  11.007  0.5279  0.1103  0.4844
 3295TIP3    H231301   0.182   6.500  10.898 -1.7486  1.3905 -2.0535
 3296TIP3   OH231302   5.148   0.595   2.777  0.4256 -0.0277  0.0675
 3296TIP3    H131303   5.181   0.514   2.736  0.4868  0.0159  0.0294
 3296TIP3    H231304   5.175   0.588   2.868  0.3103 -0.1151  0.0947
 3297TIP3   OH231305   0.047   2.271  14.752  0.0522 -1.0394 -0.2267
 3297TIP3    H131306   0.021   2.360  14.728  0.1542 -0.6609  1.0740
 3297TIP3    H231307   0.001   2.215  14.689 -0.6212 -0.1265 -0.5543
 3298TIP3   OH231308   3.401   0.867   0.788  0.1898  0.8626  0.5244
 3298TIP3    H131309   3.371   0.912   0.709  0.8810 -1.3753 -1.0574
 3298TIP3    H231310   3.441   0.936   0.841  0.4873  2.2553 -1.4693
 3299TIP3   OH231311   2.884   0.631  14.841 -0.0915  0.7641 -0.4527
 3299TIP3    H131312   2.846   0.546  14.864 -0.7280  0.8044 -1.3215
 3299TIP3    H231313   2.975   0.611  14.818  0.0314  0.4599  0.2950
 3300TIP3   OH231314   2.667   3.266  17.049 -0.6018 -0.6382  0.4313
 3300TIP3    H131315   2.689   3.174  17.031 -1.7532 -0.3832 -2.6181
 3300TIP3    H231316   2.572   3.270  17.038 -0.6499  0.7793  1.2705
 3301TIP3   OH231317   0.763   3.518  12.570 -0.5826  0.2519 -0.1579
 3301TIP3    H131318   0.806   3.466  12.502 -0.8924 -0.9178  0.5296
 3301TIP3    H231319   0.674   3.532  12.537 -1.0591 -1.2171  0.4669
 3302TIP3   OH231320   6.447   5.878   3.063  0.1800  0.1199  0.0539
 3302TIP3    H131321   6.402   5.793   3.064  0.4940 -0.0587 -0.5099
 3302TIP3    H231322   6.539   5.856   3.049  0.5411  0.4547  1.7691
 3303TIP3   OH231323   4.146   4.682  14.334  0.0506 -0.0273  0.0217
 3303TIP3    H131324   4.121   4.718  14.419 -1.3473  0.9904 -0.8067
 3303TIP3    H231325   4.081   4.612  14.318  0.7631 -0.7197  0.1248
 3304TIP3   OH231326   0.314   4.227  14.121 -0.0680  0.4256  0.1479
 3304TIP3    H131327   0.398   4.215  14.165  0.4860 -0.1033 -1.0444
 3304TIP3    H231328   0.333   4.288  14.049 -0.2824 -1.1623 -1.2874
 3305TIP3   OH231329   3.211   5.279   0.191  0.3353  0.0715  0.2433
 3305TIP3    H131330   3.260   5.197   0.192  0.2007 -0.0184 -0.3784
 3305TIP3    H231331   3.120   5.252   0.203  0.1040 -0.0137 -1.5659
 3306TIP3   OH231332   3.602   3.963  11.874  0.7125  0.0329 -0.0169
 3306TIP3    H131333   3.552   4.044  11.885 -1.5327 -1.2350 -0.4792
 3306TIP3    H231334   3.669   3.984  11.810  1.5194  2.1017  1.4691
 3307TIP3   OH231335   4.213   2.232   4.369 -0.5009 -0.3864  0.1139
 3307TIP3    H131336   4.121   2.231   4.342 -0.0926 -1.6040 -1.3181
 3307TIP3    H231337   4.225   2.150   4.417 -0.1649 -0.2172  0.3221
 3308TIP3   OH231338   3.785   4.577   2.695 -0.4005 -0.1814  0.4568
 3308TIP3    H131339   3.719   4.543   2.756  1.1226 -0.6853  1.8728
 3308TIP3    H231340   3.734   4.621   2.627 -2.1981 -0.6559  1.4467
 3309TIP3   OH231341   4.889   2.015   3.812  0.6255 -0.5031  0.1914
 3309TIP3    H131342   4.916   2.069   3.886 -1.9286 -1.0721  1.5830
 3309TIP3    H231343   4.859   1.933   3.852  0.9602 -1.5323 -1.6280
 3310TIP3   OH231344   5.444   3.542   0.942  0.2181 -0.1292 -0.3618
 3310TIP3    H131345   5.415   3.513   0.855  0.2893 -2.0362  0.2368
 3310TIP3    H231346   5.483   3.465   0.982 -0.2516  0.5966  1.5750
 3311TIP3   OH231347   5.730   5.853   2.909  0.1697 -0.6586  0.0768
 3311TIP3    H131348   5.764   5.793   2.843 -1.6687 -3.2610  1.4091
 3311TIP3    H231349   5.657   5.806   2.949 -0.0970  1.7091  2.5181
 3312TIP3   OH231350   5.187   3.409   1.375  0.1956 -0.2165  0.0687
 3312TIP3    H131351   5.237   3.491   1.367 -0.4674  0.2290  0.4488
 3312TIP3    H231352   5.163   3.387   1.285 -0.5179  0.5680  0.0613
 3313TIP3   OH231353   3.082   5.646   1.186  0.1310  0.6327 -0.9301
 3313TIP3    H131354   3.004   5.593   1.202  0.6086  0.8772  2.7334
 3313TIP3    H231355   3.049   5.728   1.151 -1.0287 -0.2687 -1.9764
 3314TIP3   OH231356   5.645   2.710   4.676 -0.5255  0.5191 -0.2538
 3314TIP3    H131357   5.629   2.757   4.594 -1.4615 -2.0164 -1.5607
 3314TIP3    H231358   5.566   2.659   4.690 -0.6275  1.3751  2.6024
 3315TIP3   OH231359   6.370   2.760   1.110 -0.6486  0.0686  0.0225
 3315TIP3    H131360   6.387   2.824   1.180 -1.1420 -0.1143  0.3178
 3315TIP3    H231361   6.453   2.715   1.096  0.3010  2.2372 -1.6771
 3316TIP3   OH231362   3.673   5.049  12.146  0.0825 -0.0282  0.1374
 3316TIP3    H131363   3.761   5.085  12.134  0.4973 -0.4855  1.7158
 3316TIP3    H231364   3.656   5.059  12.240 -1.6206  0.2129 -0.1852
 3317TIP3   OH231365   6.708   0.778   5.846  0.2465 -0.5313 -0.6822
 3317TIP3    H131366   6.660   0.766   5.928  0.5906 -1.8000 -0.6577
 3317TIP3    H231367   6.646   0.821   5.788 -0.4846 -0.9655 -0.2287
 3318TIP3   OH231368   4.476   4.186   1.444 -0.1467 -0.2072  0.6520
 3318TIP3    H131369   4.476   4.108   1.498  1.8680 -0.1718  0.7303
 3318TIP3    H231370   4.465   4.154   1.355  0.4448 -0.5705  0.7079
 3319TIP3   OH231371   4.829   6.745  16.473  0.0773 -0.0161  0.3098
 3319TIP3    H131372   4.852   6.814  16.536 -1.4969  0.9973 -0.1883
 3319TIP3    H231373   4.776   6.790  16.407  2.6180 -0.8200 -2.3826
 3320TIP3   OH231374   3.267   1.578  13.301 -0.4561 -0.1302  0.5811
 3320TIP3    H131375   3.323   1.530  13.363 -0.3998  0.7018  1.1875
 3320TIP3    H231376   3.179   1.544  13.318 -0.0898 -1.7734 -0.6908
 3321TIP3   OH231377   0.615   0.170   5.598 -0.4574  0.1841 -0.0327
 3321TIP3    H131378   0.546   0.105   5.589 -0.0619 -0.3925  1.0801
 3321TIP3    H231379   0.583   0.230   5.666  0.0674  0.0027  0.3783
 3322TIP3   OH231380   1.092   6.244  17.234 -0.2527 -0.4591  0.3399
 3322TIP3    H131381   0.998   6.227  17.235 -0.2340 -0.7739 -1.1961
 3322TIP3    H231382   1.104   6.317  17.295 -1.5115 -0.3009  0.4125
 3323TIP3   OH231383   3.352   1.485  16.204 -0.3600  0.1055 -0.4153
 3323TIP3    H131384   3.407   1.539  16.148  0.4445 -0.4663 -0.1957
 3323TIP3    H231385   3.269   1.531  16.208  0.1226  1.0213 -0.7024
 3324TIP3   OH231386   1.295   4.348   0.939 -0.2029 -0.0010 -0.4804
 3324TIP3    H131387   1.224   4.409   0.919 -0.4335 -0.0170  0.2568
 3324TIP3    H231388   1.266   4.265   0.902 -0.6002 -0.0219 -0.1289
 3325TIP3   OH231389   5.842   3.851  11.328 -0.2105  0.0246  0.4182
 3325TIP3    H131390   5.866   3.927  11.275 -0.9755 -1.4333 -2.0887
 3325TIP3    H231391   5.750   3.866  11.351 -1.0958 -1.2145 -2.0983
 3326TIP3   OH231392   0.392   3.429   5.402  0.4364  0.1704 -0.2857
 3326TIP3    H131393   0.315   3.445   5.457  1.8021  1.6506  1.2339
 3326TIP3    H231394   0.466   3.455   5.456  2.0532 -1.4613 -1.6499
 3327TIP3   OH231395   5.124   0.148   2.314  0.0340 -0.2932 -0.1242
 3327TIP3    H131396   5.045   0.203   2.313  0.6956  0.6563 -0.0424
 3327TIP3    H231397   5.155   0.151   2.223 -1.3717 -2.6372 -0.7284
 3328TIP3   OH231398   2.042   4.868   3.707 -0.5126  0.5195  0.4886
 3328TIP3    H131399   2.087   4.785   3.722 -0.4301  0.7154  1.3244
 3328TIP3    H231400   2.077   4.927   3.774 -0.6298  1.2050 -0.0475
 3329TIP3   OH231401   2.794   6.780  15.272  0.0720  0.3381 -0.2924
 3329TIP3    H131402   2.729   6.813  15.335  0.2560 -2.1320  1.2187
 3329TIP3    H231403   2.776   6.687  15.265  1.3546  0.2229 -2.4096
 3330TIP3   OH231404   0.650   0.094  11.212  0.1167 -0.6806 -1.1575
 3330TIP3    H131405   0.574   0.106  11.268  0.1781 -1.2338 -0.9459
 3330TIP3    H231406   0.632   0.012  11.165  1.2026 -1.5617 -0.0735
 3331TIP3   OH231407   5.878   1.673  14.733 -0.1051 -0.2144  0.1063
 3331TIP3    H131408   5.787   1.699  14.719 -0.1619 -0.5193 -0.0908
 3331TIP3    H231409   5.905   1.631  14.652  0.9741  2.0150 -0.7402
 3332TIP3   OH231410   5.818   4.058  15.080 -0.2965  0.1466 -0.1752
 3332TIP3    H131411   5.767   4.123  15.031  0.7784  0.2857 -1.1493
 3332TIP3    H231412   5.897   4.105  15.107 -0.2461 -0.3197  0.4917
 3333TIP3   OH231413   4.635   2.119  15.702 -0.2271 -0.4245 -0.0678
 3333TIP3    H131414   4.547   2.119  15.664 -0.6746  1.3907  0.9072
 3333TIP3    H231415   4.621   2.130  15.796  1.0355 -0.4699  0.1385
 3334TIP3   OH231416   3.045   4.448  16.471 -0.4863  0.3957 -0.0456
 3334TIP3    H131417   3.113   4.512  16.493  1.5237  0.1497 -4.8653
 3334TIP3    H231418   2.982   4.497  16.417 -1.2924 -0.6719 -0.0973
 3335TIP3   OH231419   4.842   2.971   5.373  0.0454 -0.5013  0.7002
 3335TIP3    H131420   4.871   3.014   5.292 -0.9536 -0.7633  0.2018
 3335TIP3    H231421   4.916   2.915   5.397  0.6639  0.1678  0.4046
 3336TIP3   OH231422   5.035   1.590  15.622 -0.0976 -0.1737 -0.5574
 3336TIP3    H131423   5.119   1.634  15.611 -0.2901  0.4791  0.5814
 3336TIP3    H231424   5.010   1.607  15.712 -0.6758 -1.7527 -0.3960
 3337TIP3   OH231425   3.854   5.066  10.700  0.1578  0.0492  0.2757
 3337TIP3    H131426   3.902   5.100  10.625 -0.4247  1.8471  0.6785
 3337TIP3    H231427   3.774   5.030  10.662 -0.5538  1.7614  0.0831
 3338TIP3   OH231428   2.524   0.057   1.899  0.2755 -0.2215  0.6727
 3338TIP3    H131429   2.462   0.030   1.967 -1.8043 -0.0048 -1.0605
 3338TIP3    H231430   2.578   0.124   1.941 -1.7686  0.7915  1.7870
 3339TIP3   OH231431   6.136   2.623   4.670 -0.6727  0.2486 -0.3290
 3339TIP3    H131432   6.230   2.630   4.687 -0.5396 -1.3521 -0.3373
 3339TIP3    H231433   6.127   2.548   4.612 -1.9409  0.5732 -0.5858
 3340TIP3   OH231434   3.012   6.762   4.520  0.1398  0.6457 -0.3106
 3340TIP3    H131435   3.025   6.715   4.438 -0.2379  0.7863 -0.4498
 3340TIP3    H231436   2.960   6.703   4.574  0.9378  0.2827  0.0691
 3341TIP3   OH231437   6.235   6.088   3.607 -0.1231  0.6149 -0.3376
 3341TIP3    H131438   6.148   6.127   3.605 -0.6666 -0.3608  2.4047
 3341TIP3    H231439   6.223   5.999   3.575 -0.3015  0.2172  0.8120
 3342TIP3   OH231440   4.478   1.557  13.397  0.0473 -0.0618 -0.2342
 3342TIP3    H131441   4.568   1.530  13.415 -0.2852 -0.0616  1.5884
 3342TIP3    H231442   4.465   1.634  13.452 -1.8015 -1.4606  1.3675
 3343TIP3   OH231443   1.201   4.825  14.826 -0.1914  0.1762 -0.6242
 3343TIP3    H131444   1.166   4.888  14.763  0.6215 -0.4065 -1.6551
 3343TIP3    H231445   1.271   4.780  14.780 -0.2546 -0.9634  0.3630
 3344TIP3   OH231446   0.930   2.505  10.990  0.0289  0.1730 -0.3012
 3344TIP3    H131447   0.975   2.503  11.075  0.7910  0.2337 -0.6938
 3344TIP3    H231448   0.911   2.597  10.975 -3.0236 -0.1460  1.2906
 3345TIP3   OH231449   4.113   5.258  11.369 -0.4225  0.4767 -0.4637
 3345TIP3    H131450   4.178   5.212  11.316 -0.5161 -1.2766  0.8945
 3345TIP3    H231451   4.140   5.350  11.366  2.0920 -0.2077  0.0127
 3346TIP3   OH231452   4.651   6.152  16.819 -0.4008  0.1455 -0.1815
 3346TIP3    H131453   4.566   6.190  16.839  1.2270  2.6146  2.5740
 3346TIP3    H231454   4.713   6.223  16.834  2.3110 -2.0628 -0.4393
 3347TIP3   OH231455   5.745   1.771   4.208 -0.2240 -0.2491 -0.2956
 3347TIP3    H131456   5.758   1.785   4.302 -1.6607 -2.8136  0.3438
 3347TIP3    H231457   5.651   1.784   4.195 -0.0370  0.0553 -1.3824
 3348TIP3   OH231458   5.984   3.443   2.577 -0.0403  0.2961 -0.6026
 3348TIP3    H131459   5.893   3.450   2.548 -0.5085 -0.8503  0.5467
 3348TIP3    H231460   6.008   3.532   2.601 -0.5428  0.7698 -1.8080
 3349TIP3   OH231461   0.339   5.952  16.548  0.1729  0.2175  0.0281
 3349TIP3    H131462   0.396   5.933  16.473 -0.5157 -1.2854 -0.1295
 3349TIP3    H231463   0.384   6.022  16.595  2.4426 -1.2913  0.1886
 3350TIP3   OH231464   4.579   1.014  15.519 -0.2372 -0.2946 -0.6550
 3350TIP3    H131465   4.664   1.019  15.474 -0.0758  0.0847 -0.3048
 3350TIP3    H231466   4.515   1.011  15.448  0.0302  0.0714 -0.9149
 3351TIP3   OH231467   6.762   0.680  10.888  0.9054 -0.4143  0.5865
 3351TIP3    H131468   6.798   0.661  10.802 -0.0132  1.4021 -0.2288
 3351TIP3    H231469   6.689   0.740  10.871  0.5712 -0.2043  2.6012
 3352TIP3   OH231470   1.132   6.217   4.642  0.1634  0.2076  0.2993
 3352TIP3    H131471   1.179   6.186   4.719  1.2018 -0.2403 -0.5077
 3352TIP3    H231472   1.190   6.281   4.603 -0.6571  0.9268  0.2569
 3353TIP3   OH231473   0.669   5.809   6.197  0.1773 -0.4847  0.9481
 3353TIP3    H131474   0.751   5.853   6.177 -1.0554  0.4270 -2.5035
 3353TIP3    H231475   0.631   5.860   6.268 -0.1099  2.7455 -1.3887
 3354TIP3   OH231476   0.742   2.425  16.474  0.0892  0.2673 -0.1734
 3354TIP3    H131477   0.770   2.505  16.429  0.2376  1.0221  1.2269
 3354TIP3    H231478   0.701   2.456  16.554 -0.6730 -1.0360 -0.0455
 3355TIP3   OH231479   0.130   0.679  14.629  0.1207 -0.4222 -0.0909
 3355TIP3    H131480   0.060   0.723  14.580  0.2234  1.4417  1.4073
 3355TIP3    H231481   0.183   0.750  14.664  2.5046 -1.8019 -0.7713
 3356TIP3   OH231482   2.086   3.770  15.638 -0.4238  0.3708  0.6088
 3356TIP3    H131483   2.148   3.718  15.586  1.5379  2.7822  0.4548
 3356TIP3    H231484   2.116   3.761  15.728  0.0088  1.3111  0.5673
 3357TIP3   OH231485   4.674   5.085  14.887 -0.1617  0.2461  0.0254
 3357TIP3    H131486   4.757   5.052  14.919 -0.7151  0.3913  1.6460
 3357TIP3    H231487   4.653   5.029  14.812  1.6970  0.6340 -0.8035
 3358TIP3   OH231488   4.055   4.765  14.581  0.1282  0.3446 -0.4030
 3358TIP3    H131489   3.977   4.820  14.570 -2.0205 -2.1819  1.4837
 3358TIP3    H231490   4.078   4.774  14.673  0.8050 -0.5737 -0.4765
 3359TIP3   OH231491   1.412   4.113  14.837  0.3773  0.0422 -0.4572
 3359TIP3    H131492   1.472   4.151  14.901  2.1213 -0.6059 -1.6716
 3359TIP3    H231493   1.450   4.136  14.752  0.1777 -2.3560 -1.2316
 3360TIP3   OH231494   5.342   6.744   1.893 -0.4361 -0.0969  0.0451
 3360TIP3    H131495   5.432   6.756   1.863 -0.8202  0.7158 -0.8145
 3360TIP3    H231496   5.319   6.655   1.867 -0.0910 -0.0808 -0.3122
 3361TIP3   OH231497   3.279   2.364   5.098  0.2919 -0.3947  0.5862
 3361TIP3    H131498   3.363   2.403   5.078  0.3350 -1.4773 -1.5594
 3361TIP3    H231499   3.279   2.351   5.193  2.3318  0.0642  0.6509
 3362TIP3   OH231500   1.542   4.067  13.957  0.0230  0.3423 -0.4867
 3362TIP3    H131501   1.564   3.980  13.989  0.8141  0.5156 -0.5454
 3362TIP3    H231502   1.575   4.126  14.025 -1.5863  0.5528  0.1495
 3363TIP3   OH231503   3.174   3.544   4.515  0.1807 -0.1851  0.5387
 3363TIP3    H131504   3.152   3.586   4.599  0.7223 -0.0472  0.6128
 3363TIP3    H231505   3.114   3.585   4.452  1.4231  1.5132  0.4041
 3364TIP3   OH231506   5.691   4.211  14.399 -0.1278  0.7082 -0.3793
 3364TIP3    H131507   5.698   4.150  14.325  0.6326 -0.3719  0.5642
 3364TIP3    H231508   5.601   4.200  14.429  0.1205 -0.2716  0.0397
 3365TIP3   OH231509   3.330   5.234   1.590 -0.1915  0.0684  0.1604
 3365TIP3    H131510   3.336   5.297   1.662  2.0235 -1.0457  0.9922
 3365TIP3    H231511   3.238   5.206   1.589 -0.9327  2.4374  0.5032
 3366TIP3   OH231512   2.401   3.455  15.199  0.2094  0.0531  0.6479
 3366TIP3    H131513   2.432   3.459  15.109  1.6138 -1.7183  1.0474
 3366TIP3    H231514   2.457   3.516  15.246 -0.6204  1.0908  0.3250
 3367TIP3   OH231515   5.592   5.970   0.477  0.0266 -0.3602 -0.3420
 3367TIP3    H131516   5.616   5.957   0.569  1.3995 -0.0479 -0.6413
 3367TIP3    H231517   5.498   5.983   0.479 -0.2641 -2.3287  0.8173
 3368TIP3   OH231518   5.305   3.543  12.837 -0.5906  0.1487 -0.4349
 3368TIP3    H131519   5.345   3.623  12.803 -0.3426  0.0179 -0.4524
 3368TIP3    H231520   5.264   3.569  12.919 -0.2405  0.2257 -0.2831
 3369TIP3   OH231521   2.947   2.800   2.940 -0.6144 -0.6767 -0.2228
 3369TIP3    H131522   2.913   2.821   2.852  0.5998 -1.7008 -0.9524
 3369TIP3    H231523   3.005   2.873   2.961 -1.3725 -0.1255  0.0037
 3370TIP3   OH231524   4.237   6.207   1.120 -0.4614  0.0504  0.1615
 3370TIP3    H131525   4.303   6.277   1.122 -0.8638  0.4490 -0.3164
 3370TIP3    H231526   4.194   6.218   1.035 -0.9310 -0.4048  0.3424
 3371TIP3   OH231527   1.937   5.069  12.455  0.2077 -0.0258  0.1276
 3371TIP3    H131528   1.863   5.126  12.474  0.3314  0.3511 -0.4990
 3371TIP3    H231529   1.960   5.029  12.539 -0.6700 -0.1048  0.3291
 3372TIP3   OH231530   1.589   1.683  13.648  0.0921  0.1605 -0.4590
 3372TIP3    H131531   1.542   1.599  13.649 -1.4284  0.9908 -0.2665
 3372TIP3    H231532   1.611   1.697  13.556  0.8304 -0.6989 -0.4215
 3373TIP3   OH231533   0.582   3.484  13.988 -0.3610 -0.3903 -0.1503
 3373TIP3    H131534   0.514   3.437  13.940 -0.1340 -0.5569 -0.3130
 3373TIP3    H231535   0.649   3.418  14.007  0.5596  0.1109 -1.5075
 3374TIP3   OH231536   0.094   0.373  17.038  1.1334 -0.3896  0.0244
 3374TIP3    H131537   0.083   0.321  16.958  0.1215 -1.0374  0.5638
 3374TIP3    H231538   0.075   0.463  17.011  0.3602 -0.6671 -0.3844
 3375TIP3   OH231539   3.748   3.982   3.920 -0.5657 -0.4786  0.3325
 3375TIP3    H131540   3.756   3.894   3.883 -0.2793  0.4360 -1.8705
 3375TIP3    H231541   3.834   4.001   3.958  0.1462 -0.2701 -1.3029
 3376TIP3   OH231542   1.100   5.306   0.915 -0.3526 -0.0724 -0.1856
 3376TIP3    H131543   1.080   5.242   0.846  0.4284  1.1360 -1.5611
 3376TIP3    H231544   1.015   5.343   0.938 -0.4060  0.9161 -1.9066
 3377TIP3   OH231545   1.189   5.578  13.463  0.1617 -0.2518  0.4379
 3377TIP3    H131546   1.177   5.622  13.547  2.1751 -1.8055  1.5699
 3377TIP3    H231547   1.168   5.645  13.398 -1.3820  0.9719  2.1680
 3378TIP3   OH231548   2.912   3.533  11.219 -0.1017 -0.2658 -0.2144
 3378TIP3    H131549   2.848   3.583  11.168 -1.1767 -2.4767 -1.1393
 3378TIP3    H231550   2.867   3.513  11.301  0.4982  0.6753  0.3470
 3379TIP3   OH231551   0.802   0.039  12.138  0.3944 -0.3272  0.0509
 3379TIP3    H131552   0.742   0.034  12.213 -0.9754 -2.4346 -1.1346
 3379TIP3    H231553   0.753   0.085  12.071  1.2218  0.5797  0.0583
 3380TIP3   OH231554   4.049   6.296   1.926  0.2074 -0.0053  0.1126
 3380TIP3    H131555   3.993   6.346   1.867  0.0323  0.5354  0.7405
 3380TIP3    H231556   4.049   6.345   2.008 -0.0481 -1.0742  0.7663
 3381TIP3   OH231557   2.427   1.932  15.228 -0.0503  0.0472 -0.1250
 3381TIP3    H131558   2.388   1.847  15.250  1.6724 -1.5746 -2.9659
 3381TIP3    H231559   2.370   1.968  15.161 -0.5522  0.9572  0.7867
 3382TIP3   OH231560   4.528   4.847   4.797 -0.4613 -0.1693 -0.0644
 3382TIP3    H131561   4.574   4.782   4.744  0.4879 -0.6448  1.2921
 3382TIP3    H231562   4.551   4.931   4.757  0.1406 -0.5311 -0.4909
 3383TIP3   OH231563   6.132   4.792  16.872  0.1066  0.2544  0.2085
 3383TIP3    H131564   6.138   4.781  16.966 -0.0639  0.5816  0.2608
 3383TIP3    H231565   6.222   4.783  16.840  0.1451  0.0116  0.3850
 3384TIP3   OH231566   4.494   0.258   0.785  0.3089 -0.6328 -0.6363
 3384TIP3    H131567   4.580   0.248   0.744  0.7438  0.8301 -0.1164
 3384TIP3    H231568   4.513   0.269   0.879 -0.4368 -0.2670 -0.5203
 3385TIP3   OH231569   6.512   4.934  14.100 -0.1973  0.7253  0.2141
 3385TIP3    H131570   6.481   4.845  14.086  1.2891  0.3125 -0.5722
 3385TIP3    H231571   6.451   4.989  14.051 -0.5318  0.0470 -0.1362
 3386TIP3   OH231572   2.978   3.837  13.693 -0.3955 -0.3269 -0.0311
 3386TIP3    H131573   3.051   3.846  13.632 -0.8555 -1.4716 -0.7652
 3386TIP3    H231574   2.903   3.814  13.638 -1.2612  0.5806  0.7445
 3387TIP3   OH231575   4.113   3.469   3.685  0.2243  0.5094  0.4092
 3387TIP3    H131576   4.020   3.463   3.708 -0.3121 -0.2851 -1.8363
 3387TIP3    H231577   4.114   3.513   3.601  1.8273 -0.2614  0.0102
 3388TIP3   OH231578   4.819   2.786  16.957  0.0671  0.2432 -0.3067
 3388TIP3    H131579   4.826   2.857  16.893  0.8813 -0.0455 -0.5475
 3388TIP3    H231580   4.907   2.780  16.995  0.0688 -0.8195 -0.4883
 3389TIP3   OH231581   1.875   3.718   5.329  0.0661 -0.1422  0.2692
 3389TIP3    H131582   1.894   3.671   5.410 -0.8183 -0.8413  0.0745
 3389TIP3    H231583   1.952   3.703   5.274 -0.5493 -2.0580 -0.1068
 3390TIP3   OH231584   2.544   4.964   3.440 -0.1331 -0.4907 -0.0906
 3390TIP3    H131585   2.630   4.962   3.399 -0.3448 -1.6521 -0.4836
 3390TIP3    H231586   2.562   4.978   3.533  0.4498 -0.2949 -0.2283
 3391TIP3   OH231587   3.461   3.944   1.775  0.7633 -0.4796  0.4015
 3391TIP3    H131588   3.532   3.885   1.800  1.1434 -0.2947 -0.2276
 3391TIP3    H231589   3.429   3.908   1.692  0.5079 -0.2186  0.3869
 3392TIP3   OH231590   0.192   1.319  16.770 -0.6412 -0.1478 -0.4207
 3392TIP3    H131591   0.115   1.347  16.821 -0.7641 -2.0115  0.4655
 3392TIP3    H231592   0.260   1.382  16.793 -1.3033  0.2584  0.4605
 3393TIP3   OH231593   4.827   5.866   3.213 -0.0014 -0.2953  0.0690
 3393TIP3    H131594   4.916   5.898   3.228  0.5952 -1.7241 -0.3878
 3393TIP3    H231595   4.775   5.908   3.281  0.5708  2.4308 -1.1079
 3394TIP3   OH231596   4.394   5.621   1.338  0.2780 -0.0887 -0.4488
 3394TIP3    H131597   4.465   5.629   1.274  0.8593 -1.3300  0.0477
 3394TIP3    H231598   4.367   5.712   1.354  1.2251  0.3386 -1.2136
 3395TIP3   OH231599   3.675   4.855   1.419 -0.0611 -0.3619  0.3421
 3395TIP3    H131600   3.663   4.784   1.356 -1.2919  1.5533 -1.6261
 3395TIP3    H231601   3.728   4.920   1.373  1.4432 -0.1376  2.2841
 3396TIP3   OH231602   0.867   0.874  16.479 -0.5602 -0.5588  0.2223
 3396TIP3    H131603   0.781   0.916  16.491 -0.1177 -0.2467  2.5103
 3396TIP3    H231604   0.920   0.906  16.552  0.8407 -2.4497  0.0755
 3397TIP3   OH231605   5.080   0.229  16.372 -0.0607 -0.4261  0.4553
 3397TIP3    H131606   5.129   0.180  16.306  0.4979  1.9908 -1.0034
 3397TIP3    H231607   4.991   0.231  16.338  0.0033 -0.1283  0.2943
 3398TIP3   OH231608   5.175   6.535   1.808  0.0702 -0.0779 -0.0360
 3398TIP3    H131609   5.118   6.611   1.796 -1.0111 -0.6797  1.2604
 3398TIP3    H231610   5.175   6.491   1.723  0.5280  1.2365 -0.7370
 3399TIP3   OH231611   2.130   1.196   1.427  0.1726  0.1180 -0.0786
 3399TIP3    H131612   2.056   1.223   1.373 -0.7864  0.8606  1.5624
 3399TIP3    H231613   2.108   1.228   1.515  2.3161  0.0986  0.4782
 3400TIP3   OH231614   4.698   5.666  16.249  0.8531 -0.0975 -0.8718
 3400TIP3    H131615   4.746   5.694  16.326 -1.5634  0.3591  0.5135
 3400TIP3    H231616   4.746   5.590  16.216  1.8097 -0.3836  1.1657
 3401TIP3   OH231617   4.817   0.234  16.218 -0.9153 -0.6429  0.9583
 3401TIP3    H131618   4.777   0.293  16.155 -0.8683  1.3200  2.7061
 3401TIP3    H231619   4.759   0.158  16.220 -1.1184 -0.5720 -1.1393
 3402TIP3   OH231620   2.477   1.529  13.575 -0.0004  0.3335 -0.0489
 3402TIP3    H131621   2.399   1.584  13.584  1.7530  2.5166  2.4731
 3402TIP3    H231622   2.452   1.446  13.615 -1.3465  0.6700 -0.1646
 3403TIP3   OH231623   3.712   2.885   4.453  0.2531  0.1953  0.3809
 3403TIP3    H131624   3.722   2.973   4.415  1.4526  0.0443  0.3182
 3403TIP3    H231625   3.758   2.890   4.536  1.4272 -0.7217 -0.1940
 3404TIP3   OH231626   5.693   2.604  16.280 -0.3190 -0.1324 -0.3340
 3404TIP3    H131627   5.697   2.551  16.359  1.4446  0.4710 -0.0057
 3404TIP3    H231628   5.611   2.653  16.288 -0.6684 -0.8502  0.6018
 3405TIP3   OH231629   1.992   3.872   3.109 -0.0985 -0.0259 -0.1676
 3405TIP3    H131630   2.085   3.876   3.129  0.0409 -1.9958 -0.3191
 3405TIP3    H231631   1.954   3.947   3.155  1.9517  2.5030 -2.4596
 3406TIP3   OH231632   5.301   4.716  14.046 -0.2349 -0.3495  0.1585
 3406TIP3    H131633   5.271   4.794  13.999 -1.0155 -0.5603  0.3029
 3406TIP3    H231634   5.226   4.689  14.099  0.7638  0.1189  1.8567
 3407TIP3   OH231635   6.189   6.378  15.704  0.1421 -0.0848  0.4435
 3407TIP3    H131636   6.141   6.325  15.768  1.4356 -1.5427  0.2191
 3407TIP3    H231637   6.277   6.388  15.741  0.0411  1.6081  0.3012
 3408TIP3   OH231638   0.879   3.519   3.809 -0.2073  0.0353  0.0698
 3408TIP3    H131639   0.798   3.469   3.806  1.3618 -2.5471 -1.4885
 3408TIP3    H231640   0.922   3.490   3.890  0.4938 -0.8102 -0.6004
 3409TIP3   OH231641   2.014   3.225  10.628 -0.3494 -0.2071  0.5972
 3409TIP3    H131642   2.031   3.318  10.618  0.4405 -0.3561  0.5517
 3409TIP3    H231643   1.947   3.220  10.696  0.4378  0.3324  1.4196
 3410TIP3   OH231644   4.480   4.055  11.456  0.1207 -0.7723  0.0220
 3410TIP3    H131645   4.453   4.110  11.530 -0.5192 -0.0801 -0.7111
 3410TIP3    H231646   4.544   4.109  11.409 -0.5417 -0.6304 -0.7250
 3411TIP3   OH231647   1.320   2.926   1.992  0.5821  0.4457 -0.1806
 3411TIP3    H131648   1.360   3.012   1.987 -2.2520  1.7538 -1.1163
 3411TIP3    H231649   1.348   2.891   2.076  2.2645  2.0051 -0.0763
 3412TIP3   OH231650   5.465   2.537   0.788 -0.2188  0.2499 -0.0132
 3412TIP3    H131651   5.456   2.576   0.701  0.8289  0.2087 -0.1405
 3412TIP3    H231652   5.397   2.470   0.791  0.4696 -0.5186 -1.2268
 3413TIP3   OH231653   4.430   1.562  17.167 -0.3072  0.0635  0.0768
 3413TIP3    H131654   4.489   1.490  17.147 -2.1800 -1.5313  0.1139
 3413TIP3    H231655   4.478   1.617  17.228  0.7214 -1.7818  0.9513
 3414TIP3   OH231656   3.504   5.889   1.887 -0.1576  0.4849 -0.2866
 3414TIP3    H131657   3.458   5.933   1.959  0.8107  1.3818 -0.1959
 3414TIP3    H231658   3.527   5.960   1.827 -0.3144 -0.1666 -1.1177
 3415TIP3   OH231659   5.252   1.171   4.679 -0.3825  0.3501  0.2617
 3415TIP3    H131660   5.216   1.087   4.652  0.0435 -0.0424  0.8830
 3415TIP3    H231661   5.241   1.172   4.774 -1.1366  1.3538  0.1727
 3416TIP3   OH231662   3.524   3.430   0.720  0.1092 -0.7806 -0.0702
 3416TIP3    H131663   3.447   3.474   0.684  1.4413 -0.2664 -2.4272
 3416TIP3    H231664   3.580   3.502   0.750  0.8314 -1.0135 -0.8386
 3417TIP3   OH231665   0.259   1.818  16.367  0.2817  0.0704  0.0977
 3417TIP3    H131666   0.206   1.784  16.438 -1.4076 -0.0472 -1.1962
 3417TIP3    H231667   0.248   1.913  16.371  0.2979  0.0727  0.0879
 3418TIP3   OH231668   0.956   3.521  12.352 -0.4982 -0.5587 -0.1257
 3418TIP3    H131669   0.870   3.559  12.369 -0.2981 -0.4772  0.7245
 3418TIP3    H231670   0.982   3.559  12.268 -1.1920 -0.4076 -0.2780
 3419TIP3   OH231671   4.199   0.125  13.723 -0.8071 -0.2506 -0.1676
 3419TIP3    H131672   4.271   0.065  13.701 -0.8085 -0.5225  0.5693
 3419TIP3    H231673   4.163   0.150  13.638  1.3117  1.3059 -0.6706
 3420TIP3   OH231674   2.812   3.670  12.538  0.6631 -0.3023  0.2524
 3420TIP3    H131675   2.836   3.758  12.566  3.0609 -1.0000  0.4443
 3420TIP3    H231676   2.875   3.648  12.469 -1.8716 -0.6595 -2.0590
 3421TIP3   OH231677   3.673   3.628  16.116  0.0818  0.6887 -0.2933
 3421TIP3    H131678   3.617   3.550  16.121  1.4900 -0.3080  0.1960
 3421TIP3    H231679   3.653   3.676  16.197 -1.8374  1.5947 -1.2580
 3422TIP3   OH231680   3.681   0.261   1.249  0.2750 -0.3021  0.9838
 3422TIP3    H131681   3.737   0.336   1.234 -1.6459  1.3930  1.9818
 3422TIP3    H231682   3.683   0.212   1.167  0.0029  1.8977 -0.3765
 3423TIP3   OH231683   6.238   0.570  15.936 -0.2576 -0.1013 -0.1613
 3423TIP3    H131684   6.273   0.482  15.949 -1.3052 -0.6002 -0.6414
 3423TIP3    H231685   6.279   0.622  16.005  2.2460 -0.3983 -1.3934
 3424TIP3   OH231686   0.203   2.981  11.754  0.2236  0.3405  0.0293
 3424TIP3    H131687   0.280   3.020  11.795  0.5317  2.2361 -2.2691
 3424TIP3    H231688   0.129   3.025  11.795  0.4238  0.1117  0.6459
 3425TIP3   OH231689   4.648   0.252  11.631  0.1470  0.3610  0.0536
 3425TIP3    H131690   4.625   0.189  11.699  0.7942 -2.2263 -2.0685
 3425TIP3    H231691   4.565   0.272  11.588 -0.0712  1.0764  0.7812
 3426TIP3   OH231692   2.418   4.585  12.941  0.4644 -0.2956  0.2939
 3426TIP3    H131693   2.350   4.521  12.919  0.7690 -0.6062  0.2488
 3426TIP3    H231694   2.411   4.595  13.036  0.1170 -0.0572  0.2435
 3427TIP3   OH231695   2.493   1.327   1.590 -0.0927 -0.5692  0.3574
 3427TIP3    H131696   2.398   1.339   1.584 -0.1321 -0.1092  1.7748
 3427TIP3    H231697   2.506   1.235   1.567 -0.5128  0.1895 -3.2740
 3428TIP3   OH231698   3.552   0.508   0.394  0.2083  0.3031 -0.3420
 3428TIP3    H131699   3.497   0.430   0.396 -0.4727  0.7878 -0.3341
 3428TIP3    H231700   3.641   0.474   0.407 -0.1994 -0.3515  0.8437
 3429TIP3   OH231701   6.742   3.592   2.221  0.0983 -0.0430 -0.0908
 3429TIP3    H131702   6.692   3.656   2.272  0.2269 -0.1805  0.2095
 3429TIP3    H231703   6.800   3.551   2.285  1.7019  1.1906 -0.7144
 3430TIP3   OH231704   0.096   1.102   1.578  0.3405 -0.5235  0.4448
 3430TIP3    H131705   0.067   1.159   1.507  3.3055  0.3570 -0.1157
 3430TIP3    H231706   0.162   1.046   1.538  1.4863 -0.5559  2.3314
 3431TIP3   OH231707   6.503   1.160  15.817  0.1655  0.0931  0.4099
 3431TIP3    H131708   6.446   1.166  15.740  0.2653  2.0005  0.4394
 3431TIP3    H231709   6.592   1.161  15.782  0.1973 -0.6065  0.4716
 3432TIP3   OH231710   1.208   1.712  13.518  0.5950  0.0974  0.0146
 3432TIP3    H131711   1.184   1.799  13.486  1.4643  0.0556 -0.7707
 3432TIP3    H231712   1.141   1.654  13.483 -0.1898  0.4847  0.8309
 3433TIP3   OH231713   4.798   2.782   2.946 -0.0824  0.0452 -0.0081
 3433TIP3    H131714   4.707   2.751   2.939 -0.1666 -0.3321  2.2514
 3433TIP3    H231715   4.830   2.783   2.856 -2.2650 -0.0089 -0.8213
 3434TIP3   OH231716   0.648   0.942   5.661  0.0605  0.2490 -0.2694
 3434TIP3    H131717   0.632   1.026   5.704  1.2981 -0.0406  0.7707
 3434TIP3    H231718   0.565   0.923   5.616 -0.6409  1.4361  0.4670
 3435TIP3   OH231719   4.553   6.679  16.586 -0.0171  0.4781 -0.5460
 3435TIP3    H131720   4.606   6.600  16.572 -1.9324 -0.7586 -1.0600
 3435TIP3    H231721   4.512   6.665  16.671  1.6424  2.1338  0.5579
 3436TIP3   OH231722   5.039   4.691   0.523  0.0239 -0.7762 -0.2975
 3436TIP3    H131723   5.058   4.607   0.565  0.9289 -0.5063 -0.1679
 3436TIP3    H231724   5.114   4.708   0.467 -0.9301 -0.8557 -1.6230
 3437TIP3   OH231725   2.696   0.518  13.283 -0.3288 -0.2544 -0.4730
 3437TIP3    H131726   2.628   0.584  13.291  1.2662  1.3413  0.1388
 3437TIP3    H231727   2.723   0.522  13.191  1.1409  1.3638  0.0050
 3438TIP3   OH231728   4.399   2.675  16.177  0.1827 -0.1477  0.1846
 3438TIP3    H131729   4.452   2.599  16.154  1.5978  0.8331  0.1343
 3438TIP3    H231730   4.362   2.705  16.094 -0.7586 -1.0607  0.2692
 3439TIP3   OH231731   2.635   5.345   0.178 -0.2320  0.2663 -0.2793
 3439TIP3    H131732   2.708   5.403   0.160  0.0733  0.2427  0.8457
 3439TIP3    H231733   2.618   5.301   0.095 -1.4504  3.0491 -1.5288
 3440TIP3   OH231734   4.084   5.208  12.354 -0.1684  0.8256 -0.7111
 3440TIP3    H131735   4.134   5.133  12.321 -0.0899  0.2150  0.7639
 3440TIP3    H231736   4.149   5.264  12.396 -0.8174 -0.3819  1.9665
 3441TIP3   OH231737   3.977   0.781   1.750 -0.0446 -0.3456  0.1560
 3441TIP3    H131738   3.931   0.704   1.786  0.1434 -0.9536 -0.8796
 3441TIP3    H231739   4.068   0.753   1.742 -0.1767 -0.3885 -1.2577
 3442TIP3   OH231740   0.626   6.339  14.113  0.0130  1.0100 -0.2968
 3442TIP3    H131741   0.611   6.245  14.102 -0.2093  0.7783  1.7879
 3442TIP3    H231742   0.552   6.381  14.069 -1.7413  0.1167  1.7624
 3443TIP3   OH231743   2.494   4.924   5.426 -0.2521  0.6294  0.2416
 3443TIP3    H131744   2.461   4.953   5.342  1.5612 -0.6853 -0.9808
 3443TIP3    H231745   2.563   4.988   5.448  0.1338  0.2698  0.0954
 3444TIP3   OH231746   5.864   5.556   4.652 -0.1035  0.4609 -0.0474
 3444TIP3    H131747   5.772   5.575   4.670 -0.5452 -1.2027 -0.5213
 3444TIP3    H231748   5.902   5.535   4.737 -0.6217 -0.7681 -0.1153
 3445TIP3   OH231749   2.802   0.734   2.727 -0.0680  0.1186  0.8086
 3445TIP3    H131750   2.742   0.725   2.800 -4.2111  2.2681 -2.1475
 3445TIP3    H231751   2.785   0.658   2.672 -0.5934  1.0661 -0.3631
 3446TIP3   OH231752   1.149   0.621   0.071 -0.1473  0.5540 -0.1898
 3446TIP3    H131753   1.244   0.632   0.069 -0.2505  1.6880  0.7417
 3446TIP3    H231754   1.124   0.643   0.161 -1.3603  0.8660 -0.5960
 3447TIP3   OH231755   3.460   5.807   0.797 -0.2673 -0.1616 -0.2004
 3447TIP3    H131756   3.498   5.758   0.870 -0.9801  0.0582  0.3216
 3447TIP3    H231757   3.536   5.844   0.751  0.3001 -1.9538 -0.7677
 3448TIP3   OH231758   5.178   4.359   4.006  0.1958 -0.4987 -0.1376
 3448TIP3    H131759   5.102   4.304   3.992 -0.6102  0.8864 -1.3360
 3448TIP3    H231760   5.240   4.333   3.938  0.0987 -0.4298 -0.2533
 3449TIP3   OH231761   2.952   6.299  14.404  0.6667  0.4710 -0.4110
 3449TIP3    H131762   2.968   6.205  14.396  0.5833  0.2619  1.5795
 3449TIP3    H231763   2.993   6.323  14.487  0.4205  2.1390 -0.7551
 3450TIP3   OH231764   1.811   4.306   1.954  0.3607  0.3162  0.1374
 3450TIP3    H131765   1.762   4.236   1.997 -0.4595  0.2776 -0.8410
 3450TIP3    H231766   1.776   4.387   1.990  2.3262  0.2435  2.3803
 3451TIP3   OH231767   1.765   0.617   3.525  0.8405  0.1335 -0.4730
 3451TIP3    H131768   1.853   0.636   3.557  0.7157  0.7376 -0.4788
 3451TIP3    H231769   1.711   0.689   3.558  0.1315 -0.8079  0.4517
 3452TIP3   OH231770   2.146   1.737   5.273  0.2020 -0.2879 -0.3906
 3452TIP3    H131771   2.071   1.753   5.216 -0.7775 -2.0026  0.3789
 3452TIP3    H231772   2.171   1.824   5.306 -1.6590  0.2620 -0.4001
 3453TIP3   OH231773   1.757   3.308  12.962  0.3413 -0.2213 -0.1037
 3453TIP3    H131774   1.830   3.246  12.951  1.0943 -0.1365  3.5539
 3453TIP3    H231775   1.681   3.252  12.978  0.7360 -0.3021  1.6802
 3454TIP3   OH231776   5.435   6.262   5.566  0.2239 -0.2416 -0.1279
 3454TIP3    H131777   5.453   6.242   5.658 -2.1977  3.1243  1.1696
 3454TIP3    H231778   5.344   6.235   5.553  0.8535 -1.6036 -1.8540
 3455TIP3   OH231779   4.767   0.529  11.469  0.1822 -0.4215 -0.1044
 3455TIP3    H131780   4.803   0.563  11.387 -1.1561  2.1547  0.3297
 3455TIP3    H231781   4.682   0.493  11.445  0.7259 -1.6459 -0.2105
 3456TIP3   OH231782   6.385   4.445   3.239  0.1451  0.1667  0.6470
 3456TIP3    H131783   6.469   4.452   3.193 -0.6084 -2.7671 -1.3114
 3456TIP3    H231784   6.330   4.513   3.199  0.7855  0.3425  0.0588
 3457TIP3   OH231785   6.734   0.445  14.951  0.1892  0.1476 -0.3966
 3457TIP3    H131786   6.780   0.511  15.003 -0.1973  0.6007 -0.6256
 3457TIP3    H231787   6.652   0.488  14.924  0.7568  0.2102 -2.0831
 3458TIP3   OH231788   2.900   3.430  12.212  0.5961  0.1793 -0.6506
 3458TIP3    H131789   2.864   3.487  12.144 -2.3390 -0.8187 -0.0187
 3458TIP3    H231790   2.954   3.488  12.266 -1.3834  2.1666 -0.7043
 3459TIP3   OH231791   5.156   4.225  13.486  0.2781  0.4416 -0.0750
 3459TIP3    H131792   5.211   4.193  13.415  1.3031  1.3817  0.2813
 3459TIP3    H231793   5.100   4.151  13.508  0.9097 -0.3024 -0.9131
 3460TIP3   OH231794   6.411   1.080  13.570 -0.2151 -0.5600  0.5096
 3460TIP3    H131795   6.417   0.985  13.580 -0.1132 -0.4839  1.1406
 3460TIP3    H231796   6.320   1.096  13.548 -0.0803 -0.8713 -0.3118
 3461TIP3   OH231797   1.089   3.481  15.846  0.2624  0.0999  0.3176
 3461TIP3    H131798   1.161   3.475  15.784  0.4086  1.0592  0.3859
 3461TIP3    H231799   1.010   3.480  15.793  0.3258 -0.6565  0.2261
 3462TIP3   OH231800   3.955   2.288   3.512  0.0840  0.7639 -0.2279
 3462TIP3    H131801   4.029   2.229   3.495 -0.8791 -0.7573  0.7359
 3462TIP3    H231802   3.989   2.351   3.576  0.6405  0.2953 -0.0590
 3463TIP3   OH231803   5.179   2.412  12.605 -0.5808 -0.7424  0.1839
 3463TIP3    H131804   5.100   2.466  12.608 -1.3578 -1.9321  2.7221
 3463TIP3    H231805   5.222   2.426  12.689  0.8364 -1.6690 -0.3658
 3464TIP3   OH231806   6.582   3.506   3.353 -0.3899  0.9062 -0.5591
 3464TIP3    H131807   6.633   3.587   3.364  0.7362 -0.0372  1.2742
 3464TIP3    H231808   6.637   3.438   3.391 -1.9335 -0.5203 -0.8716
 3465TIP3   OH231809   4.936   1.172   5.073  0.6658 -0.1058 -0.1951
 3465TIP3    H131810   4.932   1.174   5.168  0.5156  2.3546 -0.2036
 3465TIP3    H231811   4.859   1.222   5.045  0.6313 -0.9325 -1.6001
 3466TIP3   OH231812   2.783   1.929   0.184  0.3227 -0.6852 -0.0407
 3466TIP3    H131813   2.782   2.024   0.174 -0.5153 -0.7849 -0.9946
 3466TIP3    H231814   2.717   1.898   0.122 -2.8997 -1.5510  3.5854
 3467TIP3   OH231815   0.449   0.939   3.779 -0.2276  0.0295  0.4867
 3467TIP3    H131816   0.359   0.915   3.756  0.0085 -0.3831 -0.0191
 3467TIP3    H231817   0.454   0.926   3.874  0.2374 -3.1692  0.0773
 3468TIP3   OH231818   4.813   3.703   5.462  0.6643  0.1574  0.0624
 3468TIP3    H131819   4.791   3.791   5.431  0.6849 -0.0080 -0.4211
 3468TIP3    H231820   4.765   3.644   5.404  0.4476 -0.1449  0.5494
 3469TIP3   OH231821   5.111   2.327   3.175 -0.0488 -0.7639  0.6482
 3469TIP3    H131822   5.136   2.409   3.218  0.5038 -0.3992 -0.3689
 3469TIP3    H231823   5.093   2.267   3.248  2.1958 -0.5546  1.4272
 3470TIP3   OH231824   4.564   1.229  11.814  0.4441 -0.2607 -0.4129
 3470TIP3    H131825   4.653   1.257  11.838  0.0708  0.0451  0.6274
 3470TIP3    H231826   4.576   1.141  11.779  1.0822 -0.4703  0.3102
 3471TIP3   OH231827   4.804   5.463   4.662 -0.7922 -0.3515 -0.7072
 3471TIP3    H131828   4.725   5.423   4.626 -0.9829 -0.5723 -0.0430
 3471TIP3    H231829   4.874   5.402   4.639 -1.2634 -1.7995  1.4798
 3472TIP3   OH231830   6.278   0.733   5.272  0.0314  0.6022 -0.0275
 3472TIP3    H131831   6.211   0.780   5.222  0.0397 -0.4569 -1.0472
 3472TIP3    H231832   6.359   0.781   5.253 -0.0595  0.5388 -0.5908
 3473TIP3   OH231833   3.748   6.350  14.003 -0.1454 -0.5611  0.7008
 3473TIP3    H131834   3.682   6.351  13.934 -0.9118  0.5923  1.4334
 3473TIP3    H231835   3.824   6.307  13.963 -0.9672 -0.9524 -0.4801
 3474TIP3   OH231836   4.526   4.074  13.816 -0.0101  0.2263 -0.5201
 3474TIP3    H131837   4.484   4.123  13.887 -1.5920 -0.6324 -0.8473
 3474TIP3    H231838   4.548   3.989  13.856  0.8036  0.4224 -0.5425
 3475TIP3   OH231839   2.847   2.403   4.136 -0.1289  0.5334  0.0789
 3475TIP3    H131840   2.879   2.492   4.149  1.6471  0.0418 -0.7146
 3475TIP3    H231841   2.780   2.412   4.069  1.2119  1.0937 -1.2326
 3476TIP3   OH231842   6.175   4.228  10.469  0.1841 -0.1931  0.0322
 3476TIP3    H131843   6.135   4.264  10.547 -1.6281 -1.0686 -0.4796
 3476TIP3    H231844   6.151   4.288  10.399  0.4631 -0.2705 -0.1339
 3477TIP3   OH231845   5.940   4.418   1.990  0.1030 -0.5927  0.1915
 3477TIP3    H131846   5.932   4.327   2.018 -1.0471 -0.9918 -1.3398
 3477TIP3    H231847   5.855   4.439   1.952  0.2505  1.2340  0.8276
 3478TIP3   OH231848   3.822   0.284   1.494  0.2411 -0.0607 -0.2319
 3478TIP3    H131849   3.849   0.192   1.504 -1.9363 -0.5668  1.5339
 3478TIP3    H231850   3.756   0.282   1.425 -0.6155 -0.0095  0.5809
 3479TIP3   OH231851   1.063   0.955   4.436 -0.0398  0.7312  0.0383
 3479TIP3    H131852   1.075   1.034   4.490  1.6882 -0.1523  0.9930
 3479TIP3    H231853   1.145   0.947   4.387 -0.2495 -0.4244 -0.1300
 3480TIP3   OH231854   5.649   4.182   0.190  0.0205  0.1497 -0.1256
 3480TIP3    H131855   5.662   4.276   0.179  2.5655  0.0472  1.6016
 3480TIP3    H231856   5.662   4.145   0.103  1.0406  1.1974 -0.4245
 3481TIP3   OH231857   0.926   1.949  11.783  0.0213  0.1876 -0.4789
 3481TIP3    H131858   0.853   1.890  11.800  1.0247 -0.8893  0.1311
 3481TIP3    H231859   0.905   1.988  11.698 -0.8099 -0.7939 -0.7385
 3482TIP3   OH231860   2.372   2.065   2.707 -0.3114  0.3624  0.1079
 3482TIP3    H131861   2.387   2.011   2.628  1.1784  0.1062  0.5521
 3482TIP3    H231862   2.388   2.005   2.780 -1.1897  0.7374  0.6182
 3483TIP3   OH231863   1.979   2.777   3.671 -0.1764 -0.1707 -0.2913
 3483TIP3    H131864   1.965   2.701   3.728 -1.5524  1.2432  1.2844
 3483TIP3    H231865   1.893   2.795   3.633  0.1900  0.4978 -0.8170
 3484TIP3   OH231866   6.222   1.568   5.563  0.1633 -0.5768 -0.0926
 3484TIP3    H131867   6.173   1.649   5.574  0.2133 -0.7112  1.3498
 3484TIP3    H231868   6.301   1.594   5.516 -0.0461  0.1236 -0.0620
 3485TIP3   OH231869   6.458   6.467   6.266  0.4341 -0.7464  0.2655
 3485TIP3    H131870   6.492   6.459   6.176 -1.7855  1.0047 -0.7662
 3485TIP3    H231871   6.438   6.560   6.276  1.4543 -0.7640  2.9214
 3486TIP3   OH231872   6.134   3.739  16.523 -0.6196  0.2132  0.8519
 3486TIP3    H131873   6.229   3.750  16.532 -0.8234  0.5066  2.7239
 3486TIP3    H231874   6.116   3.656  16.566 -0.9517 -0.8674 -1.3234
 3487TIP3   OH231875   4.406   6.782  13.602 -0.5280  0.0152  0.0262
 3487TIP3    H131876   4.423   6.729  13.524 -0.9213 -1.6203  1.0075
 3487TIP3    H231877   4.431   6.871  13.578  1.1209 -0.8047 -1.3468
 3488TIP3   OH231878   0.277   0.869  14.794  0.6433  0.3331 -0.2070
 3488TIP3    H131879   0.366   0.860  14.828  0.6722 -0.0096 -0.3727
 3488TIP3    H231880   0.221   0.845  14.867  0.7224 -1.3077 -0.6711
 3489TIP3   OH231881   0.235   1.408   0.118 -0.7243 -0.6595  0.2367
 3489TIP3    H131882   0.210   1.416   0.026 -0.1548 -2.3377 -0.0857
 3489TIP3    H231883   0.156   1.434   0.166 -1.1327 -0.0804 -0.7097
 3490TIP3   OH231884   3.542   5.468   2.156 -0.4146  0.1449 -0.3465
 3490TIP3    H131885   3.521   5.561   2.153 -0.2588  0.1577 -2.1962
 3490TIP3    H231886   3.633   5.464   2.126 -0.1825 -0.5341  0.4524
 3491TIP3   OH231887   1.393   3.252   5.775  0.0483 -0.1377 -0.5955
 3491TIP3    H131888   1.303   3.242   5.805  0.4953  0.6603  1.0488
 3491TIP3    H231889   1.440   3.178   5.813  0.3904  0.2707 -0.2118
 3492TIP3   OH231890   2.023   3.316  16.516  0.1072 -0.0645 -0.3631
 3492TIP3    H131891   2.068   3.358  16.589  0.1544  1.7749 -1.4283
 3492TIP3    H231892   1.930   3.327  16.535  0.1069  2.3800 -1.6555
 3493TIP3   OH231893   3.691   6.626  13.145 -0.2706  0.0083 -0.1258
 3493TIP3    H131894   3.675   6.688  13.217 -0.1654  1.0326 -0.9616
 3493TIP3    H231895   3.685   6.540  13.185 -0.2508  0.5693  1.1046
 3494TIP3   OH231896   2.691   6.637  13.856 -0.4144  0.1233  0.2682
 3494TIP3    H131897   2.625   6.626  13.787 -0.3403  1.8356 -0.1049
 3494TIP3    H231898   2.730   6.722  13.837  3.2063 -1.6522 -0.6338
 3495TIP3   OH231899   2.647   6.768   4.438 -0.0245  0.2108  0.4324
 3495TIP3    H131900   2.557   6.744   4.462 -0.9620  1.0366 -2.0756
 3495TIP3    H231901   2.685   6.688   4.404  0.0236 -0.0272  1.0480
 3496TIP3   OH231902   1.389   3.424  15.946  0.2639  0.0924 -0.0294
 3496TIP3    H131903   1.387   3.461  15.857  0.7481  0.9167  0.2961
 3496TIP3    H231904   1.347   3.338  15.937  1.0098 -0.1570 -1.2055
 3497TIP3   OH231905   2.240   3.068  11.299  0.3464 -0.4721 -0.4602
 3497TIP3    H131906   2.302   3.139  11.282 -1.1181  1.0578  0.4629
 3497TIP3    H231907   2.269   3.031  11.382  0.2051  0.0350 -0.1845
 3498TIP3   OH231908   6.355   4.284  15.933  0.3663  0.5988  0.0091
 3498TIP3    H131909   6.285   4.284  15.998 -2.2718 -1.7249 -2.6759
 3498TIP3    H231910   6.313   4.316  15.853  1.8259 -2.5647 -2.1179
 3499TIP3   OH231911   3.780   0.554   2.441  0.1623  0.1181 -0.3197
 3499TIP3    H131912   3.760   0.518   2.354  1.4078  0.4246 -0.7446
 3499TIP3    H231913   3.806   0.479   2.493  1.3649  0.1913 -0.7960
 3500TIP3   OH231914   6.475   6.141  12.625  0.3573  0.1745  0.3136
 3500TIP3    H131915   6.420   6.211  12.660  1.5102  0.8242  0.8628
 3500TIP3    H231916   6.490   6.166  12.534 -0.0913  0.1051  0.2232
 3501TIP3   OH231917   5.116   1.381  17.063  0.5828  0.2775  0.4634
 3501TIP3    H131918   5.069   1.311  17.018  0.4931 -0.1447  1.2084
 3501TIP3    H231919   5.102   1.458  17.009 -2.0932  0.4736  1.3506
 3502TIP3   OH231920   1.322   4.698  14.620  0.0087  0.2258 -0.4695
 3502TIP3    H131921   1.245   4.641  14.626  0.1607  0.1330  0.7302
 3502TIP3    H231922   1.384   4.649  14.566 -0.4879 -0.0155 -0.8293
 3503TIP3   OH231923   1.256   1.243  12.681  0.8823  0.2607 -0.1148
 3503TIP3    H131924   1.231   1.315  12.739 -0.6390  1.0904 -1.7583
 3503TIP3    H231925   1.230   1.164  12.728 -0.9137  0.9495  0.0756
 3504TIP3   OH231926   4.945   0.042  17.055 -0.1013 -0.4400  0.2605
 3504TIP3    H131927   4.952   0.013  17.146  1.0162 -0.7984  0.0696
 3504TIP3    H231928   4.877  -0.014  17.017 -1.2774  0.3716  1.1260
 3505TIP3   OH231929   6.541   1.523   4.884 -0.0022  0.7842  0.1017
 3505TIP3    H131930   6.600   1.468   4.937 -0.5712  1.0064  0.9812
 3505TIP3    H231931   6.600   1.572   4.827  0.4773 -1.1236 -1.0742
 3506TIP3   OH231932   5.528   4.759   0.937 -0.0134  0.8273  0.0762
 3506TIP3    H131933   5.522   4.850   0.908 -2.7318  0.4421 -0.6531
 3506TIP3    H231934   5.450   4.745   0.990 -1.3357 -2.0050 -2.5112
 3507TIP3   OH231935   4.707   2.116   4.558 -0.0036  0.3721 -0.0793
 3507TIP3    H131936   4.624   2.089   4.518 -0.1636 -0.0368  0.5103
 3507TIP3    H231937   4.758   2.152   4.486 -0.1840 -0.5850 -0.6971
 3508TIP3   OH231938   6.724   3.386  12.573  0.4839 -0.1849  0.3936
 3508TIP3    H131939   6.696   3.475  12.548  1.3466 -0.1299 -0.3992
 3508TIP3    H231940   6.791   3.400  12.639  0.4478 -0.2632  0.4463
 3509TIP3   OH231941   2.012   0.885   4.107 -0.0248  0.4004  0.5009
 3509TIP3    H131942   2.038   0.820   4.173 -0.2052 -0.3972 -0.2022
 3509TIP3    H231943   2.094   0.917   4.071  0.0824  1.0408  1.3013
 3510TIP3   OH231944   4.681   3.248   5.806 -0.1848 -0.2237 -0.0868
 3510TIP3    H131945   4.663   3.309   5.735 -0.0385  0.4022  0.4154
 3510TIP3    H231946   4.612   3.264   5.871  0.0763 -0.3264  0.2191
 3511TIP3   OH231947   6.599   1.487   1.144 -0.5321 -0.6488  0.4901
 3511TIP3    H131948   6.564   1.487   1.233 -3.0174 -0.1339 -0.4548
 3511TIP3    H231949   6.632   1.398   1.131 -0.3307 -0.7809  1.8528
 3512TIP3   OH231950   6.132   1.175  11.950  0.0550 -0.3403  0.4642
 3512TIP3    H131951   6.134   1.084  11.920  0.1345 -0.9447  2.2525
 3512TIP3    H231952   6.224   1.200  11.958  0.0499  0.4153 -1.4614
 3513TIP3   OH231953   6.121   0.943   4.496 -0.2330 -0.1280 -0.1390
 3513TIP3    H131954   6.060   0.885   4.451 -0.8971 -0.9577  1.7555
 3513TIP3    H231955   6.067   1.018   4.524 -0.1233 -0.2757  0.4687
 3514TIP3   OH231956   2.555   5.188   3.690  0.8464 -0.2900 -0.1244
 3514TIP3    H131957   2.607   5.268   3.680  0.3196 -0.0716 -1.1932
 3514TIP3    H231958   2.478   5.202   3.635  0.6828 -1.4711 -0.2113
 3515TIP3   OH231959   3.672   3.274   2.968  0.4001 -0.7484  0.2865
 3515TIP3    H131960   3.609   3.332   3.010 -0.2228  0.5626 -2.3091
 3515TIP3    H231961   3.633   3.187   2.975 -1.5207 -0.0182 -0.8711
 3516TIP3   OH231962   2.156   1.816   2.663 -0.0791  0.6401 -1.1859
 3516TIP3    H131963   2.246   1.838   2.685  0.3533 -0.3299 -1.9371
 3516TIP3    H231964   2.104   1.885   2.702  0.6316 -0.9897  2.8723
 3517TIP3   OH231965   1.603   2.182  14.010  0.6444 -0.1346  0.4121
 3517TIP3    H131966   1.684   2.134  13.993 -0.3527 -1.8766  0.4527
 3517TIP3    H231967   1.569   2.203  13.923  0.6768 -0.2120  0.3814
 3518TIP3   OH231968   4.581   1.304   5.295  0.2086 -0.2919  0.2513
 3518TIP3    H131969   4.486   1.314   5.287  0.1349 -1.8141 -1.1062
 3518TIP3    H231970   4.596   1.211   5.278  1.8767 -0.2039  1.1717
 3519TIP3   OH231971   2.616   5.297   2.113 -0.3589 -0.2091  0.0667
 3519TIP3    H131972   2.708   5.326   2.113 -0.0881 -1.0517  0.2175
 3519TIP3    H231973   2.621   5.202   2.125 -1.2700 -0.2208  0.3561
 3520TIP3   OH231974   5.943   5.376  15.534  0.2716 -0.0568 -0.3038
 3520TIP3    H131975   5.909   5.287  15.527  1.2156 -0.3879 -0.7091
 3520TIP3    H231976   6.034   5.365  15.561  0.7189  0.7569 -1.4570
 3521TIP3   OH231977   0.427   0.890  12.632 -0.0135  0.4063 -0.3713
 3521TIP3    H131978   0.421   0.959  12.698  2.0056  1.0778 -0.8309
 3521TIP3    H231979   0.486   0.927  12.565  0.1495 -1.3038 -1.1982
 3522TIP3   OH231980   6.217   3.589  12.758 -0.1506  0.2913  0.0065
 3522TIP3    H131981   6.239   3.622  12.671 -1.8499  0.0243 -0.5358
 3522TIP3    H231982   6.149   3.524  12.743 -0.9775  0.7562  1.6034
 3523TIP3   OH231983   5.160   4.986  12.197  0.8239 -0.4229  0.7994
 3523TIP3    H131984   5.113   5.026  12.124  4.1203 -0.4825 -1.4699
 3523TIP3    H231985   5.213   5.056  12.233  0.6807 -0.8806  1.9240
 3524TIP3   OH231986   3.970   5.437  15.871  0.6398  0.2633 -0.0401
 3524TIP3    H131987   3.920   5.419  15.951  2.1913  1.7364  1.3086
 3524TIP3    H231988   4.045   5.379  15.877  0.3212 -0.2320 -0.8585
 3525TIP3   OH231989   0.972   3.301  17.036  0.6100  0.0168 -0.0254
 3525TIP3    H131990   0.946   3.282  16.945  0.2295 -1.2527  0.3326
 3525TIP3    H231991   0.999   3.216  17.071  0.1368  0.3747  1.2422
 3526TIP3   OH231992   0.261   6.133   6.776  0.1027  0.4141  0.2191
 3526TIP3    H131993   0.293   6.050   6.739  1.1972  0.6331  0.6429
 3526TIP3    H231994   0.171   6.139   6.746 -0.0392 -1.0101  0.3124
 3527TIP3   OH231995   0.644   1.656  16.017 -0.4339 -0.3687  0.4755
 3527TIP3    H131996   0.674   1.747  16.011  0.5870 -0.6867  0.6794
 3527TIP3    H231997   0.553   1.663  16.044 -1.0602  0.6674 -1.7439
 3528TIP3   OH231998   4.226   0.687  10.502  0.9421 -0.5762 -0.5581
 3528TIP3    H131999   4.257   0.624  10.567  1.6004  1.4366  1.1223
 3528TIP3    H232000   4.217   0.635  10.422  2.5294 -2.5736  0.4888
 3529TIP3   OH232001   4.560   3.023   3.352  0.0663 -0.3733 -0.4739
 3529TIP3    H132002   4.623   3.062   3.413  0.2036 -0.5000 -0.5321
 3529TIP3    H232003   4.476   3.064   3.374  0.4622  1.0216 -1.4792
 3530TIP3   OH232004   0.639   2.452  11.270 -0.0181 -0.4598 -0.8620
 3530TIP3    H132005   0.590   2.477  11.192 -1.3787 -2.2901 -0.6190
 3530TIP3    H232006   0.727   2.431  11.237  0.3610  1.8696 -1.4297
 3531TIP3   OH232007   2.033   2.677  15.426 -0.1900  0.4819  0.3169
 3531TIP3    H132008   2.018   2.622  15.503 -0.5854  0.5759  0.3112
 3531TIP3    H232009   2.093   2.746  15.457  2.1875 -1.2688 -0.2864
 3532TIP3   OH232010   3.485   3.533   3.067  0.2268  0.3718 -0.0208
 3532TIP3    H132011   3.394   3.564   3.065  0.5025  1.1383 -0.7194
 3532TIP3    H232012   3.536   3.605   3.030  1.0367 -0.3544 -0.3346
 3533TIP3   OH232013   5.114   3.556   3.506 -0.2001  0.1398 -0.4156
 3533TIP3    H132014   5.133   3.592   3.420 -0.1580 -0.6981 -0.7530
 3533TIP3    H232015   5.085   3.632   3.557 -0.7766  0.5351 -1.3177
 3534TIP3   OH232016   3.678   2.220   3.977 -0.2132  0.0097  0.5831
 3534TIP3    H132017   3.633   2.274   4.042  0.3104 -0.8601  1.6830
 3534TIP3    H232018   3.674   2.272   3.897  0.1842  1.6381  1.5877
 3535TIP3   OH232019   3.120   0.873  11.364  0.8339  0.1350 -0.3337
 3535TIP3    H132020   3.145   0.786  11.331 -0.7018 -0.1123 -0.8772
 3535TIP3    H232021   3.120   0.863  11.459  0.1954 -0.6049 -0.4051
 3536TIP3   OH232022   1.382   3.802   1.756 -0.2676 -0.0068 -0.1761
 3536TIP3    H132023   1.310   3.864   1.746  0.3839  0.6605 -0.7798
 3536TIP3    H232024   1.359   3.729   1.698 -1.0175 -0.3159  0.5089
 3537TIP3   OH232025   0.327   6.525  14.557 -0.1616  0.0829 -0.3347
 3537TIP3    H132026   0.417   6.528  14.587 -0.5553  3.4109  0.6681
 3537TIP3    H232027   0.331   6.550  14.465 -0.0627  0.1725 -0.3061
 3538TIP3   OH232028   1.591   5.265  13.391 -0.7284  0.3919 -0.0428
 3538TIP3    H132029   1.522   5.292  13.330  0.6423  0.6540 -1.5345
 3538TIP3    H232030   1.588   5.330  13.461 -1.5679  0.7911 -0.4426
 3539TIP3   OH232031   0.622   2.845   5.465 -0.2843  0.3925  0.2212
 3539TIP3    H132032   0.559   2.811   5.530 -1.4972 -1.3912 -1.7887
 3539TIP3    H232033   0.691   2.886   5.517 -1.4760 -0.5324  2.6144
 3540TIP3   OH232034   4.483   2.377  10.587  0.4914  0.4229  1.0274
 3540TIP3    H132035   4.392   2.401  10.604  0.2315  1.1090 -1.1843
 3540TIP3    H232036   4.479   2.285  10.561  0.0496  1.1838 -1.7596
 3541TIP3   OH232037   2.809   3.603   1.553  0.5886 -0.0835  0.3141
 3541TIP3    H132038   2.819   3.674   1.489 -0.8102  1.0017  1.2630
 3541TIP3    H232039   2.779   3.647   1.632 -0.2954 -1.7539  0.9206
 3542TIP3   OH232040   4.002   4.270  14.396 -0.5944  0.2506  1.1230
 3542TIP3    H132041   4.082   4.304  14.438  0.5962 -2.5261  1.2405
 3542TIP3    H232042   3.947   4.243  14.469  0.2958 -1.9769  1.0198
 3543TIP3   OH232043   4.912   3.966   0.940 -0.2252  0.6072 -0.3476
 3543TIP3    H132044   4.976   3.926   0.881  0.8644 -1.0342  1.8916
 3543TIP3    H232045   4.963   3.997   1.014 -2.0128 -1.0827  1.6666
 3544TIP3   OH232046   3.300   0.114   0.533  0.4198  0.0425 -0.4747
 3544TIP3    H132047   3.253   0.190   0.499  0.6521  1.3918  2.0878
 3544TIP3    H232048   3.231   0.052   0.558  0.1574  0.4136 -0.2847
 3545TIP3   OH232049   5.562   1.515   0.791  0.4916 -0.4147 -0.0067
 3545TIP3    H132050   5.529   1.557   0.712 -1.8274 -0.1972  1.0286
 3545TIP3    H232051   5.538   1.423   0.781  0.1907 -0.3872  0.4256
 3546TIP3   OH232052   3.557   4.656   3.606 -0.3188  0.3028  0.0972
 3546TIP3    H132053   3.543   4.669   3.512 -1.7007  1.8067  0.4961
 3546TIP3    H232054   3.558   4.744   3.643 -0.0771 -0.2911  1.5498
 3547TIP3   OH232055   2.228   6.509   1.169  0.1399 -0.3858  0.1276
 3547TIP3    H132056   2.319   6.501   1.198 -0.3609 -0.2408  1.7585
 3547TIP3    H232057   2.176   6.503   1.249 -1.0893  3.7252 -0.2065
 3548TIP3   OH232058   3.218   3.161  16.473 -0.1877  0.1170  0.3884
 3548TIP3    H132059   3.134   3.115  16.465 -0.2431  0.1816  0.6164
 3548TIP3    H232060   3.252   3.134  16.558  1.2158 -1.9192 -0.7726
 3549TIP3   OH232061   3.101   6.093  16.810  0.0740 -0.3045 -0.1401
 3549TIP3    H132062   3.079   6.089  16.717 -3.0537 -0.5020  0.5544
 3549TIP3    H232063   3.113   6.002  16.836  3.3902 -0.1465 -0.8069
 3550TIP3   OH232064   5.104   4.646  14.206  0.5088 -0.4262 -0.2045
 3550TIP3    H132065   5.029   4.705  14.202 -0.1202 -1.2116 -0.2692
 3550TIP3    H232066   5.124   4.639  14.299  0.5355 -0.1599 -0.1928
 3551TIP3   OH232067   4.462   3.164   0.140  0.7190 -0.7398 -0.1277
 3551TIP3    H132068   4.413   3.140   0.062 -0.5349 -1.3244  0.8158
 3551TIP3    H232069   4.546   3.119   0.132 -0.2949 -2.6682 -0.0263
 3552TIP3   OH232070   4.628   3.084  15.976 -0.0642 -0.8703 -0.2328
 3552TIP3    H132071   4.546   3.034  15.973 -0.8634  0.5083 -2.5983
 3552TIP3    H232072   4.611   3.155  16.037 -0.6018 -0.6259 -0.6695
 3553TIP3   OH232073   4.511   6.136  14.720 -0.9708 -0.3160  0.1478
 3553TIP3    H132074   4.446   6.204  14.737 -1.9386 -1.2939  0.3941
 3553TIP3    H232075   4.505   6.077  14.795 -0.1449 -0.6876 -0.0635
 3554TIP3   OH232076   3.001   3.452   2.439  0.2438 -0.5481 -0.2101
 3554TIP3    H132077   3.072   3.387   2.441  0.4382 -0.5278 -3.4008
 3554TIP3    H232078   3.041   3.532   2.474  1.5928 -0.7528 -1.2387
 3555TIP3   OH232079   2.287   0.365   0.870  0.3854  0.2351  0.1973
 3555TIP3    H132080   2.228   0.333   0.938  0.1032  0.4369  0.0474
 3555TIP3    H232081   2.246   0.446   0.839  0.7227  0.3572  0.0705
 3556TIP3   OH232082   5.041   6.363  16.703 -0.4297  0.2453  0.1272
 3556TIP3    H132083   5.078   6.274  16.705 -0.1621  0.3773  1.8305
 3556TIP3    H232084   4.950   6.351  16.678 -0.1331 -0.4023 -0.6957
 3557TIP3   OH232085   3.817   5.822  15.852  0.5785  0.1386  0.0389
 3557TIP3    H132086   3.831   5.728  15.863 -3.2697 -0.4882 -0.0720
 3557TIP3    H232087   3.805   5.834  15.758 -0.9357  0.4432  0.2635
 3558TIP3   OH232088   5.535   1.026  15.824  1.1494  0.0645 -0.7545
 3558TIP3    H132089   5.563   1.102  15.875  0.2394 -2.4856  3.8471
 3558TIP3    H232090   5.614   0.974  15.814  1.1079  0.0451 -0.9698
 3559TIP3   OH232091   6.656   2.541  13.420  0.1747 -0.8146  0.4150
 3559TIP3    H132092   6.591   2.480  13.455 -1.0140 -0.3709 -0.9529
 3559TIP3    H232093   6.682   2.594  13.495 -1.7356 -0.4185  0.8298
 3560TIP3   OH232094   1.973   2.093  15.377  0.1554  0.0792 -0.0496
 3560TIP3    H132095   2.006   2.138  15.455  0.1412 -0.2740  0.1578
 3560TIP3    H232096   1.917   2.159  15.334 -1.8758 -0.5361  1.5836
 3561TIP3   OH232097   5.990   5.711   4.128 -0.2748  0.0730  0.5113
 3561TIP3    H132098   5.899   5.681   4.131  0.1317 -1.0286  2.0122
 3561TIP3    H232099   6.017   5.715   4.219  1.2232  0.3115  0.0645
 3562TIP3   OH232100   5.109   2.801   5.967 -1.3426  0.0221 -0.3908
 3562TIP3    H132101   5.174   2.802   5.897 -0.5665  1.5390  0.3081
 3562TIP3    H232102   5.147   2.746   6.035 -0.6562  1.0986  0.1140
 3563TIP3   OH232103   3.706   5.858  10.127 -0.1261  0.2828 -0.1441
 3563TIP3    H132104   3.789   5.811  10.133 -0.1713 -0.0515 -1.7978
 3563TIP3    H232105   3.643   5.792  10.098 -0.7424  0.7624  0.0936
 3564TIP3   OH232106   3.894   6.006  16.835  0.4187  0.6877 -0.1271
 3564TIP3    H132107   3.883   6.001  16.930  0.0807 -0.7884 -0.2296
 3564TIP3    H232108   3.985   5.983  16.820  0.6659  1.6406 -0.1144
 3565TIP3   OH232109   4.773   4.042  16.110  0.7955 -0.7736  0.0949
 3565TIP3    H132110   4.831   4.004  16.044  2.3602 -0.7276  1.4138
 3565TIP3    H232111   4.794   3.994  16.190  0.8160  0.9671  1.1479
 3566TIP3   OH232112   6.442   2.149  12.304  0.5632 -0.0939  0.0190
 3566TIP3    H132113   6.370   2.154  12.367  0.2543 -0.7853 -0.2746
 3566TIP3    H232114   6.512   2.101  12.350  0.1720 -0.9966 -0.3102
 3567TIP3   OH232115   3.951   4.660  11.961  0.1675 -0.3108  0.1349
 3567TIP3    H132116   3.916   4.637  11.875  2.0204 -0.5468 -0.5709
 3567TIP3    H232117   3.964   4.577  12.006 -0.4359 -0.2058  0.5224
 3568TIP3   OH232118   1.148   0.934  15.113 -0.5969  0.2938  0.3079
 3568TIP3    H132119   1.162   0.861  15.052  0.0003  0.8363 -0.2232
 3568TIP3    H232120   1.084   0.990  15.069 -0.2519  0.6269  0.2179
 3569TIP3   OH232121   2.098   3.655  16.635 -0.1691 -0.0571 -0.0327
 3569TIP3    H132122   2.121   3.584  16.575  1.1318  0.8880 -0.6866
 3569TIP3    H232123   2.052   3.719  16.579  0.2050  0.3966  0.1753
 3570TIP3   OH232124   1.317   2.599  15.636 -0.4324 -0.3161  0.3578
 3570TIP3    H132125   1.250   2.532  15.652 -0.5296 -0.2346  0.2936
 3570TIP3    H232126   1.268   2.681  15.633 -0.3115 -0.2415  0.4474
 3571TIP3   OH232127   3.215   5.185  16.241 -0.0406 -0.6430  0.3021
 3571TIP3    H132128   3.225   5.094  16.214  0.3390 -0.8469  1.1242
 3571TIP3    H232129   3.294   5.204  16.293  0.1475  0.3127 -0.3163
 3572TIP3   OH232130   4.810   0.561  12.979 -0.0589  0.1648 -0.3975
 3572TIP3    H132131   4.717   0.572  12.959 -1.2785 -1.6456  3.6544
 3572TIP3    H232132   4.827   0.468  12.963  0.0393 -0.3365  2.3780
 3573TIP3   OH232133   2.817   3.435   1.804  0.1909 -0.5578  0.4920
 3573TIP3    H132134   2.798   3.413   1.713 -2.1616 -0.9311  1.0595
 3573TIP3    H232135   2.847   3.526   1.800 -1.0417 -0.1739 -0.5376
 3574TIP3   OH232136   6.463   3.759  13.798  0.3038  0.0307 -0.2293
 3574TIP3    H132137   6.525   3.831  13.789  0.6338 -0.2628 -0.2750
 3574TIP3    H232138   6.404   3.787  13.868  1.0855 -0.1278  0.4898
 3575TIP3   OH232139   4.799   6.146  14.545 -0.7959 -0.2538  0.1062
 3575TIP3    H132140   4.784   6.055  14.571  1.7178 -0.7740 -0.0989
 3575TIP3    H232141   4.776   6.198  14.622  0.3460 -1.2821  1.1611
 3576TIP3   OH232142   1.904   5.545  14.667 -0.1205  0.3392 -0.4850
 3576TIP3    H132143   1.908   5.557  14.762  1.2533 -1.8425 -0.2379
 3576TIP3    H232144   1.814   5.516  14.650 -0.3252  0.5860  0.1639
 3577TIP3   OH232145   6.021   3.222  12.479  0.3461  0.5213  0.1042
 3577TIP3    H132146   6.025   3.137  12.524 -0.2346  0.6567  0.4152
 3577TIP3    H232147   5.956   3.210  12.410  0.4764  0.6286 -0.0395
 3578TIP3   OH232148   5.936   0.294   4.161  0.2561 -0.8821  0.0739
 3578TIP3    H132149   5.999   0.246   4.108 -0.5823 -0.3522 -1.4493
 3578TIP3    H232150   5.988   0.336   4.229  1.1729 -2.6939  0.4941
 3579TIP3   OH232151   1.186   6.683   2.799 -0.0225 -0.0740  0.1323
 3579TIP3    H132152   1.243   6.647   2.867 -1.1939  0.5960  1.5142
 3579TIP3    H232153   1.219   6.772   2.786 -1.3738  0.6895  1.7127
 3580TIP3   OH232154   4.740   3.108  11.147 -0.4940  0.5715 -0.3097
 3580TIP3    H132155   4.810   3.168  11.122  0.9173 -1.0757 -0.4201
 3580TIP3    H232156   4.743   3.106  11.243 -1.2605  1.4891 -0.2586
 3581TIP3   OH232157   6.086   3.346   0.148  0.2717 -0.4449 -0.1933
 3581TIP3    H132158   5.992   3.363   0.151  0.5069  0.8595  0.1242
 3581TIP3    H232159   6.119   3.406   0.082  1.3716  1.6915  2.1972
 3582TIP3   OH232160   0.975   5.992  16.121  0.3533 -0.3800 -0.0558
 3582TIP3    H132161   0.976   6.068  16.062  2.1995  0.5003  1.0524
 3582TIP3    H232162   1.022   6.022  16.199 -2.2126 -1.4575  1.9860
 3583TIP3   OH232163   5.866   3.272  17.045  0.4736 -0.2254  0.0757
 3583TIP3    H132164   5.788   3.316  17.010  0.4524  1.0407  1.6532
 3583TIP3    H232165   5.939   3.315  17.001  0.3552 -0.3140 -0.2113
 3584TIP3   OH232166   0.001   5.618   0.241 -0.0445  0.2088 -0.0657
 3584TIP3    H132167   0.075   5.559   0.257  1.4646  1.7752 -1.1640
 3584TIP3    H232168   0.008   5.683   0.311 -1.1298 -0.3170  0.5521
 3585TIP3   OH232169   4.590   2.720  15.252 -0.5536  0.4649 -0.9675
 3585TIP3    H132170   4.646   2.787  15.291 -1.9208  0.8898  0.3181
 3585TIP3    H232171   4.554   2.762  15.174  1.4507 -0.0598 -2.1992
 3586TIP3   OH232172   5.937   3.299  14.527  0.2198 -0.4874 -0.1358
 3586TIP3    H132173   6.003   3.357  14.489  1.4629 -1.0498  1.1287
 3586TIP3    H232174   5.987   3.238  14.581 -1.2451 -1.5945 -0.0033
 3587TIP3   OH232175   1.999   1.442  13.231  0.5592  0.1914 -0.7939
 3587TIP3    H132176   2.028   1.456  13.321  0.2010  0.9948 -0.8048
 3587TIP3    H232177   1.907   1.468  13.230  0.1921 -1.0661 -1.0810
 3588TIP3   OH232178   4.529   3.875  11.733 -0.9364 -0.5313  0.0530
 3588TIP3    H132179   4.535   3.779  11.729 -1.0333 -0.4630 -1.9430
 3588TIP3    H232180   4.572   3.905  11.653 -0.5213  1.1230  0.8868
 3589TIP3   OH232181   5.243   6.644   5.634 -0.0337  0.0852 -0.4516
 3589TIP3    H132182   5.264   6.571   5.693  2.0341  0.3810 -0.8055
 3589TIP3    H232183   5.208   6.601   5.556 -1.0989 -0.3918  0.2643
 3590TIP3   OH232184   0.007   4.720   5.002 -0.5164 -1.5443  0.5033
 3590TIP3    H132185   0.082   4.747   5.055 -0.0636  0.6435 -1.1663
 3590TIP3    H232186  -0.069   4.731   5.059 -0.0040  0.5440  0.8253
 3591TIP3   OH232187   1.046   4.092  13.098  0.2375 -0.2279  0.4286
 3591TIP3    H132188   1.023   4.086  13.190  2.4051 -1.5998  0.9326
 3591TIP3    H232189   1.011   4.013  13.059 -0.9529  0.5028 -0.0097
 3592TIP3   OH232190   3.634   6.782  14.263  0.3311  0.2196 -0.2335
 3592TIP3    H132191   3.661   6.780  14.355 -0.8492 -1.3517  0.0973
 3592TIP3    H232192   3.661   6.697  14.228  0.8490  0.8407 -1.3614
 3593TIP3   OH232193   4.382   2.694   1.692  0.2001  0.4175 -0.9248
 3593TIP3    H132194   4.468   2.719   1.725 -0.8024  1.9951  0.5933
 3593TIP3    H232195   4.375   2.600   1.712  1.5258  0.3069 -0.9815
 3594TIP3   OH232196   0.911   5.748   2.257  0.6768 -0.7797 -0.1474
 3594TIP3    H132197   0.990   5.757   2.309 -0.0556 -1.3811  1.0775
 3594TIP3    H232198   0.937   5.778   2.169  1.9451  0.1011  0.5125
 3595TIP3   OH232199   3.031   4.994   3.507  0.3744 -0.3232  0.3437
 3595TIP3    H132200   3.111   5.008   3.557  0.2803 -1.3799  0.8124
 3595TIP3    H232201   3.049   4.917   3.454 -0.7764 -1.3661  1.4265
 3596TIP3   OH232202   5.117   0.053   1.557 -0.5323 -0.2022  0.0226
 3596TIP3    H132203   5.100  -0.025   1.505 -2.0027 -0.9418  1.5222
 3596TIP3    H232204   5.033   0.099   1.558  0.3208  1.3997 -0.8325
 3597TIP3   OH232205   5.844   5.478  11.476 -1.3909 -0.2548 -0.8975
 3597TIP3    H132206   5.779   5.427  11.526  0.0227  0.2175  1.5081
 3597TIP3    H232207   5.889   5.413  11.423 -2.4187 -0.8950 -1.0084
 3598TIP3   OH232208   0.087   4.024  16.063  0.8094  0.0690 -0.0652
 3598TIP3    H132209   0.062   3.934  16.085  2.6093 -0.3867  0.2151
 3598TIP3    H232210   0.021   4.078  16.107  0.0152 -1.0976  0.2094
 3599TIP3   OH232211   5.779   4.083  13.822 -0.2484 -0.4870  0.1050
 3599TIP3    H132212   5.715   4.111  13.756 -1.8361  0.1245  1.8692
 3599TIP3    H232213   5.775   3.987  13.819 -0.2840 -0.4630 -0.7172
 3600TIP3   OH232214   3.287   1.422  11.561 -0.4630  0.1040  0.0558
 3600TIP3    H132215   3.345   1.496  11.542 -0.6917  0.0219 -0.9752
 3600TIP3    H232216   3.240   1.449  11.641  1.6975 -0.2567  1.4740
 3601TIP3   OH232217   5.569   0.939  11.010  0.0754 -0.4766 -0.3575
 3601TIP3    H132218   5.512   1.013  11.032 -0.8179 -1.3696  0.3571
 3601TIP3    H232219   5.610   0.965  10.927  0.6739  1.3236  0.4885
 3602TIP3   OH232220   5.746   1.139   2.986 -0.3116 -0.4226  0.1062
 3602TIP3    H132221   5.700   1.081   2.925  2.8114 -2.0096 -0.8432
 3602TIP3    H232222   5.736   1.097   3.071 -0.3401 -0.9308 -0.1444
 3603TIP3   OH232223   1.559   1.097   3.044  0.1993 -0.0203 -0.2394
 3603TIP3    H132224   1.483   1.077   3.099 -0.9469  1.2221 -1.3499
 3603TIP3    H232225   1.610   1.160   3.095  0.2501 -0.5172  0.3205
 3604TIP3   OH232226   2.052   5.758   2.845 -0.4197 -0.4013 -0.1478
 3604TIP3    H132227   2.080   5.741   2.755 -2.0000 -0.7997 -0.5798
 3604TIP3    H232228   1.957   5.745   2.843 -0.7283  1.4062  1.1417
 3605TIP3   OH232229   2.814   1.721   6.585 -0.2271  0.3149  0.4207
 3605TIP3    H132230   2.766   1.761   6.513 -0.1162  0.7914  0.6106
 3605TIP3    H232231   2.854   1.643   6.547 -2.2127 -0.8246  0.5486
 3606TIP3   OH232232   4.174   3.815   3.568 -0.1053 -0.3450  0.3630
 3606TIP3    H132233   4.227   3.892   3.548  0.0748 -0.4376  0.4812
 3606TIP3    H232234   4.165   3.815   3.663  0.4007 -0.7977  0.4167
 3607TIP3   OH232235   0.310   1.887  13.753 -0.6438  0.4824 -0.0974
 3607TIP3    H132236   0.328   1.953  13.821 -0.4810  1.2281 -0.8481
 3607TIP3    H232237   0.234   1.922  13.706 -1.5032 -0.6280  0.4603
 3608TIP3   OH232238   1.501   4.366   1.288 -0.2352 -0.3595 -0.2202
 3608TIP3    H132239   1.578   4.357   1.345 -0.0078  3.1126  0.1442
 3608TIP3    H232240   1.534   4.350   1.200 -0.3307 -4.5455  0.4198
 3609TIP3   OH232241   3.677   5.216  14.102 -0.2905  0.0792 -0.0142
 3609TIP3    H132242   3.655   5.263  14.021  0.7303  0.3566 -0.1460
 3609TIP3    H232243   3.744   5.154  14.075 -1.0988 -0.9471  0.3106
 3610TIP3   OH232244   3.114   1.244  15.132  0.2858 -0.5197  0.6279
 3610TIP3    H132245   3.082   1.326  15.094  0.6327 -1.1464 -1.0862
 3610TIP3    H232246   3.082   1.245  15.222 -1.6025  0.4693 -0.0211
 3611TIP3   OH232247   5.066   3.525  11.043  0.1502 -0.0697 -0.3396
 3611TIP3    H132248   5.103   3.586  10.980  0.7190 -0.2152 -0.1498
 3611TIP3    H232249   5.102   3.440  11.018 -0.8132 -0.3709 -0.7433
 3612TIP3   OH232250   3.399   5.878  13.820 -0.5348  0.5873 -0.3513
 3612TIP3    H132251   3.454   5.898  13.895  0.5110  1.0508 -1.2363
 3612TIP3    H232252   3.339   5.811  13.852  0.7035 -0.1086  0.5488
 3613TIP3   OH232253   0.548   5.850   5.155  0.4933 -0.0042  0.2009
 3613TIP3    H132254   0.635   5.884   5.179  0.9986 -0.6144 -0.7222
 3613TIP3    H232255   0.500   5.927   5.124  0.7280  0.3270  0.6554
 3614TIP3   OH232256   4.756   4.673  13.931  0.3741 -0.2476 -0.6400
 3614TIP3    H132257   4.758   4.578  13.942  0.9266 -0.1619  0.0416
 3614TIP3    H232258   4.674   4.699  13.974 -0.2866 -0.5192 -1.7223
 3615TIP3   OH232259   0.285   1.569   6.032 -0.4988  0.4805  0.1764
 3615TIP3    H132260   0.380   1.563   6.030 -0.6531 -2.3805 -0.7179
 3615TIP3    H232261   0.258   1.509   6.102 -1.7608 -1.1191 -1.6182
 3616TIP3   OH232262   4.975   4.384  14.921  0.2350  0.5252  0.3960
 3616TIP3    H132263   4.962   4.340  14.837 -0.1239  0.9660  0.2165
 3616TIP3    H232264   5.011   4.316  14.978 -2.5566 -0.6846  0.8086
 3617TIP3   OH232265   3.117   5.591   4.192  0.0407  0.2209 -0.0472
 3617TIP3    H132266   3.128   5.623   4.281  1.1779  1.5917 -0.6627
 3617TIP3    H232267   3.206   5.574   4.161 -0.3619 -0.5657 -0.8180
 3618TIP3   OH232268   6.568   1.423   4.437 -0.2180  0.0709  0.3851
 3618TIP3    H132269   6.525   1.478   4.503  0.8928  1.3058  0.1030
 3618TIP3    H232270   6.511   1.429   4.360 -0.0691  0.8729  0.3376
 3619TIP3   OH232271   2.668   4.771  16.919 -0.1204  0.3847  0.1684
 3619TIP3    H132272   2.705   4.693  16.959 -1.6102  0.4753  1.8122
 3619TIP3    H232273   2.699   4.843  16.974 -1.5366  0.5969  0.7118
 3620TIP3   OH232274   3.407   1.772   1.661 -0.2276  0.1616  0.3137
 3620TIP3    H132275   3.489   1.794   1.615 -0.4250  0.4607  0.1033
 3620TIP3    H232276   3.350   1.848   1.645 -1.3318 -0.9893 -1.4140
 3621TIP3   OH232277   2.072   1.424  12.948  0.3862 -0.1205 -0.2889
 3621TIP3    H132278   2.098   1.512  12.919  0.7451  0.1143  0.7348
 3621TIP3    H232279   2.055   1.433  13.042  1.9051 -1.4743  0.1434
 3622TIP3   OH232280   1.424   0.785   0.059 -0.3668 -0.0926 -0.6107
 3622TIP3    H132281   1.485   0.825   0.121  1.0642 -0.6543 -1.6355
 3622TIP3    H232282   1.445   0.691   0.062 -0.4043 -0.1477 -1.7914
 3623TIP3   OH232283   6.216   2.317   6.546  0.0672  0.2083 -0.1216
 3623TIP3    H132284   6.146   2.381   6.535 -1.0073 -1.2753 -2.1295
 3623TIP3    H232285   6.196   2.248   6.483  2.7812 -0.7283 -0.0149
 3624TIP3   OH232286   4.215   2.476  10.579  0.0226  0.3174 -0.6064
 3624TIP3    H132287   4.148   2.438  10.637 -1.0384  1.9019 -0.7583
 3624TIP3    H232288   4.230   2.564  10.615  2.4554 -0.1992 -0.2440
 3625TIP3   OH232289   6.172   1.488  11.404 -0.4157 -0.4331  0.3025
 3625TIP3    H132290   6.164   1.582  11.387  0.4497 -0.4431 -0.1738
 3625TIP3    H232291   6.266   1.473  11.413 -0.4246 -1.5822 -1.4419
 3626TIP3   OH232292   2.069   5.554   2.122  0.6794  0.7838  0.0926
 3626TIP3    H132293   1.991   5.603   2.097  0.0061 -0.9610 -1.4064
 3626TIP3    H232294   2.142   5.613   2.105 -0.2267  1.8974  0.0515
 3627TIP3   OH232295   5.764   0.192   4.681  0.0623  0.5770  0.1007
 3627TIP3    H132296   5.687   0.135   4.675  0.0417  0.6708 -0.6261
 3627TIP3    H232297   5.829   0.141   4.729  1.1685 -1.3556 -3.2683
 3628TIP3   OH232298   3.716   3.660  13.948 -0.3677 -0.6650 -0.6114
 3628TIP3    H132299   3.668   3.702  13.876 -1.1162 -0.5634 -0.0608
 3628TIP3    H232300   3.733   3.731  14.010 -0.2063 -0.8588 -0.4347
 3629TIP3   OH232301   0.656   6.260   2.878  0.1443 -0.1241  0.2464
 3629TIP3    H132302   0.626   6.337   2.829 -1.2783 -0.9974 -0.2575
 3629TIP3    H232303   0.726   6.224   2.823 -1.1230 -0.8249 -0.9500
 3630TIP3   OH232304   0.239   0.427  11.727 -0.1521  0.3737  0.4753
 3630TIP3    H132305   0.152   0.449  11.694 -0.3547  1.7281  1.8556
 3630TIP3    H232306   0.262   0.499  11.786  1.7568 -0.1391  0.4145
 3631TIP3   OH232307   1.192   4.072   5.084 -0.2655  0.3863 -0.8360
 3631TIP3    H132308   1.160   4.081   4.994 -1.5445  0.2598 -0.3919
 3631TIP3    H232309   1.269   4.015   5.075 -0.5504  0.1381 -1.8205
 3632TIP3   OH232310   3.272   2.732   3.874 -0.0898 -0.6832 -0.3653
 3632TIP3    H132311   3.321   2.654   3.900 -1.2977 -0.9133  1.2427
 3632TIP3    H232312   3.198   2.736   3.934 -1.2268  0.5194 -1.7907
 3633TIP3   OH232313   3.430   3.563   3.673  0.4798 -0.3955  0.0927
 3633TIP3    H132314   3.444   3.656   3.688 -1.7192  0.3323 -2.0828
 3633TIP3    H232315   3.366   3.559   3.601 -0.4164 -3.5558  0.9753
 3634TIP3   OH232316   5.907   5.768  15.914 -0.2081 -0.2740  0.3137
 3634TIP3    H132317   5.997   5.742  15.897 -0.3415 -1.1080  0.8242
 3634TIP3    H232318   5.893   5.847  15.861  1.5264  1.1961  2.0074
 3635TIP3   OH232319   0.863   0.170  12.394 -0.0137 -0.1933 -0.3729
 3635TIP3    H132320   0.917   0.094  12.413 -1.7893 -1.2055  0.8201
 3635TIP3    H232321   0.773   0.137  12.395 -0.8441  1.9535  0.5203
 3636TIP3   OH232322   3.158   1.349   4.136 -0.3258  0.1556 -0.1373
 3636TIP3    H132323   3.116   1.388   4.060  1.2587  2.1814 -0.0103
 3636TIP3    H232324   3.248   1.331   4.108  0.3605  1.2125  1.3316
 3637TIP3   OH232325   2.646   1.057  17.114  0.0155 -0.1271 -0.4955
 3637TIP3    H132326   2.644   1.125  17.182 -0.8164  0.0713 -0.7134
 3637TIP3    H232327   2.703   1.093  17.046  0.6273 -0.2072 -0.0274
 3638TIP3   OH232328   4.426   6.517  14.671 -0.3088  0.2341  0.1162
 3638TIP3    H132329   4.448   6.544  14.760 -2.3366  3.8351 -0.4041
 3638TIP3    H232330   4.504   6.539  14.619  0.6838 -1.4215  0.8534
 3639TIP3   OH232331   0.014   6.004   6.132  0.3249  0.6809 -0.7233
 3639TIP3    H132332  -0.000   6.095   6.105 -0.4914  0.6268 -0.4903
 3639TIP3    H232333  -0.074   5.971   6.153  0.7451  0.1833  0.2825
 3640TIP3   OH232334   0.803   0.089   1.951  0.5378  0.5168  0.0547
 3640TIP3    H132335   0.751   0.089   1.871 -0.2264 -1.4495  0.5117
 3640TIP3    H232336   0.875   0.149   1.933 -0.0544  0.7080 -1.8092
 3641TIP3   OH232337   3.012   6.695  12.879  0.0685  0.4053  0.6368
 3641TIP3    H132338   3.095   6.649  12.887  0.5561  1.5344  2.3546
 3641TIP3    H232339   2.952   6.646  12.935  0.4165  1.4220  1.9304
 3642TIP3   OH232340   4.484   3.956   1.599 -0.0803  0.1735 -0.4654
 3642TIP3    H132341   4.462   3.959   1.692  0.4684  2.2358 -0.3702
 3642TIP3    H232342   4.461   3.868   1.572 -2.4230  0.2547  1.0851
 3643TIP3   OH232343   1.638   1.592   4.774 -0.1588 -0.2939 -0.4540
 3643TIP3    H132344   1.551   1.560   4.749 -0.3912 -0.1189  0.1420
 3643TIP3    H232345   1.626   1.631   4.860  0.3975  0.2238 -0.6055
 3644TIP3   OH232346   4.826   2.840   4.836  0.3811  0.5913  0.1845
 3644TIP3    H132347   4.822   2.810   4.745 -1.3674  1.3951 -0.0325
 3644TIP3    H232348   4.898   2.903   4.836  2.2859 -1.5364  0.0384
 3645TIP3   OH232349   4.735   0.842  13.764  0.1071  0.1359 -0.5215
 3645TIP3    H132350   4.778   0.883  13.839 -0.8439 -0.3255  0.2935
 3645TIP3    H232351   4.719   0.913  13.703  0.5740  0.5712 -0.1409
 3646TIP3   OH232352   3.471   4.031  16.054 -0.2494  0.3630 -0.1338
 3646TIP3    H132353   3.559   3.998  16.072  0.3767  2.9952  2.0953
 3646TIP3    H232354   3.486   4.112  16.006 -1.5621 -0.1704 -1.4613
 3647TIP3   OH232355   2.273   0.413  13.834  0.2024  0.2760 -0.0901
 3647TIP3    H132356   2.223   0.332  13.847 -0.7364  1.4070  4.1872
 3647TIP3    H232357   2.345   0.406  13.897 -0.0113  2.8198  0.4682
 3648TIP3   OH232358   2.811   3.012   5.126  0.1703  0.4924 -0.1618
 3648TIP3    H132359   2.868   3.038   5.199 -0.6644  1.4183  0.1831
 3648TIP3    H232360   2.805   2.917   5.132  0.0485  0.5733  1.0207
 3649TIP3   OH232361   0.834   4.310   5.827  0.1463 -0.3115 -0.3293
 3649TIP3    H132362   0.859   4.396   5.861  1.0681 -2.2157  4.0763
 3649TIP3    H232363   0.754   4.288   5.874 -0.2842 -1.7201 -1.6964
 3650TIP3   OH232364   0.163   0.621  15.990  0.0669  0.3831  0.2403
 3650TIP3    H132365   0.165   0.539  16.040 -0.7566  0.8478  1.0570
 3650TIP3    H232366   0.134   0.596  15.903 -0.6107 -0.1387  0.6075
 3651TIP3   OH232367   1.192   5.660   1.490  0.2630 -0.4382  0.5647
 3651TIP3    H132368   1.280   5.696   1.505 -0.5303  1.8908 -0.0776
 3651TIP3    H232369   1.133   5.735   1.505 -1.6957 -2.2058  1.9931
 3652TIP3   OH232370   4.802   3.377  13.716 -0.4846  0.2204 -0.0484
 3652TIP3    H132371   4.809   3.422  13.800 -0.5055 -1.6688  0.9860
 3652TIP3    H232372   4.850   3.433  13.655  0.1823  1.2261  1.3686
 3653TIP3   OH232373   4.283   0.070   5.430 -0.2169 -0.0701  0.2419
 3653TIP3    H132374   4.208   0.055   5.373 -0.1849 -0.4180  0.2872
 3653TIP3    H232375   4.336   0.135   5.384 -1.5125  1.6333  1.1109
 3654TIP3   OH232376   5.428   0.109  13.556 -0.2351 -0.0791  0.2422
 3654TIP3    H132377   5.370   0.036  13.578 -0.9879  0.8940  1.5413
 3654TIP3    H232378   5.515   0.071  13.553 -0.4456 -0.7853  2.2795
 3655TIP3   OH232379   0.003   0.280   2.102  0.8632 -0.2053 -0.1770
 3655TIP3    H132380  -0.028   0.274   2.192 -2.1036  1.2983 -1.0367
 3655TIP3    H232381   0.010   0.190   2.073  0.6497 -0.6668  1.1610
 3656TIP3   OH232382   6.081   5.079  15.488 -0.1752 -0.3144 -0.1638
 3656TIP3    H132383   6.131   5.152  15.525  0.5017 -1.0255  0.3492
 3656TIP3    H232384   6.073   5.101  15.395  0.8066 -0.0224 -0.1904
 3657TIP3   OH232385   6.014   5.482  12.891  0.5267  0.0611 -0.0903
 3657TIP3    H132386   5.977   5.509  12.807 -0.5620 -2.0699 -0.3261
 3657TIP3    H232387   6.000   5.558  12.949 -0.6760  0.7243 -1.2313
 3658TIP3   OH232388   1.757   2.775  15.634  0.5531  0.1069 -0.0775
 3658TIP3    H132389   1.832   2.715  15.634  0.2199 -0.3087  0.2984
 3658TIP3    H232390   1.719   2.766  15.721 -0.3612 -0.2083 -0.5074
 3659TIP3   OH232391   2.239   1.468   5.391  0.8122 -0.0385  0.7508
 3659TIP3    H132392   2.329   1.482   5.362  0.1511  2.0297 -0.4231
 3659TIP3    H232393   2.194   1.549   5.368 -1.4574 -1.2124  0.9348
 3660TIP3   OH232394   3.947   0.785  12.292 -0.0933 -0.4584  0.1192
 3660TIP3    H132395   4.021   0.746  12.245 -0.2250 -3.6305  2.4247
 3660TIP3    H232396   3.921   0.859  12.237  1.3553 -2.4929 -3.4950
 3661TIP3   OH232397   6.534   0.466  11.946 -0.3736  0.2007 -0.2423
 3661TIP3    H132398   6.457   0.512  11.912  1.9862  1.2884 -4.4115
 3661TIP3    H232399   6.604   0.531  11.944  1.8050 -2.0979 -1.2986
 3662TIP3   OH232400   4.999   2.577  11.519  0.3355 -0.0706  0.3090
 3662TIP3    H132401   4.913   2.539  11.500  0.5499 -1.0026  1.2091
 3662TIP3    H232402   5.018   2.550  11.608  0.9776  1.2491  0.5766
 3663TIP3   OH232403   5.592   3.390   4.999 -0.5921  0.1748  0.2983
 3663TIP3    H132404   5.498   3.402   5.012 -0.5566  1.3929 -0.4861
 3663TIP3    H232405   5.605   3.296   5.005 -1.2853  0.2312  4.2771
 3664TIP3   OH232406   5.932   1.860   1.333 -0.0087 -0.4631 -0.4499
 3664TIP3    H132407   5.916   1.783   1.278  0.2951 -0.1450 -0.9871
 3664TIP3    H232408   6.015   1.896   1.300 -0.2320  0.1838 -0.3112
 3665TIP3   OH232409   2.067   0.684  13.203  0.0266 -0.7048  0.1553
 3665TIP3    H132410   2.054   0.778  13.207  1.1957 -0.5589  0.4999
 3665TIP3    H232411   1.986   0.650  13.164  0.3283  0.6087 -1.6698
 3666TIP3   OH232412   1.038   1.273  11.405 -0.5373 -0.5063 -0.6280
 3666TIP3    H132413   1.065   1.361  11.380 -0.8057 -0.7364 -1.7472
 3666TIP3    H232414   0.949   1.283  11.438 -0.0133 -0.1305  0.6751
 3667TIP3   OH232415   2.920   5.143  12.420  0.8261  0.0121 -0.4936
 3667TIP3    H132416   2.942   5.162  12.329 -0.7901  0.2822 -0.8392
 3667TIP3    H232417   2.847   5.081  12.415  0.1386  0.7032  0.6033
 3668TIP3   OH232418   3.590   0.097   4.450 -0.2929  0.0437 -0.2785
 3668TIP3    H132419   3.671   0.080   4.402 -0.7871  0.2474 -1.1944
 3668TIP3    H232420   3.556   0.178   4.412 -1.3815 -0.5085 -0.4962
 3669TIP3   OH232421   6.325   0.636  12.861 -0.0120 -0.0996  0.5582
 3669TIP3    H132422   6.326   0.702  12.790 -0.5007 -0.7861 -0.0965
 3669TIP3    H232423   6.391   0.572  12.835  0.3843  0.0749  1.1408
 3670TIP3   OH232424   4.419   3.865   2.913 -0.6326 -0.4575  0.0700
 3670TIP3    H132425   4.482   3.907   2.972 -1.6371  0.3318  0.5883
 3670TIP3    H232426   4.396   3.933   2.850 -1.7067 -0.4262  0.4748
 3671TIP3   OH232427   5.468   0.691   6.581  0.7209 -0.3741  0.5174
 3671TIP3    H132428   5.407   0.616   6.586  0.6559 -0.3331  0.3595
 3671TIP3    H232429   5.438   0.740   6.504  0.2395  0.2759  1.1056
 3672TIP3   OH232430   1.561   4.610  13.769 -0.8767  0.1551 -0.0973
 3672TIP3    H132431   1.495   4.622  13.702  0.2938  1.0422 -1.1223
 3672TIP3    H232432   1.612   4.535  13.740 -0.3132  0.5949 -0.2532
 3673TIP3   OH232433   6.754   2.536  14.747  0.3917  0.2062 -0.1854
 3673TIP3    H132434   6.683   2.574  14.797  0.2702 -1.0299  0.6248
 3673TIP3    H232435   6.757   2.586  14.666 -0.8359  0.8158  0.1406
 3674TIP3   OH232436   0.552   5.698  10.874  0.0815 -0.1568 -0.2949
 3674TIP3    H132437   0.551   5.614  10.918 -0.4832  0.4688  0.9155
 3674TIP3    H232438   0.466   5.704  10.832 -0.3336  0.3196  0.6093
 3675TIP3   OH232439   2.675   6.243  10.413 -0.3030 -0.3433 -1.0645
 3675TIP3    H132440   2.754   6.190  10.422 -1.5581 -1.9203  1.0177
 3675TIP3    H232441   2.614   6.187  10.365 -1.5906 -0.7508  1.0183
 3676TIP3   OH232442   2.766   6.733   4.051  0.4413 -0.2812 -0.3849
 3676TIP3    H132443   2.780   6.818   4.094  1.9065  0.1716 -1.6922
 3676TIP3    H232444   2.850   6.713   4.010  0.1164 -2.4254 -0.0137
 3677TIP3   OH232445   5.781   6.090  16.059 -0.4033  0.1123  0.3636
 3677TIP3    H132446   5.721   6.142  16.005  1.6430  0.8665 -1.2430
 3677TIP3    H232447   5.771   6.001  16.026 -1.3741  0.0615  0.7805
 3678TIP3   OH232448   1.219   5.413  13.041  0.3331  0.6680  0.3050
 3678TIP3    H132449   1.219   5.505  13.014 -1.6694  0.6725  0.2796
 3678TIP3    H232450   1.137   5.401  13.088 -0.7595 -1.7717 -2.0781
 3679TIP3   OH232451   5.359   0.140  17.194 -0.2575  0.0242 -0.1349
 3679TIP3    H132452   5.283   0.110  17.243  1.6316 -1.3682  2.0570
 3679TIP3    H232453   5.394   0.212  17.247 -0.9157  1.7212 -1.9394
 3680TIP3   OH232454   0.944   4.983   4.555  0.6196 -0.6078 -0.0468
 3680TIP3    H132455   1.018   4.997   4.614 -1.0091  2.7831  1.3741
 3680TIP3    H232456   0.869   4.974   4.614 -0.2216 -3.3167 -1.4807
 3681TIP3   OH232457   1.312   3.374  11.712  0.4386  0.2076  0.0288
 3681TIP3    H132458   1.233   3.320  11.710  0.4987  0.0905  0.6689
 3681TIP3    H232459   1.382   3.314  11.687  0.4667  0.0497  0.4746
 3682TIP3   OH232460   0.326   4.052  13.416  0.6215 -0.1709 -0.5571
 3682TIP3    H132461   0.367   3.981  13.367  0.9388  0.1027 -0.6904
 3682TIP3    H232462   0.337   4.027  13.508 -0.8159 -1.1450 -0.6476
 3683TIP3   OH232463   0.535   0.310   2.171  0.2060  0.2138  0.4008
 3683TIP3    H132464   0.540   0.293   2.265 -2.1300  1.4384  0.7847
 3683TIP3    H232465   0.539   0.224   2.130  0.0816 -0.4060  1.6774
 3684TIP3   OH232466   0.269   2.968   5.231 -0.4837 -0.3381 -0.2185
 3684TIP3    H132467   0.344   2.986   5.175 -0.6781 -1.0536 -0.7260
 3684TIP3    H232468   0.288   3.014   5.313  1.5394 -2.2479  0.4465
 3685TIP3   OH232469   4.170   2.912   4.683 -0.2332  0.3785 -0.3687
 3685TIP3    H132470   4.199   3.003   4.680  0.6733  0.2098  2.2304
 3685TIP3    H232471   4.251   2.862   4.697 -0.8271 -0.7526 -0.9396
 3686TIP3   OH232472   6.291   4.827  11.090  0.1915  0.2987 -0.8378
 3686TIP3    H132473   6.289   4.732  11.099 -1.3342  0.1542 -2.4322
 3686TIP3    H232474   6.367   4.845  11.035  0.6124  0.0287 -0.3504
 3687TIP3   OH232475   0.721   6.655   2.256 -0.2260  0.6599 -0.4738
 3687TIP3    H132476   0.725   6.569   2.299  1.0214  0.5672 -0.7320
 3687TIP3    H232477   0.813   6.678   2.241 -0.5512  2.0122 -0.4734
 3688TIP3   OH232478   4.536   2.416   0.911  0.1815  0.2469  0.1991
 3688TIP3    H132479   4.522   2.445   0.821 -1.1260 -3.1314 -0.7711
 3688TIP3    H232480   4.450   2.423   0.952  0.2240 -0.5638  0.4378
 3689TIP3   OH232481   4.372   2.966  11.467  0.3143  0.0840  0.0616
 3689TIP3    H132482   4.329   3.049  11.449 -0.4812 -0.5712 -1.1616
 3689TIP3    H232483   4.461   2.989  11.491 -0.1128  1.3293  0.4598
 3690TIP3   OH232484   2.367   0.504  16.941 -0.0929  0.1636 -0.3685
 3690TIP3    H132485   2.446   0.451  16.930  0.1017  0.7617 -1.9505
 3690TIP3    H232486   2.398   0.594  16.939 -0.5702  0.3884  1.1550
 3691TIP3   OH232487   6.642   4.436   3.155  0.0352  0.1550  0.7068
 3691TIP3    H132488   6.719   4.490   3.173  0.0947  0.0636  0.7261
 3691TIP3    H232489   6.635   4.379   3.231  1.0748 -1.1466 -0.1563
 3692TIP3   OH232490   1.175   0.430  13.181 -0.1944  0.3606 -0.3312
 3692TIP3    H132491   1.220   0.478  13.111 -0.1987 -2.1680 -2.1012
 3692TIP3    H232492   1.199   0.477  13.260  0.2559  2.9691 -1.9456
 3693TIP3   OH232493   6.620   5.062  12.693  0.0881 -0.2980  0.2632
 3693TIP3    H132494   6.564   5.089  12.765 -0.4659  0.4251 -0.4393
 3693TIP3    H232495   6.705   5.102  12.713  0.8199 -2.5933  2.0957
 3694TIP3   OH232496   3.909   4.145  11.215  0.3382  0.1796 -0.1724
 3694TIP3    H132497   3.846   4.128  11.145 -0.1501 -1.0944  0.5441
 3694TIP3    H232498   3.922   4.239  11.214 -0.0327  0.2255 -1.6558
 3695TIP3   OH232499   0.528   2.876  11.778 -0.7150 -0.9590  0.3799
 3695TIP3    H132500   0.555   2.913  11.693 -1.3598 -0.1598  0.5196
 3695TIP3    H232501   0.491   2.950  11.826  0.4041 -1.2285  1.6884
 3696TIP3   OH232502   1.898   5.615  13.607  0.2488  0.2044 -0.0022
 3696TIP3    H132503   1.945   5.697  13.595  0.3475  0.0484 -0.7266
 3696TIP3    H232504   1.966   5.550  13.624  0.4006 -0.2159 -2.0934
 3697TIP3   OH232505   4.559   1.308   2.559 -0.3399  0.0720 -0.1338
 3697TIP3    H132506   4.474   1.336   2.594 -1.2401 -1.5552 -0.9274
 3697TIP3    H232507   4.581   1.374   2.493  0.1370  1.7492  1.6553
 3698TIP3   OH232508   1.731   3.405   5.352 -0.5144 -0.3401  0.0650
 3698TIP3    H132509   1.714   3.428   5.261  1.8305 -0.6518 -0.4990
 3698TIP3    H232510   1.661   3.344   5.376 -1.3185 -0.0063 -1.4233
 3699TIP3   OH232511   0.602   1.055  12.494 -0.0725  0.3821 -0.4658
 3699TIP3    H132512   0.651   1.050  12.575  1.3448  0.4940 -1.2995
 3699TIP3    H232513   0.668   1.050  12.425 -1.1922  0.8670 -1.6085
 3700TIP3   OH232514   3.310   2.635   0.090  0.5596  0.6874 -0.0788
 3700TIP3    H132515   3.307   2.663  -0.002  0.5616 -2.5745 -1.1646
 3700TIP3    H232516   3.403   2.633   0.111  0.6861 -0.3999 -0.6677
 3701TIP3   OH232517   1.987   5.991  15.763 -0.0506 -0.6042  0.3395
 3701TIP3    H132518   1.992   5.972  15.669  1.7625 -3.4569  0.9664
 3701TIP3    H232519   1.923   5.928  15.797  0.3244 -0.4970  1.2530
 3702TIP3   OH232520   2.320   1.444   0.616 -0.6688 -0.0698  0.5692
 3702TIP3    H132521   2.244   1.463   0.671 -1.1776 -1.8412  0.4918
 3702TIP3    H232522   2.283   1.418   0.532  0.0393 -0.3914  0.3489
 3703TIP3   OH232523   2.969   4.816  15.407 -0.1257 -0.0756 -0.5043
 3703TIP3    H132524   3.023   4.857  15.340 -0.9396 -0.2213 -1.2534
 3703TIP3    H232525   2.885   4.862  15.402 -0.0387  0.2569  0.7579
 3704TIP3   OH232526   6.680   6.450  15.453  0.4756  0.5048  0.6466
 3704TIP3    H132527   6.770   6.419  15.447  0.6217  1.2711 -1.4858
 3704TIP3    H232528   6.669   6.508  15.378 -1.9010  0.1349  0.6514
 3705TIP3   OH232529   0.747   3.534  15.007 -0.0241  0.3214  0.0276
 3705TIP3    H132530   0.713   3.619  14.979  1.2599  1.2314  1.1908
 3705TIP3    H232531   0.720   3.473  14.938 -2.3500  1.3642 -0.0155
 3706TIP3   OH232532   5.875   4.466   0.422 -0.0970 -0.4055 -0.1207
 3706TIP3    H132533   5.823   4.543   0.441  1.1823  0.2112  1.0001
 3706TIP3    H232534   5.890   4.469   0.328 -0.2952  0.5649 -0.1211
 3707TIP3   OH232535   3.225   1.640  11.017  0.7269 -0.2871 -0.1871
 3707TIP3    H132536   3.159   1.691  10.971 -0.5970 -1.7645  0.0160
 3707TIP3    H232537   3.300   1.639  10.958  0.2053  0.5580 -0.8759
 3708TIP3   OH232538   1.032   4.401  12.627  0.1219  0.4786 -0.4204
 3708TIP3    H132539   1.019   4.495  12.623  4.0292  1.1363  0.4939
 3708TIP3    H232540   1.115   4.386  12.581 -1.5552 -2.8225 -2.5727
 3709TIP3   OH232541   2.210   4.621  14.194 -0.2339  0.6500  0.2057
 3709TIP3    H132542   2.150   4.634  14.120  0.6470  1.9200 -0.3202
 3709TIP3    H232543   2.201   4.701  14.245  0.7893  0.7321  0.2707
 3710TIP3   OH232544   2.534   1.243  15.375 -0.0243  0.1385 -0.3375
 3710TIP3    H132545   2.516   1.299  15.451 -0.6178  0.9777 -1.0868
 3710TIP3    H232546   2.463   1.179  15.375 -0.5566  0.7312 -0.7445
 3711TIP3   OH232547   5.549   0.141   2.160 -0.2603 -0.5138 -0.5495
 3711TIP3    H132548   5.540   0.230   2.196 -1.5568 -0.4586 -0.9698
 3711TIP3    H232549   5.638   0.114   2.184  0.2701  1.0339 -0.7394
 3712TIP3   OH232550   6.124   3.456  14.404 -0.5131  0.2717  0.7611
 3712TIP3    H132551   6.217   3.475  14.418  0.3954 -4.1634  1.3981
 3712TIP3    H232552   6.106   3.491  14.316  1.5904  1.6128  0.8244
 3713TIP3   OH232553   1.061   0.647  15.552 -0.1991 -0.6754 -0.0592
 3713TIP3    H132554   1.026   0.564  15.585  2.8375 -1.8319  0.4167
 3713TIP3    H232555   1.021   0.658  15.466 -1.9977 -1.7208  0.6274
 3714TIP3   OH232556   3.454   1.374   0.864 -0.0775 -1.0133  0.5534
 3714TIP3    H132557   3.489   1.413   0.944 -0.3829  4.4464 -1.7553
 3714TIP3    H232558   3.531   1.345   0.815  0.5081  0.7475  0.4070
 3715TIP3   OH232559   0.713   6.465  11.761  0.3089 -0.6946  0.4079
 3715TIP3    H132560   0.685   6.450  11.670 -0.3642 -3.6630  1.0660
 3715TIP3    H232561   0.801   6.429  11.765  1.5092  2.0467  0.2534
 3716TIP3   OH232562   0.374   2.895   4.092  0.2019  0.5109  0.0009
 3716TIP3    H132563   0.374   2.949   4.013 -2.4467  0.7637  0.1557
 3716TIP3    H232564   0.307   2.932   4.148  1.0746 -0.5369  1.8077
 3717TIP3   OH232565   4.001   3.203   2.013 -0.1881 -0.3976 -0.0923
 3717TIP3    H132566   4.019   3.285   1.968  0.9698 -0.3176  0.4985
 3717TIP3    H232567   4.044   3.136   1.959  0.9362 -0.3361  0.7068
 3718TIP3   OH232568   1.101   5.564   3.257  0.1016  0.1584 -0.2469
 3718TIP3    H132569   1.186   5.529   3.233 -0.2445 -0.7357 -0.1882
 3718TIP3    H232570   1.070   5.608   3.177 -0.1859 -1.1216 -0.8566
 3719TIP3   OH232571   3.018   1.123   3.793  0.6265  0.4630 -0.0067
 3719TIP3    H132572   3.047   1.197   3.739  1.5222 -0.2610 -0.5274
 3719TIP3    H232573   3.091   1.105   3.852 -0.1015  0.8348  1.0218
 3720TIP3   OH232574   2.364   3.683  13.516 -0.1599 -0.4770  0.0349
 3720TIP3    H132575   2.374   3.768  13.472  1.4028 -0.9181 -0.4978
 3720TIP3    H232576   2.386   3.619  13.448  1.3498 -1.2027  1.1970
 3721TIP3   OH232577   2.443   2.591   0.312  0.2327  0.9194  0.4434
 3721TIP3    H132578   2.456   2.630   0.226 -0.8671  2.0699  0.7890
 3721TIP3    H232579   2.376   2.524   0.298 -1.3606  2.4162  0.7548
 3722TIP3   OH232580   6.190   3.059   1.685 -0.0549  0.1729  0.6799
 3722TIP3    H132581   6.116   3.006   1.656 -0.1419  0.8794 -0.3986
 3722TIP3    H232582   6.160   3.099   1.766 -0.7794  0.3039  0.3474
 3723TIP3   OH232583   3.560   0.981   5.300 -0.7126  0.3249  0.1899
 3723TIP3    H132584   3.521   1.067   5.314 -2.8976 -0.5358 -0.4723
 3723TIP3    H232585   3.650   1.001   5.273 -0.0319  2.2590  3.6568
 3724TIP3   OH232586   1.914   3.170  13.347 -0.0161 -0.1269  0.4550
 3724TIP3    H132587   1.835   3.154  13.296  1.0110 -0.6572 -1.0335
 3724TIP3    H232588   1.946   3.254  13.315  1.1623 -0.9198 -0.5281
 3725TIP3   OH232589   3.678   6.200   2.711  0.4873 -0.0311 -0.0150
 3725TIP3    H132590   3.632   6.276   2.747 -1.3315 -0.2588 -1.8309
 3725TIP3    H232591   3.643   6.190   2.623  0.9170 -2.8186  0.1048
 3726TIP3   OH232592   1.076   1.292  13.078  0.5875  0.0220  0.1606
 3726TIP3    H132593   0.987   1.302  13.113 -1.0034 -1.7923 -3.1227
 3726TIP3    H232594   1.112   1.218  13.126 -0.2619 -0.2222  0.4311
 3727TIP3   OH232595   3.836   3.904  14.010 -0.3300  0.5422  0.2537
 3727TIP3    H132596   3.929   3.902  13.989 -0.0995  0.7371  1.2298
 3727TIP3    H232597   3.818   3.996  14.031 -0.9394  0.6680 -0.7564
 3728TIP3   OH232598   2.121   6.599   5.215 -0.4048  0.2544 -0.3761
 3728TIP3    H132599   2.104   6.613   5.308  1.1419  0.6227 -0.1403
 3728TIP3    H232600   2.187   6.664   5.192  2.1511 -2.3716 -0.8064
 3729TIP3   OH232601   4.723   2.969  15.237  0.5199  0.1835  0.0494
 3729TIP3    H132602   4.739   3.060  15.263  1.6862  0.0549 -0.1658
 3729TIP3    H232603   4.705   2.974  15.143  0.3010  0.2309  0.0951
 3730TIP3   OH232604   3.095   6.124  12.872  0.0446 -0.3742 -0.2736
 3730TIP3    H132605   3.117   6.031  12.865 -1.9492 -0.7227 -2.6517
 3730TIP3    H232606   3.018   6.126  12.928  0.2042 -0.1296 -0.0610
 3731TIP3   OH232607   5.480   3.541  11.401  0.4292  0.1771  0.2575
 3731TIP3    H132608   5.528   3.618  11.431  1.9580 -0.8364  0.4548
 3731TIP3    H232609   5.425   3.574  11.329 -0.4026  1.8310  1.5944
 3732TIP3   OH232610   5.031   5.265  16.167  0.1512  0.1202 -0.5204
 3732TIP3    H132611   4.988   5.190  16.208 -1.6297  1.5646  0.3356
 3732TIP3    H232612   5.021   5.250  16.073  0.8338 -1.2729 -0.3820
 3733TIP3   OH232613   2.512   1.434  11.319 -0.3981 -0.4323 -0.4810
 3733TIP3    H132614   2.422   1.402  11.309 -0.5345 -0.5707  1.0553
 3733TIP3    H232615   2.566   1.355  11.317 -0.3027 -0.3490 -1.4081
 3734TIP3   OH232616   1.366   1.389   6.003 -0.0006 -0.7215 -0.5454
 3734TIP3    H132617   1.280   1.352   6.023 -0.4010 -0.2307 -1.3300
 3734TIP3    H232618   1.424   1.350   6.068 -1.1646  0.4056  1.2235
 3735TIP3   OH232619   6.115   5.862   4.779 -0.2863  0.6620  0.0535
 3735TIP3    H132620   6.192   5.917   4.786  2.1827 -2.5951 -0.0898
 3735TIP3    H232621   6.113   5.812   4.861 -1.0864 -0.6795 -0.7515
 3736TIP3   OH232622   0.293   6.182  12.962  0.9706  0.1968 -0.5662
 3736TIP3    H132623   0.318   6.272  12.938  0.7950  0.8964  1.7153
 3736TIP3    H232624   0.372   6.145  13.002 -0.0177  0.6346  1.8889
 3737TIP3   OH232625   2.465   1.398  13.881  0.1694  0.2919  0.1628
 3737TIP3    H132626   2.523   1.365  13.949  1.2982  0.7366 -0.5747
 3737TIP3    H232627   2.408   1.460  13.926  1.5063  1.2615  0.5440
 3738TIP3   OH232628   3.699   3.599   5.706  0.1360 -0.3588 -0.1033
 3738TIP3    H132629   3.729   3.633   5.790  1.9935 -1.6217 -0.2241
 3738TIP3    H232630   3.654   3.517   5.727  0.3288 -0.5187 -0.3153
 3739TIP3   OH232631   0.015   1.456  11.948 -0.4723  0.6431 -0.7896
 3739TIP3    H132632   0.005   1.545  11.914  1.2815  0.9835 -0.4647
 3739TIP3    H232633   0.098   1.425  11.911  0.6323  0.3932  1.7473
 3740TIP3   OH232634   4.673   1.999  16.512 -0.4062 -0.1868  0.4399
 3740TIP3    H132635   4.721   2.060  16.569  0.8193 -1.4966  0.8426
 3740TIP3    H232636   4.616   1.951  16.572  0.4184 -1.1214  0.4927
 3741TIP3   OH232637   2.045   1.276  13.590  0.6429 -0.6085  0.5633
 3741TIP3    H132638   2.081   1.244  13.673 -1.9530 -0.9328  1.6195
 3741TIP3    H232639   1.956   1.302  13.612  0.3760  0.6409 -1.8527
 3742TIP3   OH232640   4.774   2.908  13.774 -0.2051 -0.5028 -0.0361
 3742TIP3    H132641   4.821   2.828  13.750  0.4201  0.1451 -1.0417
 3742TIP3    H232642   4.772   2.959  13.693 -1.9647 -0.1734  0.2102
 3743TIP3   OH232643   5.783   0.117  17.129  0.8180  0.3946  0.2172
 3743TIP3    H132644   5.732   0.154  17.057  0.6994  0.6764  0.4451
 3743TIP3    H232645   5.874   0.140  17.108  0.8787 -0.3047 -0.3050
 3744TIP3   OH232646   5.993   5.891   5.947  0.2874  0.0734 -0.2741
 3744TIP3    H132647   6.021   5.983   5.940 -1.2225  0.8627  2.7423
 3744TIP3    H232648   6.056   5.852   6.007 -0.8737 -0.0088  0.9123
 3745TIP3   OH232649   4.114   0.884  11.575 -0.0148 -0.2857  0.1153
 3745TIP3    H132650   4.043   0.938  11.540 -0.2799 -1.2018 -0.8250
 3745TIP3    H232651   4.190   0.942  11.577  0.5983 -0.7730 -4.2589
 3746TIP3   OH232652   6.420   1.767  16.786 -0.6556  0.3599 -0.4611
 3746TIP3    H132653   6.512   1.746  16.806 -1.1088 -1.9100 -0.5576
 3746TIP3    H232654   6.425   1.825  16.710  0.7243  0.5257 -0.2607
 3747TIP3   OH232655   6.179   3.005   5.287  0.2430  0.4728  0.7397
 3747TIP3    H132656   6.169   3.001   5.382  2.1135 -1.4627  0.9047
 3747TIP3    H232657   6.248   2.941   5.267  0.5144  1.4727 -1.8261
 3748TIP3   OH232658   2.575   6.159  13.098  0.2906 -0.3225  0.0459
 3748TIP3    H132659   2.587   6.069  13.131  2.4201 -0.2219 -0.3890
 3748TIP3    H232660   2.596   6.153  13.005  0.4579  0.6340  0.0180
 3749TIP3   OH232661   2.747   6.770  13.277  0.2429 -0.1125  0.4410
 3749TIP3    H132662   2.690   6.845  13.294  1.9174  1.4111 -0.5756
 3749TIP3    H232663   2.694   6.710  13.225 -1.2045  0.2014  1.5182
 3750TIP3   OH232664   1.335   5.179   4.720  0.3590 -0.2938  0.2660
 3750TIP3    H132665   1.343   5.085   4.701  1.0726 -0.4670  1.3565
 3750TIP3    H232666   1.360   5.187   4.812  1.1357  1.0818 -0.0494
 3751TIP3   OH232667   0.949   2.116   1.544  0.3427 -0.1041  0.0570
 3751TIP3    H132668   1.017   2.050   1.558  1.1315  0.8317  0.7645
 3751TIP3    H232669   0.868   2.067   1.537  0.7957 -1.0966  1.5385
 3752TIP3   OH232670   1.257   4.094   0.159 -0.2186 -0.4339  0.6376
 3752TIP3    H132671   1.262   4.130   0.071 -1.0344 -0.5287  0.5435
 3752TIP3    H232672   1.331   4.033   0.165  0.0277 -0.1814  0.1332
 3753TIP3   OH232673   1.430   1.809   0.783 -0.0052  0.2695 -0.5879
 3753TIP3    H132674   1.347   1.855   0.788  0.9772  2.0680 -0.2192
 3753TIP3    H232675   1.460   1.803   0.874  1.0284  1.1246 -0.8512
 3754TIP3   OH232676   1.452   0.870  12.144  0.0570  0.1973 -0.1256
 3754TIP3    H132677   1.398   0.819  12.083  0.3528 -1.8752  1.2933
 3754TIP3    H232678   1.394   0.940  12.174 -1.1358 -0.6659 -0.3515
 3755TIP3   OH232679   5.898   6.658  12.048 -0.4451 -0.1704 -0.0782
 3755TIP3    H132680   5.962   6.591  12.024 -0.4922 -0.6430  1.1221
 3755TIP3    H232681   5.840   6.662  11.972  0.4528 -0.3891 -0.7988
 3756TIP3   OH232682   2.553   2.699   6.123 -0.5997 -0.7176 -0.3346
 3756TIP3    H132683   2.533   2.605   6.116  1.5199 -1.3877  1.5631
 3756TIP3    H232684   2.508   2.727   6.203  0.2500 -0.5881  0.1111
 3757TIP3   OH232685   1.407   6.031   0.294  0.0332  0.4671  0.0740
 3757TIP3    H132686   1.421   6.109   0.240  0.3405  1.3919  1.4673
 3757TIP3    H232687   1.320   6.001   0.269 -0.3741  1.6555 -0.0033
 3758TIP3   OH232688   1.255   6.409  11.479 -0.0930 -0.4981 -0.4109
 3758TIP3    H132689   1.230   6.466  11.552  0.0867 -0.6805 -0.2036
 3758TIP3    H232690   1.179   6.407  11.422 -0.1683 -0.2031 -0.3201
 3759TIP3   OH232691   0.490   1.458  14.301  0.2602 -0.3167 -0.2639
 3759TIP3    H132692   0.424   1.516  14.263  1.3801  0.7486 -0.6243
 3759TIP3    H232693   0.543   1.430  14.227  0.3501 -0.9976  0.0533
 3760TIP3   OH232694   4.552   4.499  16.601  0.6116 -0.2922  0.9820
 3760TIP3    H132695   4.543   4.586  16.561 -0.6949 -0.6832  0.4130
 3760TIP3    H232696   4.642   4.473  16.581  1.0918  1.0384  1.3708
 3761TIP3   OH232697   0.731   5.509   4.069  0.0894 -0.4156  0.0610
 3761TIP3    H132698   0.703   5.445   4.003 -1.0895 -2.7282  2.6907
 3761TIP3    H232699   0.798   5.463   4.119 -0.3820  0.6087  1.6354
 3762TIP3   OH232700   5.319   5.309  15.709  0.3580 -0.4621 -0.0048
 3762TIP3    H132701   5.345   5.253  15.782 -0.2683 -0.7642 -0.0120
 3762TIP3    H232702   5.305   5.249  15.636  0.6264 -0.1968 -0.2767
 3763TIP3   OH232703   5.652   1.921   3.733  0.0034 -0.6534  0.1243
 3763TIP3    H132704   5.704   1.883   3.662  1.7366  1.9990 -0.0743
 3763TIP3    H232705   5.609   1.997   3.693  0.1219  0.2110  1.6334
 3764TIP3   OH232706   1.541   3.724   0.685  0.5705  0.7094  0.0660
 3764TIP3    H132707   1.483   3.694   0.615  1.0744  0.1333 -0.1048
 3764TIP3    H232708   1.626   3.684   0.666  0.4480 -0.3479  1.6061
 3765TIP3   OH232709   5.321   3.008   3.014 -0.2435 -0.3203  0.3574
 3765TIP3    H132710   5.400   3.057   2.991 -0.7001  0.8102  1.1761
 3765TIP3    H232711   5.343   2.965   3.097 -0.5786  0.1970  0.7132
 3766TIP3   OH232712   4.901   3.656   2.685 -0.0011  0.1247  0.1637
 3766TIP3    H132713   4.808   3.670   2.700  0.1997  1.8065 -0.0342
 3766TIP3    H232714   4.945   3.703   2.756  0.6829 -2.5669  1.6120
 3767TIP3   OH232715   1.419   2.331   1.584  0.0403  0.3349 -0.0266
 3767TIP3    H132716   1.503   2.376   1.598  0.2621  0.1599 -0.7618
 3767TIP3    H232717   1.444   2.244   1.551 -0.4431  0.7321 -1.5005
 3768TIP3   OH232718   0.994   0.217   1.698  0.0659 -0.2382 -0.4964
 3768TIP3    H132719   0.921   0.155   1.697  0.0083 -0.1662 -0.8602
 3768TIP3    H232720   1.072   0.162   1.699  0.0479 -0.3437 -2.4077
 3769TIP3   OH232721   0.220   6.043   2.145  0.0946 -0.5146 -0.2513
 3769TIP3    H132722   0.140   6.059   2.195  1.3131  0.1422  1.5100
 3769TIP3    H232723   0.287   6.024   2.211  1.2080 -1.9272 -1.7424
 3770TIP3   OH232724   4.197   0.974  14.653  0.2433  0.2092  0.0595
 3770TIP3    H132725   4.207   1.051  14.709 -1.2404  0.6422 -0.2423
 3770TIP3    H232726   4.209   1.007  14.564 -0.1892  0.0480 -0.0586
 3771TIP3   OH232727   1.668   3.405   5.017 -0.0130  0.4533  0.5333
 3771TIP3    H132728   1.578   3.433   5.029 -0.2952 -0.7547  1.3458
 3771TIP3    H232729   1.667   3.352   4.938 -0.5372 -1.7287  1.9766
 3772TIP3   OH232730   1.305   4.322  13.683 -0.1462  0.0084  0.2043
 3772TIP3    H132731   1.293   4.360  13.770 -1.5464  0.3309 -0.1223
 3772TIP3    H232732   1.217   4.316  13.646  0.4098 -0.3016 -1.1243
 3773TIP3   OH232733   5.591   2.836  14.775  0.4096 -0.1231 -0.0874
 3773TIP3    H132734   5.512   2.791  14.804  0.5977 -0.8241 -0.6624
 3773TIP3    H232735   5.563   2.926  14.760 -0.1577 -0.2455  0.2202
 3774TIP3   OH232736   5.341   2.139  16.706 -0.4759 -0.0788  0.2623
 3774TIP3    H132737   5.257   2.184  16.706  0.2358  1.3487  2.2039
 3774TIP3    H232738   5.353   2.111  16.797 -0.6513 -3.8176 -0.7686
 3775TIP3   OH232739   5.459   4.310  11.255 -0.2545  0.3366  0.0010
 3775TIP3    H132740   5.472   4.217  11.237 -1.0912  0.3081 -0.4986
 3775TIP3    H232741   5.513   4.328  11.332 -0.0665 -0.5555  0.0798
 3776TIP3   OH232742   4.784   2.128  13.163 -0.3289  0.0233 -0.1354
 3776TIP3    H132743   4.879   2.119  13.161 -0.1850  1.2308  0.6429
 3776TIP3    H232744   4.769   2.221  13.145 -1.2525  0.3335  2.1713
 3777TIP3   OH232745   1.342   3.975  13.210  0.4156  0.3978 -0.4007
 3777TIP3    H132746   1.320   3.928  13.130 -2.6189  0.5198  0.2752
 3777TIP3    H232747   1.292   3.931  13.279  1.8779  1.1521  1.1842
 3778TIP3   OH232748   6.130   6.674   0.352 -0.4002 -0.2077  0.3478
 3778TIP3    H132749   6.104   6.584   0.333  0.0612 -0.1818 -0.4130
 3778TIP3    H232750   6.052   6.712   0.393 -0.8568 -0.7414  0.0041
 3779TIP3   OH232751   0.437   3.694  15.341  0.2791  0.0963 -0.0565
 3779TIP3    H132752   0.486   3.771  15.370  1.4527 -0.7972  0.3689
 3779TIP3    H232753   0.500   3.622  15.348 -0.0574 -0.5110 -2.7392
 3780TIP3   OH232754   0.636   0.264   2.678  0.2385  0.5912  0.0085
 3780TIP3    H132755   0.662   0.172   2.668 -1.1107  0.4146 -2.1601
 3780TIP3    H232756   0.690   0.311   2.615 -1.0869  0.9006 -0.9004
 3781TIP3   OH232757   2.283   0.600   4.066 -0.0973 -0.2243  0.4452
 3781TIP3    H132758   2.232   0.658   4.010  1.9214  1.8314  0.6378
 3781TIP3    H232759   2.321   0.536   4.006  0.7250  0.9799 -0.3570
 3782TIP3   OH232760   2.591   1.480   1.103 -0.0201  0.0787 -0.1220
 3782TIP3    H132761   2.596   1.483   1.199  0.1942 -1.2387 -0.0766
 3782TIP3    H232762   2.526   1.412   1.085  0.8281 -0.5308 -0.9219
 3783TIP3   OH232763   2.047   1.673   6.653 -0.2048 -0.5253 -0.2901
 3783TIP3    H132764   2.107   1.693   6.725 -0.1927  1.0617 -0.7128
 3783TIP3    H232765   1.971   1.633   6.695 -0.1586  0.3036  0.5975
 3784TIP3   OH232766   1.373   4.073  14.222  0.3364 -0.0089  0.5382
 3784TIP3    H132767   1.344   4.123  14.145 -0.2567 -0.3962  0.4973
 3784TIP3    H232768   1.351   3.982  14.200  0.4998 -0.1657  1.0177
 3785TIP3   OH232769   4.222   5.725  14.619  0.0570  0.6565  0.2188
 3785TIP3    H132770   4.229   5.635  14.587  2.1793  2.3850 -4.7472
 3785TIP3    H232771   4.308   5.743  14.657 -0.2050  0.7106  0.7822
 3786TIP3   OH232772   3.674   3.334   1.073 -0.5922  0.8117 -0.0220
 3786TIP3    H132773   3.614   3.287   1.014  0.0793 -1.3274  0.9277
 3786TIP3    H232774   3.649   3.305   1.161  2.4219 -0.9061  0.3343
 3787TIP3   OH232775   5.494   3.249   3.740  0.5493 -0.0936  0.5905
 3787TIP3    H132776   5.450   3.188   3.800 -0.4758  0.6615  0.6336
 3787TIP3    H232777   5.585   3.219   3.737  1.1479  1.1110  4.2078
 3788TIP3   OH232778   1.557   2.648   5.710 -0.5477  0.0513 -0.3058
 3788TIP3    H132779   1.531   2.653   5.802 -0.6684  3.1021 -0.4363
 3788TIP3    H232780   1.608   2.567   5.703 -2.7748 -1.5869  1.8328
 3789TIP3   OH232781   2.821   4.169   3.485  0.0909  0.6573  0.7978
 3789TIP3    H132782   2.727   4.176   3.501 -0.3487  1.8676 -1.9586
 3789TIP3    H232783   2.855   4.257   3.501  0.0328  1.2689 -2.0960
 3790TIP3   OH232784   0.611   1.942   0.154 -0.3019 -0.5411 -0.2931
 3790TIP3    H132785   0.543   1.876   0.145 -0.7420 -0.0074 -0.9606
 3790TIP3    H232786   0.676   1.921   0.087  0.8695 -1.8371  1.2142
 3791TIP3   OH232787   5.098   3.016   4.759  0.5002 -0.0428  0.2923
 3791TIP3    H132788   5.121   3.098   4.803  3.0685 -0.7113  0.2946
 3791TIP3    H232789   5.101   2.950   4.829 -1.3813 -0.1827  0.2563
 3792TIP3   OH232790   1.661   1.686  15.843  0.4039 -0.1593  0.1044
 3792TIP3    H132791   1.624   1.655  15.760  0.3466  1.2363 -0.4045
 3792TIP3    H232792   1.667   1.607  15.897  0.4961 -1.1039 -1.2437
 3793TIP3   OH232793   4.884   3.528   1.468  0.0606  0.6469 -0.2243
 3793TIP3    H132794   4.814   3.463   1.469  0.2924  0.3807  1.7536
 3793TIP3    H232795   4.937   3.506   1.392 -0.4680 -0.8337 -0.1768
 3794TIP3   OH232796   5.763   4.224  10.896 -0.0073  0.0977  0.0001
 3794TIP3    H132797   5.697   4.270  10.947 -0.3561  0.5341 -0.8339
 3794TIP3    H232798   5.815   4.177  10.961  0.9190  2.3879  0.9689
 3795TIP3   OH232799   4.935   2.375  13.908  0.4009  0.0797  0.4871
 3795TIP3    H132800   4.908   2.446  13.966  1.4097  0.6614  0.2671
 3795TIP3    H232801   5.012   2.409  13.863  2.0910 -1.8824  1.8203
 3796TIP3   OH232802   2.376   1.808  14.907  0.1486  0.2947 -0.2824
 3796TIP3    H132803   2.306   1.836  14.967 -1.3716  0.1037 -1.8944
 3796TIP3    H232804   2.380   1.713  14.917  1.2313  0.4502  0.8933
 3797TIP3   OH232805   0.672   3.693  11.940  0.3112 -0.1619  0.0135
 3797TIP3    H132806   0.723   3.633  11.886 -0.2364 -0.1152 -0.5504
 3797TIP3    H232807   0.686   3.779  11.900  0.6402  0.0100  0.4865
 3798TIP3   OH232808   6.161   0.149   4.916 -0.0038 -0.2701 -0.1049
 3798TIP3    H132809   6.080   0.098   4.921  0.5890 -1.2214 -0.0358
 3798TIP3    H232810   6.133   0.240   4.926 -0.8119 -0.7548  2.2042
 3799TIP3   OH232811   4.740   5.883   6.250  0.2176  0.1617 -0.5549
 3799TIP3    H132812   4.682   5.808   6.240  0.0139  0.4225 -1.3240
 3799TIP3    H232813   4.682   5.956   6.270  0.2421  0.4823 -1.6118
 3800TIP3   OH232814   6.367   1.918  11.688  0.0164  0.3378 -0.1934
 3800TIP3    H132815   6.363   1.833  11.733  0.1961  0.8420  0.7909
 3800TIP3    H232816   6.460   1.933  11.672  0.0791  0.8665  0.6438
 3801TIP3   OH232817   0.261   0.060   5.181  0.9630  0.1735  0.1098
 3801TIP3    H132818   0.174   0.090   5.153  0.8300 -0.7623 -0.5121
 3801TIP3    H232819   0.246   0.012   5.262  0.8186 -0.4878 -0.3066
 3802TIP3   OH232820   3.100   5.715  11.600  0.0784 -0.1890 -0.9737
 3802TIP3    H132821   3.147   5.798  11.609 -0.5529 -0.0732  1.9330
 3802TIP3    H232822   3.131   5.678  11.517  1.7817  2.0481 -1.3826
 3803TIP3   OH232823   4.416   1.047   4.755  0.4040  0.1102 -0.3716
 3803TIP3    H132824   4.409   0.956   4.726 -1.2914 -0.3662  1.4139
 3803TIP3    H232825   4.427   1.098   4.674 -0.6122 -1.5003 -1.5449
 3804TIP3   OH232826   0.089   0.522  12.706 -0.0275 -0.4591 -0.1865
 3804TIP3    H132827   0.126   0.609  12.699 -0.3724 -0.3099 -0.1640
 3804TIP3    H232828   0.020   0.520  12.639  0.6963 -1.0752 -0.9249
 3805TIP3   OH232829   2.835   3.815   6.065  0.4905  0.1371 -0.9858
 3805TIP3    H132830   2.879   3.887   6.109 -0.2294  0.4693 -0.8067
 3805TIP3    H232831   2.860   3.824   5.973 -4.0081  3.9512 -1.9714
 3806TIP3   OH232832   2.982   2.195   1.321  0.0744  0.4841  0.1025
 3806TIP3    H132833   2.901   2.244   1.305  0.3894  1.0313  0.1737
 3806TIP3    H232834   3.004   2.214   1.412 -0.5843 -0.9597  0.5820
 3807TIP3   OH232835   4.017   1.603  11.681  0.6286  0.2220  0.3919
 3807TIP3    H132836   4.020   1.524  11.735  1.5329  0.1636  0.2550
 3807TIP3    H232837   4.073   1.582  11.606  1.2937  1.1962  0.6178
 3808TIP3   OH232838   5.730   2.060  15.071 -0.5434  0.2467  0.6978
 3808TIP3    H132839   5.793   2.087  15.138  0.1442 -0.3777  0.3100
 3808TIP3    H232840   5.744   2.122  14.999 -1.3834  1.0092  1.1812
 3809TIP3   OH232841   0.799   0.938   4.293 -0.5510  0.3473 -0.5826
 3809TIP3    H132842   0.823   0.904   4.207 -1.4379 -2.5839  0.2432
 3809TIP3    H232843   0.881   0.940   4.342 -0.2324  0.8691 -1.1516
 3810TIP3   OH232844   1.327   3.500   3.060 -1.0187 -0.2844  0.3591
 3810TIP3    H132845   1.350   3.521   3.151  1.7351  0.3810 -0.4467
 3810TIP3    H232846   1.285   3.579   3.027 -1.3921 -0.2749  0.8631
 3811TIP3   OH232847   3.946   5.816   4.227  0.4881 -0.1112 -0.1479
 3811TIP3    H132848   3.915   5.875   4.296  0.5212 -1.0019  0.6349
 3811TIP3    H232849   3.986   5.874   4.163  1.0269  0.6837  0.8856
 3812TIP3   OH232850   0.355   5.418   3.122 -0.3803  0.5484  0.1642
 3812TIP3    H132851   0.319   5.505   3.106  1.1199  1.3051  0.7980
 3812TIP3    H232852   0.306   5.385   3.198 -0.0460  1.4031  0.7641
 3813TIP3   OH232853   0.261   4.455  12.243 -0.5481  0.0640  0.4822
 3813TIP3    H132854   0.323   4.404  12.191 -1.1715 -0.7762  0.5570
 3813TIP3    H232855   0.311   4.482  12.321  0.1960  0.7905 -0.2371
 3814TIP3   OH232856   6.466   0.596  13.291 -0.2570  0.0683  0.3644
 3814TIP3    H132857   6.500   0.594  13.202  0.0408 -0.5420  0.4977
 3814TIP3    H232858   6.541   0.576  13.347 -0.4418  0.4513  0.7568
 3815TIP3   OH232859   0.872   5.796  14.387  0.1263  0.1922 -0.3893
 3815TIP3    H132860   0.955   5.798  14.339  0.6727  2.4387  0.5800
 3815TIP3    H232861   0.846   5.704  14.385  2.7676 -0.6081 -0.5308
 3816TIP3   OH232862   6.264   0.753  14.909  0.4727 -0.7010  0.5182
 3816TIP3    H132863   6.201   0.822  14.887  0.9895  0.1618  1.7372
 3816TIP3    H232864   6.215   0.672  14.897 -0.2103 -0.1262 -0.6886
 3817TIP3   OH232865   5.046   0.245   6.085  0.6537 -0.1745  0.0445
 3817TIP3    H132866   5.048   0.191   6.164  1.3829  0.7908  0.6954
 3817TIP3    H232867   5.079   0.188   6.016  2.0294 -0.3697  0.8490
 3818TIP3   OH232868   5.382   5.218  12.030 -0.3145  0.1616 -0.1348
 3818TIP3    H132869   5.366   5.264  12.112 -2.5312 -0.9802  0.1220
 3818TIP3    H232870   5.353   5.278  11.962 -2.1868 -0.4013  0.1436
 3819TIP3   OH232871   5.074   5.200  14.418 -0.6515 -0.1012 -0.6633
 3819TIP3    H132872   5.038   5.249  14.345  0.1911 -0.1297 -1.1065
 3819TIP3    H232873   5.080   5.263  14.490 -1.3235 -0.0322 -0.6699
 3820TIP3   OH232874   0.091   5.087  16.969 -0.1803 -0.1240  0.4696
 3820TIP3    H132875   0.031   5.159  16.949  0.6957  0.5759  0.3029
 3820TIP3    H232876   0.105   5.092  17.063  0.9846  0.8172  0.2559
 3821TIP3   OH232877   0.278   2.910  12.463  0.0238 -0.1255  0.5876
 3821TIP3    H132878   0.310   2.917  12.373  0.0376  0.2293  0.6192
 3821TIP3    H232879   0.187   2.882  12.454  0.1930 -0.6422  0.4825
 3822TIP3   OH232880   2.320   0.125   4.582 -0.3711 -0.2919 -0.0804
 3822TIP3    H132881   2.225   0.133   4.573 -0.3461  0.1566  0.0056
 3822TIP3    H232882   2.354   0.208   4.548  0.0695 -0.9428 -1.2604
 3823TIP3   OH232883   1.184   5.045  13.400  0.2341 -0.1910 -0.0040
 3823TIP3    H132884   1.162   5.137  13.383  1.8630  0.1374 -0.4004
 3823TIP3    H232885   1.156   5.030  13.491 -0.3116  0.6046 -0.0328
 3824TIP3   OH232886   2.126   3.028   0.455 -0.0451 -0.2417  0.4095
 3824TIP3    H132887   2.168   3.109   0.485  2.1495 -0.5534 -1.7106
 3824TIP3    H232888   2.059   3.057   0.394  0.5945  0.0074 -0.1833
 3825TIP3   OH232889   2.085   2.229   4.684  0.1615  0.4755  0.5592
 3825TIP3    H132890   2.007   2.186   4.650 -0.0716  0.1534  1.4815
 3825TIP3    H232891   2.158   2.184   4.642 -0.1433  0.6848 -0.1940
 3826TIP3   OH232892   6.730   0.521  11.644  1.0628  0.1854 -0.6341
 3826TIP3    H132893   6.702   0.587  11.581 -0.1025 -0.3039 -0.6444
 3826TIP3    H232894   6.737   0.568  11.727 -0.7571  0.1235 -0.4303
 3827TIP3   OH232895   6.610   3.125  10.885  0.4351 -0.0712  0.0428
 3827TIP3    H132896   6.560   3.194  10.842  1.2942  0.3698 -0.2387
 3827TIP3    H232897   6.684   3.108  10.827 -0.2102 -1.8054 -0.2961
 3828TIP3   OH232898   5.229   2.205   4.467 -0.3568 -0.4202 -0.3363
 3828TIP3    H132899   5.188   2.229   4.551  1.4624  0.0506  0.4400
 3828TIP3    H232900   5.248   2.289   4.425 -0.2787 -0.6370 -0.7326
 3829TIP3   OH232901   6.703   2.767   6.038  0.4391  0.0301  0.0257
 3829TIP3    H132902   6.632   2.815   5.996 -0.1146 -1.7631 -1.1274
 3829TIP3    H232903   6.782   2.798   5.994  0.0389 -0.4116 -1.0232
 3830TIP3   OH232904   6.451   4.561  12.999 -0.0081  0.5449  0.6865
 3830TIP3    H132905   6.422   4.507  12.926  1.4357 -0.2451  0.6767
 3830TIP3    H232906   6.448   4.651  12.965 -0.3835  0.2811  0.0183
 3831TIP3   OH232907   5.706   4.049  12.446 -0.2160 -0.0304 -0.1099
 3831TIP3    H132908   5.800   4.063  12.437 -0.1190 -0.0151  0.8612
 3831TIP3    H232909   5.690   4.051  12.541 -1.1156 -0.5030 -0.2415
 3832TIP3   OH232910   1.898   1.221  10.441 -0.2299 -0.3909 -0.1971
 3832TIP3    H132911   1.870   1.299  10.490  1.8981  0.8834 -0.9225
 3832TIP3    H232912   1.867   1.147  10.493 -0.0267  0.9394  1.8787
 3833TIP3   OH232913   5.796   5.966   0.750 -0.0365 -0.4381 -0.3927
 3833TIP3    H132914   5.789   5.877   0.717  0.7058 -1.0595  1.1083
 3833TIP3    H232915   5.712   5.982   0.793 -0.2067 -0.3622 -0.7474
 3834TIP3   OH232916   3.929   6.257   6.128  0.7638  0.4579  0.1662
 3834TIP3    H132917   3.975   6.178   6.155  2.6237  1.4775  0.0653
 3834TIP3    H232918   3.907   6.301   6.210 -0.5807 -0.3032  0.2361
 3835TIP3   OH232919   2.107   2.568  16.149 -0.4567 -0.4141  0.2872
 3835TIP3    H132920   2.182   2.627  16.138 -1.2857  0.1971 -2.6123
 3835TIP3    H232921   2.034   2.615  16.109 -2.0642 -1.6817  1.6523
 3836TIP3   OH232922   5.016   6.236  11.352 -0.4823 -0.6223 -0.8554
 3836TIP3    H132923   5.106   6.209  11.335 -0.6893 -0.9045 -1.5026
 3836TIP3    H232924   5.005   6.315  11.299 -0.3211 -0.0544 -0.0536
 3837TIP3   OH232925   0.964   1.696   3.137 -0.9637 -0.5168  0.2891
 3837TIP3    H132926   0.974   1.707   3.042  0.6387 -0.3365  0.4611
 3837TIP3    H232927   1.005   1.775   3.174 -1.8076 -0.4696  1.1246
 3838TIP3   OH232928   0.579   0.925   2.152 -0.0062 -0.4149  0.3716
 3838TIP3    H132929   0.492   0.885   2.160  0.5992 -1.4391  2.0085
 3838TIP3    H232930   0.570   0.987   2.080 -1.7225 -1.5087 -0.3855
 3839TIP3   OH232931   4.499   5.191   1.017  0.4874 -0.1456 -0.2626
 3839TIP3    H132932   4.405   5.195   1.001  0.2243 -2.0896  0.6586
 3839TIP3    H232933   4.527   5.108   0.979  1.3807 -0.7238  1.5512
 3840TIP3   OH232934   6.114   5.511  12.206  0.4119 -0.1233 -0.8403
 3840TIP3    H132935   6.153   5.474  12.286 -0.4410 -0.9401 -0.7930
 3840TIP3    H232936   6.180   5.572  12.173  0.0869  1.5152  1.4231
 3841TIP3   OH232937   4.046   1.139  13.142  0.8170 -0.3313  0.2526
 3841TIP3    H132938   4.066   1.170  13.230  1.4561  1.5215 -0.5293
 3841TIP3    H232939   3.967   1.085  13.153  0.0858  1.0136  1.7547
 3842TIP3   OH232940   1.118   1.353   4.497 -0.4956 -0.1326  0.0560
 3842TIP3    H132941   1.164   1.271   4.517 -0.2456 -0.0619 -0.2351
 3842TIP3    H232942   1.067   1.371   4.576  0.8340  0.3867  0.7973
 3843TIP3   OH232943   3.837   5.300   1.360 -0.2697 -0.0118  0.2848
 3843TIP3    H132944   3.789   5.242   1.300  0.1398 -1.0455  0.9369
 3843TIP3    H232945   3.886   5.358   1.302 -0.9071 -0.1255 -0.3856
 3844TIP3   OH232946   6.642   5.225  15.438  0.2429 -0.2153  0.2495
 3844TIP3    H132947   6.728   5.205  15.474  0.0473 -0.2102  0.7144
 3844TIP3    H232948   6.653   5.214  15.343  0.7159 -0.3555  0.3193
 3845TIP3   OH232949   1.874   0.979   5.238  0.2498  0.1389 -0.2598
 3845TIP3    H132950   1.939   0.947   5.300  0.3931  2.4302  0.8490
 3845TIP3    H232951   1.921   0.984   5.154  0.7468 -0.6761 -0.0310
 3846TIP3   OH232952   1.488   2.874   5.581 -0.6794  0.0888 -0.4420
 3846TIP3    H132953   1.395   2.897   5.589 -0.6946  0.8486 -2.4130
 3846TIP3    H232954   1.496   2.790   5.626 -1.9718  0.8373  1.2301
 3847TIP3   OH232955   1.513   0.936   1.830 -0.3489  0.5173 -0.2793
 3847TIP3    H132956   1.418   0.941   1.826 -0.4618 -1.3753 -0.3576
 3847TIP3    H232957   1.539   0.904   1.744  0.2732 -0.1764  0.1647
 3848TIP3   OH232958   0.998   4.886   2.409  0.0081 -0.1252  0.2634
 3848TIP3    H132959   0.954   4.842   2.336  0.5006 -0.2406  0.0323
 3848TIP3    H232960   0.928   4.907   2.471 -0.2868 -0.8742  0.1876
 3849TIP3   OH232961   3.121   6.360  16.535  0.4392 -0.4235  0.0332
 3849TIP3    H132962   3.113   6.266  16.547  0.7404 -0.3147  1.0860
 3849TIP3    H232963   3.031   6.393  16.548  0.1611 -0.6542 -1.2260
 3850TIP3   OH232964   0.434   5.371   4.334 -0.1420 -0.0082  0.6100
 3850TIP3    H132965   0.385   5.307   4.283  0.4282 -0.9631  1.2464
 3850TIP3    H232966   0.369   5.407   4.395  0.1413 -2.0608  2.1952
 3851TIP3   OH232967   3.360   2.813  14.153 -0.4221 -0.1485 -0.5291
 3851TIP3    H132968   3.267   2.828  14.141 -0.4841  1.0013  1.1595
 3851TIP3    H232969   3.366   2.762  14.234  0.4595  0.4772 -0.1882
 3852TIP3   OH232970   3.788   6.262  15.022  0.0868  0.3443  0.4882
 3852TIP3    H132971   3.819   6.336  14.970 -1.9338  0.0160 -1.2208
 3852TIP3    H232972   3.780   6.298  15.111  1.8377  1.3778  0.2648
 3853TIP3   OH232973   5.570   6.193   4.611  0.3235  0.4836  0.1208
 3853TIP3    H132974   5.641   6.133   4.589  0.5584  0.6753  0.3409
 3853TIP3    H232975   5.499   6.137   4.640  0.3910  0.2903 -0.0873
 3854TIP3   OH232976   6.726   3.776   0.954  0.8514 -0.5071  0.2763
 3854TIP3    H132977   6.710   3.698   0.900  1.2192  0.3195 -1.0542
 3854TIP3    H232978   6.822   3.783   0.957  0.8084  0.4965 -0.5064
 3855TIP3   OH232979   3.044   0.907  15.643  0.3912  0.1336 -0.1829
 3855TIP3    H132980   3.026   0.957  15.722  2.4317  0.5321  0.0731
 3855TIP3    H232981   3.000   0.955  15.573  1.2555  1.5737  0.2502
 3856TIP3   OH232982   4.872   2.635   3.187  0.1141  0.1912  0.2310
 3856TIP3    H132983   4.817   2.679   3.122 -1.1092  0.8234  1.6463
 3856TIP3    H232984   4.857   2.542   3.172 -0.4088  0.3382 -0.1925
 3857TIP3   OH232985   1.964   4.768   3.402 -0.6766  0.2917 -0.3163
 3857TIP3    H132986   1.898   4.747   3.337  0.2114 -0.8371 -0.8801
 3857TIP3    H232987   1.926   4.838   3.455 -2.1683 -0.1194 -0.8440
 3858TIP3   OH232988   1.991   4.053   2.404 -0.0762  0.0278  0.4914
 3858TIP3    H132989   1.941   4.033   2.483  0.5373 -2.3388  0.3049
 3858TIP3    H232990   1.931   4.036   2.332  0.1983 -0.3629  0.3537
 3859TIP3   OH232991   2.058   0.749   0.148  0.0160  0.1204  0.1258
 3859TIP3    H132992   2.104   0.688   0.091 -1.1151  0.1876 -0.8857
 3859TIP3    H232993   2.117   0.763   0.222  0.7063 -1.4153 -0.1261
 3860TIP3   OH232994   3.453   3.587  12.352 -0.2816  0.1958  0.0968
 3860TIP3    H132995   3.513   3.635  12.410  0.9731 -1.6648  0.3554
 3860TIP3    H232996   3.403   3.530  12.411 -1.7351  1.0999 -0.2193
 3861TIP3   OH232997   2.900   5.256  13.769 -0.5635 -0.2374 -0.4127
 3861TIP3    H132998   2.875   5.164  13.763 -1.8299 -0.0298  1.2022
 3861TIP3    H232999   2.837   5.294  13.832 -0.5104  1.8648 -1.5698
 3862TIP3   OH233000   1.242   2.194  15.222  0.1843  0.1229  0.0206
 3862TIP3    H133001   1.291   2.155  15.294  0.2094 -1.5254 -0.8648
 3862TIP3    H233002   1.151   2.172  15.239  0.2801 -1.0092 -0.8891
 3863TIP3   OH233003   4.631   4.854   0.512 -0.0512  0.3981  0.5156
 3863TIP3    H133004   4.726   4.851   0.521  0.0276  0.3337 -0.2623
 3863TIP3    H233005   4.617   4.876   0.420 -0.7884  0.7595  0.7072
 3864TIP3   OH233006   2.256   6.734   3.288 -0.0932 -0.0199 -0.2216
 3864TIP3    H133007   2.321   6.676   3.328 -0.6528 -0.5507 -0.0655
 3864TIP3    H233008   2.281   6.738   3.196  0.0025 -0.4451 -0.2178
 3865TIP3   OH233009   0.583   0.871  14.332  0.5711  0.5866  0.0227
 3865TIP3    H133010   0.530   0.795  14.306 -0.5635  1.2653  0.2999
 3865TIP3    H233011   0.576   0.874  14.427  2.6419 -0.4008  0.2202
 3866TIP3   OH233012   4.309   6.116   4.763 -0.5861 -0.7888 -0.1552
 3866TIP3    H133013   4.246   6.063   4.714  0.1584 -0.1398 -1.8149
 3866TIP3    H233014   4.391   6.108   4.715  0.1643 -0.1450  0.9910
 3867TIP3   OH233015   4.132   0.618  14.697 -0.2317  0.3255  0.3652
 3867TIP3    H133016   4.093   0.678  14.761 -1.3075 -1.5199  1.4755
 3867TIP3    H233017   4.152   0.539  14.748 -0.4074 -0.8887 -1.4242
 3868TIP3   OH233018   4.727   3.242  15.351 -0.0909 -0.6258 -0.4150
 3868TIP3    H133019   4.677   3.230  15.432 -0.6933 -1.6244 -0.9263
 3868TIP3    H233020   4.817   3.258  15.380 -0.5217  0.1809  0.4804
 3869TIP3   OH233021   4.942   4.166  10.324 -0.5658 -0.0675 -0.3222
 3869TIP3    H133022   4.908   4.085  10.363  0.4462  0.0261  0.7942
 3869TIP3    H233023   4.870   4.198  10.269 -0.6763 -2.1600 -1.4576
 3870TIP3   OH233024   5.481   0.852  15.352  0.2865  0.7884 -0.2754
 3870TIP3    H133025   5.565   0.815  15.324  0.0367  1.6448 -2.2350
 3870TIP3    H233026   5.453   0.796  15.425  1.6219 -0.7012 -0.8870
 3871TIP3   OH233027   3.188   2.926   2.150  0.0896 -0.3838  0.4320
 3871TIP3    H133028   3.250   2.888   2.087  0.4611 -1.7019  1.5624
 3871TIP3    H233029   3.202   3.021   2.144  1.9336 -0.6448  0.3693
 3872TIP3   OH233030   5.313   2.179  12.516  0.3038  0.6570 -0.3919
 3872TIP3    H133031   5.315   2.246  12.584  0.2072 -0.1425  0.4221
 3872TIP3    H233032   5.301   2.227  12.434 -0.7909  1.5645  0.2783
 3873TIP3   OH233033   0.068   5.291   3.999 -0.4812  0.0691  0.3915
 3873TIP3    H133034   0.089   5.307   4.091  0.5066  0.9030  0.0334
 3873TIP3    H233035  -0.008   5.346   3.982 -0.5433  0.0692  0.6596
 3874TIP3   OH233036   6.289   0.374  12.388 -0.0161  0.7455  0.2611
 3874TIP3    H133037   6.306   0.347  12.478  1.4581  1.8518  0.3294
 3874TIP3    H233038   6.239   0.302  12.351  2.0526 -1.1709  1.0541
 3875TIP3   OH233039   1.267   0.284  14.916  0.7600  0.0788 -0.5986
 3875TIP3    H133040   1.276   0.219  14.846 -0.9305 -0.1797 -0.5808
 3875TIP3    H233041   1.282   0.234  14.997  0.6007 -0.0632 -0.6560
 3876TIP3   OH233042   0.918   6.542  12.139  0.1272  0.0067  0.0191
 3876TIP3    H133043   0.989   6.533  12.203 -0.1835  1.3510  0.5630
 3876TIP3    H233044   0.869   6.619  12.169 -0.4468  0.2055 -1.4282
 3877TIP3   OH233045   0.241   2.987   5.614  0.3331 -0.9046  0.4413
 3877TIP3    H133046   0.326   2.996   5.658  0.6524  0.0660 -0.3414
 3877TIP3    H233047   0.253   3.033   5.530 -1.1070 -0.3857  0.5094
 3878TIP3   OH233048   3.049   0.460   3.443 -0.1685 -0.5201  0.6152
 3878TIP3    H133049   3.123   0.454   3.383  1.1563 -0.3315  2.2134
 3878TIP3    H233050   3.088   0.477   3.528 -2.1201  0.6276  1.3122
 3879TIP3   OH233051   0.920   1.458  14.562 -0.2022  0.8399  0.0943
 3879TIP3    H133052   1.006   1.466  14.602 -0.1545  0.3942  0.0783
 3879TIP3    H233053   0.918   1.527  14.495  1.4386 -1.3373 -2.2781
 3880TIP3   OH233054   6.481   4.085  13.266  0.1014 -0.5333 -0.2218
 3880TIP3    H133055   6.464   4.056  13.176 -0.5616  0.2598 -0.3537
 3880TIP3    H233056   6.406   4.054  13.316  0.8755 -1.7144  0.2345
 3881TIP3   OH233057   0.027   5.745   4.835 -0.0116 -0.0935 -0.2699
 3881TIP3    H133058  -0.037   5.816   4.843 -0.6557 -0.7795  0.7228
 3881TIP3    H233059   0.109   5.789   4.813 -0.2893  0.9989  0.8579
 3882TIP3   OH233060   4.899   2.321   1.372 -0.0551  0.4244 -0.7391
 3882TIP3    H133061   4.859   2.269   1.303  1.2779 -1.3544 -0.2074
 3882TIP3    H233062   4.846   2.302   1.450  2.0062 -2.3111  0.0780
 3883TIP3   OH233063   4.509   2.055  10.923 -0.0035  0.1155 -0.5373
 3883TIP3    H133064   4.453   2.078  10.849 -1.2339 -0.2929  0.2545
 3883TIP3    H233065   4.554   1.975  10.895  3.1503  2.5359 -2.6903
 3884TIP3   OH233066   4.948   5.792   0.631 -0.5960  0.3961 -0.1833
 3884TIP3    H133067   4.963   5.845   0.553  0.8125 -0.6093 -0.6127
 3884TIP3    H233068   5.027   5.803   0.684 -0.0252 -1.6915 -0.5468
 3885TIP3   OH233069   4.157   6.160   1.515  0.8546  0.0051  0.0265
 3885TIP3    H133070   4.198   6.107   1.447 -1.7101 -2.1620  0.0850
 3885TIP3    H233071   4.223   6.167   1.584  0.8546 -4.2080  0.5513
 3886TIP3   OH233072   2.199   4.621   3.712 -0.2875 -0.0240 -0.2557
 3886TIP3    H133073   2.262   4.666   3.657 -1.8285 -0.3640 -2.3760
 3886TIP3    H233074   2.241   4.616   3.798  2.6434 -0.4284 -1.6367
 3887TIP3   OH233075   2.192   6.669  10.425  0.0196  0.2733  0.0525
 3887TIP3    H133076   2.215   6.581  10.456  0.9057  1.1352  1.9349
 3887TIP3    H233077   2.274   6.718  10.428 -0.2456  0.9008 -2.0081
 3888TIP3   OH233078   2.039   5.093  14.620  0.3104  0.5333 -0.6278
 3888TIP3    H133079   2.055   5.149  14.544  0.0378 -0.6168 -1.5506
 3888TIP3    H233080   1.952   5.118  14.651 -0.9330 -1.1420 -2.6209
 3889TIP3   OH233081   0.246   0.033   5.455  0.0311 -0.0284  0.3354
 3889TIP3    H133082   0.328   0.042   5.504  0.5641 -1.9751 -0.1405
 3889TIP3    H233083   0.214  -0.055   5.477 -0.8781 -0.0685 -1.0518
 3890TIP3   OH233084   2.869   2.733   6.905  0.6308 -0.3243  0.7295
 3890TIP3    H133085   2.785   2.690   6.922  0.2488 -0.4493 -1.3553
 3890TIP3    H233086   2.907   2.746   6.992 -1.9747  0.6245  1.7948
 3891TIP3   OH233087   0.136   3.118  13.408  0.4137 -0.4255 -0.0531
 3891TIP3    H133088   0.045   3.143  13.391  0.8254  1.0113 -0.2486
 3891TIP3    H233089   0.186   3.166  13.342  1.0924 -3.3860 -1.7550
 3892TIP3   OH233090   4.250   0.030  14.419  0.6920 -0.2243 -0.3760
 3892TIP3    H133091   4.224  -0.057  14.447 -0.3646 -0.5848 -2.4178
 3892TIP3    H233092   4.210   0.089  14.483 -1.1345 -1.0578 -0.7276
 3893TIP3   OH233093   3.174   6.473  15.696 -0.3096 -0.2504  0.5386
 3893TIP3    H133094   3.170   6.504  15.787 -0.3373 -1.5206  0.9769
 3893TIP3    H233095   3.181   6.553  15.644 -2.1461  0.6065  1.5501
 3894TIP3   OH233096   6.678   0.258  11.499 -0.3822  0.4809  0.6235
 3894TIP3    H133097   6.584   0.245  11.515 -0.3608  0.3807  0.6735
 3894TIP3    H233098   6.698   0.342  11.541 -0.1364 -0.2022  1.9280
 3895TIP3   OH233099   1.014   5.478   6.444  0.6421  0.1594 -0.0737
 3895TIP3    H133100   1.065   5.558   6.440 -2.5605  2.2064 -2.0807
 3895TIP3    H233101   0.950   5.493   6.514  1.0465 -1.3247  0.6452
 3896TIP3   OH233102   0.215   4.447   0.002 -0.0006  0.0541  0.1456
 3896TIP3    H133103   0.214   4.414   0.092 -0.2215  0.7690  0.4070
 3896TIP3    H233104   0.172   4.378  -0.049 -1.0737  0.2452  0.7875
 3897TIP3   OH233105   2.434   0.187   2.472 -0.7130  0.3946  0.2124
 3897TIP3    H133106   2.414   0.149   2.386 -2.5277  0.8756  0.3897
 3897TIP3    H233107   2.426   0.115   2.534 -1.6295  0.5032  0.2339
 3898TIP3   OH233108   0.776   4.789  12.707  1.0361 -0.2991 -0.4269
 3898TIP3    H133109   0.730   4.741  12.776 -0.1255  0.0457 -0.9487
 3898TIP3    H233110   0.782   4.878  12.741 -2.4863  0.6714 -2.1135
 3899TIP3   OH233111   1.209   0.058  15.482  0.1145  0.0200  0.1930
 3899TIP3    H133112   1.180   0.148  15.497  0.2782 -0.2270  2.0992
 3899TIP3    H233113   1.277   0.043  15.548 -0.5972 -1.8294  0.5412
 3900TIP3   OH233114   2.597   6.763  11.603  0.3286 -0.4573 -0.1556
 3900TIP3    H133115   2.590   6.763  11.699 -2.7221 -0.7140 -0.3276
 3900TIP3    H233116   2.523   6.711  11.574  0.4033  0.7978 -2.7281
 3901TIP3   OH233117   5.924   4.699   2.642 -0.4971 -0.3223 -0.2709
 3901TIP3    H133118   5.978   4.674   2.567 -0.5833 -0.2272 -0.3631
 3901TIP3    H233119   5.836   4.669   2.620 -0.1557 -2.1119  0.6553
 3902TIP3   OH233120   5.445   2.840   4.176 -0.1872  0.1035  0.3102
 3902TIP3    H133121   5.375   2.849   4.241 -1.1361  1.7062 -0.8971
 3902TIP3    H233122   5.488   2.925   4.176  0.7955 -0.3877 -0.0753
 3903TIP3   OH233123   3.272   2.263  14.249  0.2062  0.2949 -0.3413
 3903TIP3    H133124   3.219   2.188  14.276 -0.0079 -0.2666 -2.2715
 3903TIP3    H233125   3.361   2.239  14.274  0.1403 -0.6133 -0.9606
 3904TIP3   OH233126   2.359   4.158   1.002  0.2587 -0.2162  0.0929
 3904TIP3    H133127   2.338   4.072   0.966  0.5013 -0.4833  0.5878
 3904TIP3    H233128   2.345   4.149   1.096 -1.7765  0.8819 -0.0572
 3905TIP3   OH233129   4.419   1.290  15.330 -0.2067  0.8311  0.2268
 3905TIP3    H133130   4.452   1.323  15.413  0.4827 -0.3030  0.4014
 3905TIP3    H233131   4.496   1.258  15.284 -0.3661  2.6891 -1.4450
 3906TIP3   OH233132   6.696   4.800  12.671  0.3224  0.1727 -0.5798
 3906TIP3    H133133   6.709   4.779  12.764  1.7222 -1.7452 -1.1744
 3906TIP3    H233134   6.650   4.884  12.672  0.4360  0.2533  1.8478
 3907TIP3   OH233135   5.177   5.689  12.674 -0.2361 -0.4295  0.0406
 3907TIP3    H133136   5.096   5.723  12.635  0.1647  0.0174 -0.4074
 3907TIP3    H233137   5.240   5.761  12.665 -0.1886 -0.2460  1.6763
 3908TIP3   OH233138   5.008   1.165  12.338  0.0171 -0.0883  0.0223
 3908TIP3    H133139   4.971   1.084  12.303 -1.3843  0.3489  0.4668
 3908TIP3    H233140   4.944   1.196  12.402  0.1554  1.7625 -0.6884
 3909TIP3   OH233141   1.617   6.667  10.814 -0.1475  0.1123 -0.7078
 3909TIP3    H133142   1.632   6.730  10.744 -0.5873  0.0321 -0.8727
 3909TIP3    H233143   1.522   6.658  10.820 -0.0980 -0.3363 -0.5119
 3910TIP3   OH233144   2.360   4.831  14.877  0.2982  0.6505  0.4783
 3910TIP3    H133145   2.373   4.740  14.903  1.2239  0.4285 -0.7397
 3910TIP3    H233146   2.272   4.834  14.839  0.6722  0.0579 -0.4217
 3911TIP3   OH233147   1.101   6.275   3.924 -0.5475  0.1133  0.3231
 3911TIP3    H133148   1.133   6.188   3.948  0.1247  0.1641 -0.3678
 3911TIP3    H233149   1.008   6.262   3.907  0.1406 -1.1397 -2.8563
 3912TIP3   OH233150   6.403   0.730  16.925 -0.1981 -0.2060  0.2984
 3912TIP3    H133151   6.312   0.760  16.924 -0.3471 -0.6640 -0.2361
 3912TIP3    H233152   6.455   0.809  16.935 -0.5778  0.2467 -1.2121
 3913TIP3   OH233153   2.665   6.410  14.013  0.3049  0.7902 -0.3233
 3913TIP3    H133154   2.678   6.500  13.985  1.1415  0.2277 -1.7965
 3913TIP3    H233155   2.626   6.366  13.937 -0.3354 -0.0343  0.4642
 3914TIP3   OH233156   6.450   5.236  16.520 -0.0137  0.0713  0.9110
 3914TIP3    H133157   6.522   5.252  16.460 -1.3818  0.1609 -0.7649
 3914TIP3    H233158   6.436   5.319  16.565 -0.5942  0.7494 -0.4927
 3915TIP3   OH233159   3.378   3.091  12.995  0.0454 -0.0576  0.0506
 3915TIP3    H133160   3.410   3.001  13.001  0.2296  0.0783  1.4862
 3915TIP3    H233161   3.457   3.144  12.984 -0.0112 -0.0263 -0.2035
 3916TIP3   OH233162   2.196   5.010   2.082 -0.3665 -0.0057 -0.6389
 3916TIP3    H133163   2.128   4.956   2.123 -0.5620  1.1116  0.5514
 3916TIP3    H233164   2.261   4.948   2.050 -0.4570 -0.9411  0.9388
 3917TIP3   OH233165   6.561   2.577  12.303 -0.0460 -0.6991 -0.3331
 3917TIP3    H133166   6.630   2.624  12.351 -2.9628  2.6710  0.7989
 3917TIP3    H233167   6.581   2.593  12.211  0.2591  0.9500  0.0030
 3918TIP3   OH233168   1.380   2.804   3.560 -0.1821  0.3388 -0.0985
 3918TIP3    H133169   1.321   2.736   3.592 -0.3735  0.3369 -0.4426
 3918TIP3    H233170   1.466   2.780   3.593 -0.5632  0.9905  1.4261
 3919TIP3   OH233171   3.806   5.003   0.663 -0.5157  0.1006 -0.7461
 3919TIP3    H133172   3.883   5.058   0.675  0.4517 -0.9396 -1.9720
 3919TIP3    H233173   3.788   4.967   0.750 -0.2643  1.2051 -0.2376
 3920TIP3   OH233174   0.618   2.599  15.357  0.5286 -0.3292 -0.9692
 3920TIP3    H133175   0.530   2.582  15.389  0.7915 -1.1907 -0.6884
 3920TIP3    H233176   0.607   2.668  15.292 -0.5528 -1.5087 -2.0483
 3921TIP3   OH233177   2.549   0.985   0.694  0.0551 -0.1120  0.2210
 3921TIP3    H133178   2.588   0.934   0.622 -1.9078  1.0674 -1.7637
 3921TIP3    H233179   2.475   0.931   0.723 -0.7033  0.5628 -0.4152
 3922TIP3   OH233180   4.896   1.830  16.416  0.6159 -0.1702 -0.4201
 3922TIP3    H133181   4.827   1.891  16.438  1.3772  0.7497 -0.5463
 3922TIP3    H233182   4.894   1.764  16.486  1.0309  1.0502  0.7497
 3923TIP3   OH233183   0.458   0.996  16.217 -1.0468  0.7202  0.0578
 3923TIP3    H133184   0.390   1.031  16.274 -1.1060  0.8906 -0.1152
 3923TIP3    H233185   0.410   0.954  16.145 -0.9872 -0.2145  0.5567
 3924TIP3   OH233186   4.477   6.223   4.532 -0.2743  0.7707  0.0377
 3924TIP3    H133187   4.504   6.240   4.622 -1.7353  1.4622  0.3556
 3924TIP3    H233188   4.404   6.282   4.516 -1.3315 -0.7301 -0.9319
 3925TIP3   OH233189   4.034   0.745  16.313 -0.6102  0.0096 -0.0412
 3925TIP3    H133190   4.032   0.841  16.310 -0.1462  0.0017 -0.6136
 3925TIP3    H233191   4.057   0.719  16.224  1.5679 -0.5611  0.6509
 3926TIP3   OH233192   5.123   3.132  14.992  0.1651 -0.3126  0.5361
 3926TIP3    H133193   5.218   3.119  14.992 -0.0359 -1.7742  0.3567
 3926TIP3    H233194   5.102   3.150  14.900  0.0933 -1.3358  0.3436
 3927TIP3   OH233195   1.557   5.015   2.119 -0.1313 -0.1493  0.3840
 3927TIP3    H133196   1.541   5.057   2.034  0.2423 -1.0385 -0.1379
 3927TIP3    H233197   1.653   5.014   2.127 -0.1941  0.9734  1.3503
 3928TIP3   OH233198   6.425   3.605   1.887 -0.3182 -0.0204  0.5166
 3928TIP3    H133199   6.519   3.591   1.878 -0.5009 -0.5432 -0.7442
 3928TIP3    H233200   6.395   3.622   1.797 -1.7458 -1.9663  0.5914
 3929TIP3   OH233201   5.592   5.838  14.265 -0.6412  0.2361 -0.5829
 3929TIP3    H133202   5.526   5.825  14.197 -1.4387 -1.2230  0.4194
 3929TIP3    H233203   5.643   5.757  14.265 -1.0534 -0.0472  0.9602
 3930TIP3   OH233204   5.325   2.570   3.992  0.1392 -0.2796 -0.6126
 3930TIP3    H133205   5.263   2.631   4.032 -0.8297 -1.0628 -0.8885
 3930TIP3    H233206   5.342   2.607   3.905  1.1043  0.6427 -0.0433
 3931TIP3   OH233207   5.538   0.686  15.082 -0.7623  0.1593  0.1561
 3931TIP3    H133208   5.459   0.659  15.035 -0.8162 -1.0975  0.9542
 3931TIP3    H233209   5.567   0.607  15.128  0.3589  0.8887  0.7250
 3932TIP3   OH233210   2.064   1.814   1.491  0.4815  0.4867  0.2220
 3932TIP3    H133211   2.070   1.735   1.545  0.8393  0.0764 -0.4107
 3932TIP3    H233212   1.985   1.858   1.522  0.5343  0.1156  0.8968
 3933TIP3   OH233213   5.447   0.351  15.119 -0.0366  0.0666  0.1329
 3933TIP3    H133214   5.443   0.374  15.026  1.4734  0.3242  0.1068
 3933TIP3    H233215   5.436   0.256  15.121  1.6649 -0.1739 -0.4913
 3934TIP3   OH233216   6.498   5.188   2.578  0.3748  0.3447  0.1966
 3934TIP3    H133217   6.496   5.269   2.628  1.1982 -0.5112  1.6592
 3934TIP3    H233218   6.406   5.164   2.568  0.0881  1.7823 -0.8207
 3935TIP3   OH233219   1.926   5.282   1.382  0.2932  0.0939  0.0486
 3935TIP3    H133220   2.000   5.278   1.443  0.4165  0.4181 -0.0788
 3935TIP3    H233221   1.878   5.201   1.398 -1.3416  1.5073  2.7423
 3936TIP3   OH233222   6.713   6.627   3.725  0.1879  0.0614 -0.4916
 3936TIP3    H133223   6.670   6.545   3.702  0.6757 -0.1475 -0.6623
 3936TIP3    H233224   6.650   6.695   3.699  0.4484 -0.2017 -1.8423
 3937TIP3   OH233225   5.377   5.808  12.934 -0.0234 -0.3697 -0.0652
 3937TIP3    H133226   5.393   5.799  13.028  3.4248  1.8655 -0.3541
 3937TIP3    H233227   5.455   5.773  12.892 -0.5978  0.6339 -2.0328
 3938TIP3   OH233228   5.564   4.564  15.059  0.3532  0.5030 -0.0128
 3938TIP3    H133229   5.511   4.514  14.997 -0.0236  0.7861  0.0801
 3938TIP3    H233230   5.645   4.583  15.011  0.6152 -0.4403  0.0507
 3939TIP3   OH233231   0.962   6.076   4.496 -0.0820 -0.0739 -0.0282
 3939TIP3    H133232   0.975   6.107   4.406 -2.7011 -0.1480 -0.4911
 3939TIP3    H233233   1.022   6.129   4.548  1.7034 -0.2348 -1.8388
 3940TIP3   OH233234   4.097   1.491   3.569 -0.0222 -0.1547 -0.1277
 3940TIP3    H133235   4.023   1.440   3.538  0.3594 -0.5480 -0.3918
 3940TIP3    H233236   4.065   1.535   3.648  0.2246 -2.2938  1.1807
 3941TIP3   OH233237   4.321   5.212   1.263  0.2366 -0.0872 -0.4082
 3941TIP3    H133238   4.413   5.208   1.288 -0.0798 -0.9384  0.6965
 3941TIP3    H233239   4.315   5.164   1.181  0.9647  0.9735 -1.0888
 3942TIP3   OH233240   4.641   0.197  16.668 -0.3998  0.8995 -0.2787
 3942TIP3    H133241   4.729   0.159  16.668  0.1396  2.1122 -1.2879
 3942TIP3    H233242   4.613   0.191  16.759  0.9861  1.0651  0.1790
 3943TIP3   OH233243   1.312   1.927  14.490  0.0030  0.7112 -0.0057
 3943TIP3    H133244   1.316   1.946  14.584 -2.1895 -2.3084  0.7918
 3943TIP3    H233245   1.275   2.005  14.450  2.3105  2.5841  1.4284
 3944TIP3   OH233246   1.141   4.806   3.388  0.1607  0.4088  0.0311
 3944TIP3    H133247   1.076   4.810   3.459 -1.0535  0.1116 -1.0356
 3944TIP3    H233248   1.172   4.896   3.380 -0.3701  0.6235  0.3426
 3945TIP3   OH233249   2.330   6.185   1.081 -0.1654 -0.1471 -0.5089
 3945TIP3    H133250   2.248   6.138   1.062 -0.8415  1.1358 -0.8453
 3945TIP3    H233251   2.398   6.134   1.037 -0.5785 -1.9955  0.8979
 3946TIP3   OH233252   3.236   3.057  14.692 -0.4898 -0.6773 -0.2509
 3946TIP3    H133253   3.230   3.150  14.715  1.4467 -1.3178  3.2366
 3946TIP3    H233254   3.176   3.013  14.752 -0.9011 -1.7959 -1.4415
 3947TIP3   OH233255   0.438   1.492  15.658 -0.0878  0.3178 -0.0017
 3947TIP3    H133256   0.349   1.462  15.637  0.1150 -0.4335  0.1839
 3947TIP3    H233257   0.484   1.492  15.574 -0.4101  1.2394 -0.1872
 3948TIP3   OH233258   2.902   5.937   5.378  0.4588 -0.7284 -0.1687
 3948TIP3    H133259   2.902   5.922   5.472  0.8209 -1.0313 -0.2178
 3948TIP3    H233260   2.909   5.850   5.340  0.3154 -0.6066 -0.4784
 3949TIP3   OH233261   2.199   4.047   4.229 -0.1210 -0.0629  0.0178
 3949TIP3    H133262   2.131   4.019   4.291 -1.0196  0.0997 -0.8809
 3949TIP3    H233263   2.238   4.124   4.271 -0.0382 -0.5547  0.8535
 3950TIP3   OH233264   2.697   3.060   5.579 -0.1567 -0.7838 -0.3343
 3950TIP3    H133265   2.691   2.969   5.608 -1.3945 -0.3620  0.8036
 3950TIP3    H233266   2.646   3.109   5.643  3.1308  1.1566  0.8995
 3951TIP3   OH233267   1.353   4.154   1.670 -1.0099 -0.4575  0.1757
 3951TIP3    H133268   1.269   4.142   1.626 -0.6601 -0.6711 -0.4522
 3951TIP3    H233269   1.380   4.243   1.648 -0.3255 -0.9240 -0.9673
 3952TIP3   OH233270   5.670   2.956  17.022 -0.6179 -0.1667 -0.1694
 3952TIP3    H133271   5.713   2.896  16.961 -0.4371  0.1226 -0.3290
 3952TIP3    H233272   5.707   2.934  17.107 -1.4801 -1.1299 -0.0374
 3953TIP3   OH233273   1.167   1.661   0.104  0.5812 -0.2389  0.8256
 3953TIP3    H133274   1.146   1.676   0.012 -0.1756 -0.0992  1.0190
 3953TIP3    H233275   1.213   1.740   0.132  2.3989 -1.0211  0.0942
 3954TIP3   OH233276   3.558   5.296  15.684 -0.1530 -0.0422  0.2407
 3954TIP3    H133277   3.484   5.240  15.661 -2.1637  2.3473  0.7826
 3954TIP3    H233278   3.620   5.237  15.726 -1.7208 -2.0942 -0.2574
 3955TIP3   OH233279   0.939   5.529   5.682 -0.0494 -0.1231 -0.3998
 3955TIP3    H133280   0.855   5.486   5.668  0.1534 -0.6649  0.0561
 3955TIP3    H233281   0.919   5.622   5.676 -0.7894 -0.2302  0.2920
 3956TIP3   OH233282   0.560   5.677   4.864 -0.0475  0.2830  0.1415
 3956TIP3    H133283   0.545   5.766   4.834  0.3369  0.6045  0.9166
 3956TIP3    H233284   0.543   5.679   4.958 -0.6442 -0.5985  0.0665
 3957TIP3   OH233285   2.633   0.669   1.503  0.1789 -0.3338  0.2777
 3957TIP3    H133286   2.573   0.735   1.469  1.6711  1.2300  0.5577
 3957TIP3    H233287   2.616   0.591   1.452 -1.2767  0.4255 -0.4189
 3958TIP3   OH233288   3.350   3.948   6.048 -0.5373  0.9374  0.6403
 3958TIP3    H133289   3.388   3.860   6.044 -2.4025  0.1700 -3.0946
 3958TIP3    H233290   3.422   4.006   6.023 -0.3809  0.0000 -1.2164
 3959TIP3   OH233291   4.855   3.692   0.372  0.1348  0.5352 -0.1928
 3959TIP3    H133292   4.820   3.616   0.418  0.8748  0.7215  0.7113
 3959TIP3    H233293   4.796   3.706   0.299  0.1870 -1.1280 -0.5710
 3960TIP3   OH233294   4.819   5.882  14.630  0.1064  0.4219  0.0145
 3960TIP3    H133295   4.760   5.806  14.633  0.3945  0.2023  0.1779
 3960TIP3    H233296   4.907   5.843  14.624  0.3069  0.7292  0.9120
 3961TIP3   OH233297   6.751   1.835   1.808  0.6349 -0.1147  0.2747
 3961TIP3    H133298   6.708   1.879   1.881  1.5029  2.6341 -0.8344
 3961TIP3    H233299   6.833   1.802   1.845 -0.6209 -2.0725  1.4386
 3962TIP3   OH233300   0.910   1.654  12.488 -0.5533  0.2880 -0.4304
 3962TIP3    H133301   1.001   1.627  12.502 -0.1537  2.2442  0.8760
 3962TIP3    H233302   0.860   1.573  12.501  0.7212 -0.1246  2.3112
 3963TIP3   OH233303   3.795   5.962  17.104  0.6490  0.3542  0.0278
 3963TIP3    H133304   3.712   5.986  17.145  0.4542  0.7564 -0.5918
 3963TIP3    H233305   3.843   5.915  17.172 -0.8132 -1.4697 -0.1574
 3964TIP3   OH233306   4.237   4.016   1.342  0.1895 -0.5818  0.1669
 3964TIP3    H133307   4.227   4.111   1.336  2.5680 -0.3163 -0.1080
 3964TIP3    H233308   4.175   3.981   1.278 -0.5458  0.8018  0.1129
 3965TIP3   OH233309   5.916   0.188  12.329  0.3468  0.5750 -0.2468
 3965TIP3    H133310   5.891   0.196  12.421  0.5014  0.3054 -0.1795
 3965TIP3    H233311   5.998   0.138  12.331 -0.1005 -0.1718 -0.5919
 3966TIP3   OH233312   4.139   3.146   4.016  0.1913  0.1539  0.7870
 3966TIP3    H133313   4.055   3.165   3.973  1.0598  1.2655 -0.4566
 3966TIP3    H233314   4.127   3.059   4.054 -1.4596  0.2168  0.4593
 3967TIP3   OH233315   3.079   6.456  13.645 -1.0641 -0.1354 -0.6352
 3967TIP3    H133316   3.007   6.506  13.607 -0.9195  0.5106 -0.0786
 3967TIP3    H233317   3.039   6.409  13.719 -0.4409  2.1848  1.2556
 3968TIP3   OH233318   3.463   0.481  13.508  0.2749  0.4520  0.3879
 3968TIP3    H133319   3.483   0.507  13.598  0.8162  2.7212 -0.3566
 3968TIP3    H233320   3.467   0.563  13.458  1.8346 -1.0487 -2.0402
 3969TIP3   OH233321   6.770   4.171   3.695 -0.3848 -0.3190 -0.3323
 3969TIP3    H133322   6.799   4.262   3.699 -2.1348  0.3081 -1.1714
 3969TIP3    H233323   6.753   4.148   3.787  0.4197  0.0852 -0.0805
 3970TIP3   OH233324   0.742   1.683   6.182  0.2267 -0.0304  0.0427
 3970TIP3    H133325   0.783   1.769   6.193  3.0365 -1.1783 -0.9215
 3970TIP3    H233326   0.769   1.634   6.260 -0.2182 -0.4661 -0.0758
 3971TIP3   OH233327   3.545   1.865  15.262  0.9254  0.0240  0.0228
 3971TIP3    H133328   3.513   1.947  15.224  0.4658  0.3988  1.1712
 3971TIP3    H233329   3.639   1.866  15.247  0.7990  0.3180 -0.7894
 3972TIP3   OH233330   3.801   5.719  13.272  0.2135  0.2678  0.5072
 3972TIP3    H133331   3.825   5.804  13.234  1.9226 -0.2597  0.3600
 3972TIP3    H233332   3.732   5.685  13.214  1.5039  0.2954 -1.0715
 3973TIP3   OH233333   2.702   1.569   3.404 -0.4368  0.0858 -0.0385
 3973TIP3    H133334   2.797   1.579   3.396 -0.3874 -0.4383 -0.1152
 3973TIP3    H233335   2.680   1.609   3.488  0.0797 -1.3174  0.7821
 3974TIP3   OH233336   3.226   4.799  11.431  0.1270 -0.2494 -0.5103
 3974TIP3    H133337   3.193   4.709  11.428  0.4323 -0.5512  3.1614
 3974TIP3    H233338   3.149   4.853  11.417 -0.4304 -1.0674 -0.6282
 3975TIP3   OH233339   5.022   4.786  11.968 -0.1549 -0.0775  0.0174
 3975TIP3    H133340   5.097   4.727  11.957 -1.2159 -1.7097  1.2986
 3975TIP3    H233341   5.052   4.869  11.932  2.2378 -0.7367  0.3818
 3976TIP3   OH233342   6.475   0.617   4.264  0.5714 -0.4173 -0.5692
 3976TIP3    H133343   6.453   0.652   4.350 -0.6734 -1.3047 -0.5205
 3976TIP3    H233344   6.456   0.689   4.203  1.2022  0.1206 -0.1370
 3977TIP3   OH233345   1.396   4.471  14.790 -0.2425 -0.4357  0.0256
 3977TIP3    H133346   1.452   4.475  14.712 -2.8234 -0.4132 -1.8892
 3977TIP3    H233347   1.377   4.377  14.800 -1.7722 -0.2166 -0.7583
 3978TIP3   OH233348   3.155   1.279   2.450 -0.1474 -0.2951 -0.3880
 3978TIP3    H133349   3.136   1.239   2.535  0.7225 -1.6321 -0.8128
 3978TIP3    H233350   3.097   1.355   2.446 -0.4563 -0.4293  1.2455
 3979TIP3   OH233351   6.222   4.344   1.284  0.4519  0.2285  0.4026
 3979TIP3    H133352   6.154   4.411   1.279 -1.2296 -1.5411 -1.0203
 3979TIP3    H233353   6.302   4.393   1.303 -0.7732  2.6124 -0.3722
 3980TIP3   OH233354   4.190   5.960   5.154 -0.0872 -0.1582  0.1440
 3980TIP3    H133355   4.158   6.048   5.171 -0.2639  0.2736 -2.2729
 3980TIP3    H233356   4.271   5.973   5.105  0.2928 -1.3525  0.4319
 3981TIP3   OH233357   0.771   6.126   0.869  0.8041 -0.1695  0.0523
 3981TIP3    H133358   0.741   6.037   0.887 -0.4681  0.3569  0.5849
 3981TIP3    H233359   0.854   6.134   0.915  1.3688 -1.3687 -0.7330
 3982TIP3   OH233360   1.215   5.516   5.714 -0.3743 -0.2544 -0.0916
 3982TIP3    H133361   1.119   5.521   5.715 -0.2719  2.4788  0.2012
 3982TIP3    H233362   1.241   5.528   5.805  0.2302 -2.1507  0.0000
 3983TIP3   OH233363   6.010   4.206  15.275 -0.4458  0.0000  0.1177
 3983TIP3    H133364   6.056   4.124  15.296 -0.4733 -0.5705 -1.9591
 3983TIP3    H233365   6.080   4.272  15.271 -0.2750 -0.1476  0.6256
 3984TIP3   OH233366   3.029   6.125   6.576  0.3489  0.0760  0.5154
 3984TIP3    H133367   2.951   6.163   6.616 -0.7878 -2.4227  0.7947
 3984TIP3    H233368   3.071   6.076   6.646  1.0245 -0.2957 -0.1414
 3985TIP3   OH233369   6.495   0.607  14.631  0.2042  0.0892 -0.1660
 3985TIP3    H133370   6.433   0.655  14.576 -0.6451  0.9513  1.5224
 3985TIP3    H233371   6.517   0.668  14.701  2.9010 -0.2451 -0.6735
 3986TIP3   OH233372   1.625   6.787   1.841  0.2875 -0.7899  0.1120
 3986TIP3    H133373   1.655   6.850   1.776  1.6219 -1.0558  0.4497
 3986TIP3    H233374   1.581   6.839   1.907 -1.2434 -0.5302 -1.0660
 3987TIP3   OH233375   2.143   2.752  10.764 -0.0861  0.1918 -0.5063
 3987TIP3    H133376   2.069   2.773  10.821 -0.3795  0.0142 -0.8227
 3987TIP3    H233377   2.153   2.829  10.708 -1.1299 -0.4935 -1.6338
 3988TIP3   OH233378   0.244   6.481   5.076  0.0429 -0.2207  0.5681
 3988TIP3    H133379   0.294   6.465   5.155  0.0826 -0.4118  0.5037
 3988TIP3    H233380   0.301   6.535   5.021 -1.1776  2.5884  1.9688
 3989TIP3   OH233381   1.377   0.352  11.845  0.1871  0.6931  0.5345
 3989TIP3    H133382   1.457   0.375  11.892 -0.0645  0.3609  1.1322
 3989TIP3    H233383   1.335   0.286  11.900 -0.3742  0.6826  0.0990
 3990TIP3   OH233384   1.381   0.994  11.443  0.3793  0.0613  0.0773
 3990TIP3    H133385   1.394   0.907  11.405 -1.7737 -1.7721  3.2415
 3990TIP3    H233386   1.288   1.011  11.432  0.3498  0.9253  1.5682
 3991TIP3   OH233387   6.065   0.750   5.828  0.1642  0.5101  0.2335
 3991TIP3    H133388   6.064   0.667   5.780  2.3132  2.0125 -2.5320
 3991TIP3    H233389   5.977   0.758   5.864 -0.7949 -1.8162 -1.4518
 3992TIP3   OH233390   3.899   2.766   6.223 -0.2970  0.4867  0.5512
 3992TIP3    H133391   3.836   2.696   6.241 -0.6401  0.9740  1.2386
 3992TIP3    H233392   3.942   2.782   6.307  0.7312  0.1776  0.0950
 3993TIP3   OH233393   0.674   0.714  12.692  0.4231  0.2039  0.1192
 3993TIP3    H133394   0.678   0.654  12.618  0.0878 -0.9113  0.9911
 3993TIP3    H233395   0.707   0.664  12.766 -0.8408  0.7364  1.0764
 3994TIP3   OH233396   3.276   3.906  11.339  0.4968 -0.1632  0.3547
 3994TIP3    H133397   3.246   3.917  11.248  1.3725 -0.2218  0.0598
 3994TIP3    H233398   3.195   3.905  11.390 -0.0356 -0.6055 -0.4752
 3995TIP3   OH233399   1.324   4.157  11.573  0.0295 -0.2295  1.0089
 3995TIP3    H133400   1.233   4.145  11.545 -0.3676  2.4248  1.0172
 3995TIP3    H233401   1.375   4.154  11.492 -0.1127 -1.3439  0.9625
 3996TIP3   OH233402   1.695   6.514  16.280 -0.3991 -0.4114  0.0985
 3996TIP3    H133403   1.606   6.497  16.310 -0.1058 -0.4772  0.9676
 3996TIP3    H233404   1.712   6.605  16.307 -0.2908 -0.3228 -0.2703
 3997TIP3   OH233405   4.346   1.590   3.357  0.6149  0.3285  0.3889
 3997TIP3    H133406   4.292   1.650   3.305  2.1723  2.6637  1.3858
 3997TIP3    H233407   4.370   1.521   3.296 -1.2419  0.6608 -0.7800
 3998TIP3   OH233408   0.601   0.323  10.352  0.2473 -0.0745 -0.0535
 3998TIP3    H133409   0.697   0.332  10.356  0.2249 -0.5553  2.4802
 3998TIP3    H233410   0.568   0.412  10.366  0.3146  0.0786 -0.8491
 3999TIP3   OH233411   0.931   4.671  16.374 -0.5120 -0.5666 -0.4170
 3999TIP3    H133412   1.019   4.652  16.406  0.3420 -0.9897 -2.8666
 3999TIP3    H233413   0.903   4.747  16.425  1.2409 -0.4847  0.4632
 4000TIP3   OH233414   3.375   5.959  13.559 -0.9099 -0.2145  0.3236
 4000TIP3    H133415   3.389   5.931  13.650 -4.0732  1.1974  1.3106
 4000TIP3    H233416   3.377   6.055  13.562  0.1395 -0.1618 -1.3266
 4001TIP3   OH233417   6.495   2.544  16.604  0.1627  0.5157 -0.5015
 4001TIP3    H133418   6.460   2.504  16.684 -1.4667  0.8623 -1.0105
 4001TIP3    H233419   6.504   2.471  16.543  3.6632 -0.1614  0.6923
 4002TIP3   OH233420   5.720   3.297   2.037  0.4834 -0.2125  0.2330
 4002TIP3    H133421   5.714   3.274   2.130 -1.3240 -0.8371 -0.0359
 4002TIP3    H233422   5.630   3.301   2.007  1.0919 -1.4007 -1.8429
 4003TIP3   OH233423   4.141   0.353  13.213 -0.6412 -0.0002  0.4653
 4003TIP3    H133424   4.087   0.407  13.155  0.3744  1.4977  0.9015
 4003TIP3    H233425   4.184   0.416  13.271 -2.3442 -1.4906  3.4943
 4004TIP3   OH233426   4.076   3.051  15.691 -0.0562 -0.1563  0.1976
 4004TIP3    H133427   4.165   3.027  15.718 -0.8511  0.0313  3.1871
 4004TIP3    H233428   4.054   3.127  15.745 -1.4037  0.8945 -1.7758
 4005TIP3   OH233429   2.809   1.780  14.128 -1.0228  0.1203  0.0607
 4005TIP3    H133430   2.869   1.711  14.100 -1.5173  0.0174 -0.7928
 4005TIP3    H233431   2.756   1.739  14.197 -1.1226 -0.2754 -0.2445
 4006TIP3   OH233432   1.879   4.327  12.515 -0.3007 -0.4419 -0.2173
 4006TIP3    H133433   1.934   4.249  12.523  0.4138 -0.0211 -0.9404
 4006TIP3    H233434   1.903   4.365  12.431 -2.2358 -0.6503 -0.8863
 4007TIP3   OH233435   4.878   0.340  15.376 -0.2630 -0.1071 -0.1705
 4007TIP3    H133436   4.924   0.424  15.383  0.2547 -0.4136  0.0784
 4007TIP3    H233437   4.946   0.274  15.380 -0.5656 -0.5175 -1.5282
 4008TIP3   OH233438   4.075   5.189   2.898  0.2737 -0.2705 -0.1539
 4008TIP3    H133439   4.035   5.140   2.826 -0.8706 -1.9134  1.5517
 4008TIP3    H233440   4.030   5.273   2.897  0.1336 -0.3448 -1.2245
 4009TIP3   OH233441   6.373   0.656  11.818 -0.0142  0.3302  0.1286
 4009TIP3    H133442   6.277   0.663  11.811 -0.0526  0.5999  0.8354
 4009TIP3    H233443   6.406   0.702  11.741 -0.3950  3.1381  1.5767
 4010TIP3   OH233444   5.851   2.587  14.391  0.1006  0.0084  0.2390
 4010TIP3    H133445   5.942   2.594  14.419  0.1551 -0.8493  0.2819
 4010TIP3    H233446   5.844   2.649  14.318  0.4101  0.9369  0.9901
 4011TIP3   OH233447   3.471   2.136  15.514 -0.3615  0.2512  0.5085
 4011TIP3    H133448   3.444   2.191  15.440 -1.6388 -0.6382  0.3006
 4011TIP3    H233449   3.500   2.199  15.580 -0.3803  1.1146 -0.2846
 4012TIP3   OH233450   3.969   3.235  15.098  0.0061 -0.5022 -0.9519
 4012TIP3    H133451   4.028   3.162  15.081  0.6750  0.6618 -4.1218
 4012TIP3    H233452   3.883   3.202  15.071  0.0771 -0.5575 -1.1124
 4013TIP3   OH233453   0.121   5.400   2.555  0.4092 -0.2814  0.0643
 4013TIP3    H133454   0.080   5.454   2.487  0.3752 -0.6444 -0.2080
 4013TIP3    H233455   0.085   5.312   2.541 -0.1458 -0.2057  1.0125
 4014TIP3   OH233456   1.149   6.553  11.230  0.2057 -0.4575  0.2352
 4014TIP3    H133457   1.131   6.543  11.136 -0.0581  0.8458  0.1300
 4014TIP3    H233458   1.244   6.560  11.236  0.0719  2.3501 -0.2704
 4015TIP3   OH233459   4.055   1.356  12.403  0.1148  0.2478  0.7553
 4015TIP3    H133460   3.978   1.346  12.348  0.4949  2.2651 -0.1849
 4015TIP3    H233461   4.101   1.272  12.395 -0.4891  0.0666 -0.9824
 4016TIP3   OH233462   2.016   1.987  14.143  0.1859  0.0280 -0.0863
 4016TIP3    H133463   1.921   1.973  14.148  0.6344 -3.4842  0.2917
 4016TIP3    H233464   2.036   1.982  14.050  0.0157  0.6493 -0.1561
 4017TIP3   OH233465   6.477   0.040  15.570 -0.0429 -0.3746 -0.5165
 4017TIP3    H133466   6.528   0.102  15.518 -1.1902  0.9442 -0.0880
 4017TIP3    H233467   6.395   0.086  15.589 -0.0565 -1.2167  1.5897
 4018TIP3   OH233468   5.108   4.751   2.325  1.2194 -0.2763  0.0933
 4018TIP3    H133469   5.168   4.677   2.313  1.2801 -0.0231 -1.1830
 4018TIP3    H233470   5.021   4.712   2.322  1.2660 -0.3767  0.0339
 4019TIP3   OH233471   1.410   5.641  12.126 -0.0673  0.1462  0.1770
 4019TIP3    H133472   1.350   5.580  12.085 -0.6529 -0.9277  2.5330
 4019TIP3    H233473   1.491   5.634  12.075 -1.6687  1.0505 -2.5541
 4020TIP3   OH233474   4.288   0.664  11.208 -0.3636  0.1199 -0.4061
 4020TIP3    H133475   4.250   0.587  11.166 -1.3267 -0.1702  0.9790
 4020TIP3    H233476   4.253   0.663  11.297  0.7701  1.3500  0.0708
 4021TIP3   OH233477   4.141   0.805  13.103  0.0955 -0.6660  0.0542
 4021TIP3    H133478   4.158   0.895  13.132 -0.7058 -0.3203 -0.4930
 4021TIP3    H233479   4.089   0.767  13.174  0.3571 -0.6690  0.2466
 4022TIP3   OH233480   0.652   1.528  11.884  0.3398  0.4978  0.3859
 4022TIP3    H133481   0.699   1.602  11.846  1.5861 -0.1274  0.6906
 4022TIP3    H233482   0.569   1.565  11.914  0.0876  1.3514 -1.3080
 4023TIP3   OH233483   0.293   1.939  13.323  0.3693 -0.2867  0.7234
 4023TIP3    H133484   0.255   1.999  13.387  1.8519  0.5514  0.8602
 4023TIP3    H233485   0.351   1.883  13.375  0.7926 -0.2756  0.2739
 4024TIP3   OH233486   4.689   2.099  11.588 -0.1934  0.0779 -0.4102
 4024TIP3    H133487   4.757   2.167  11.586  0.8423 -0.9089  0.6970
 4024TIP3    H233488   4.722   2.030  11.531 -1.1180  0.3507 -1.3057
 4025TIP3   OH233489   0.458   0.219  16.202  0.1629 -0.5569  0.0139
 4025TIP3    H133490   0.479   0.136  16.159  0.0511 -0.0752 -0.9634
 4025TIP3    H233491   0.535   0.273  16.188  0.3828 -0.6059  0.9641
 4026TIP3   OH233492   3.127   1.863  12.455  0.4470  0.8192  0.4304
 4026TIP3    H133493   3.214   1.848  12.492  0.6881  2.1745  0.4325
 4026TIP3    H233494   3.104   1.780  12.413  1.9066  0.5700  0.1022
 4027TIP3   OH233495   5.619   3.128   3.354  0.6369  0.0338  0.5111
 4027TIP3    H133496   5.614   3.223   3.361  0.7245  0.1632 -1.1558
 4027TIP3    H233497   5.533   3.097   3.381  0.2689  0.6447  0.0487
 4028TIP3   OH233498   5.297   6.764  10.946 -0.4490  0.2034 -0.0343
 4028TIP3    H133499   5.310   6.676  10.909 -0.9743 -0.1413  0.5915
 4028TIP3    H233500   5.383   6.805  10.938  0.5885 -1.3855  2.2557
 4029TIP3   OH233501   2.539   1.867   1.420 -0.4542  0.2224  0.4740
 4029TIP3    H133502   2.630   1.885   1.396  0.1075 -0.1816  2.2013
 4029TIP3    H233503   2.494   1.857   1.337  1.3279 -0.7309 -0.4113
 4030TIP3   OH233504   2.487   4.994  17.107  0.1550 -0.3566 -0.0115
 4030TIP3    H133505   2.456   5.085  17.114  0.2964 -0.3861  1.0399
 4030TIP3    H233506   2.495   4.964  17.198 -0.4632 -1.6235 -0.3690
 4031TIP3   OH233507   2.947   6.423   1.872 -0.3004  0.0548  0.2209
 4031TIP3    H133508   2.923   6.514   1.890 -0.1649  0.5103 -1.8674
 4031TIP3    H233509   2.865   6.375   1.883 -0.6228  0.5891  0.2144
 4032TIP3   OH233510   6.510   4.137  13.564  0.2244  0.0136 -0.2429
 4032TIP3    H133511   6.498   4.114  13.472 -0.8014  0.6427 -0.2764
 4032TIP3    H233512   6.585   4.196  13.565 -1.7222  2.6394 -1.1325
 4033TIP3   OH233513   3.879   5.336  11.739 -0.0046 -0.2395 -0.1121
 4033TIP3    H133514   3.851   5.358  11.828 -0.6413 -2.3999  0.2504
 4033TIP3    H233515   3.798   5.332  11.688  0.3747  1.1693 -0.8449
 4034TIP3   OH233516   0.116   0.010  11.830  0.2071 -0.6265 -0.5430
 4034TIP3    H133517   0.179  -0.062  11.834  2.4033  1.1193 -2.4630
 4034TIP3    H233518   0.160   0.083  11.874 -1.3363  0.0482 -0.0646
 4035TIP3   OH233519   2.722   3.347   1.566 -0.4421 -0.0675  0.3380
 4035TIP3    H133520   2.676   3.302   1.495 -1.0491  0.8816  0.1343
 4035TIP3    H233521   2.759   3.425   1.526  0.9073 -0.5405  0.6226
 4036TIP3   OH233522   5.957   0.061  14.491  0.3497  0.2831  0.2984
 4036TIP3    H133523   5.897  -0.011  14.509  0.5894 -0.0892 -0.3860
 4036TIP3    H233524   6.044   0.022  14.495  0.4612  0.4290 -0.5386
 4037TIP3   OH233525   4.316   1.485   4.081  0.2269  0.4968 -0.2196
 4037TIP3    H133526   4.364   1.423   4.137  1.2733  0.8429 -0.7136
 4037TIP3    H233527   4.244   1.516   4.136  0.9776  0.4958  0.7909
 4038TIP3   OH233528   5.969   0.770   0.705 -0.1123 -0.3659 -0.3032
 4038TIP3    H133529   5.920   0.829   0.647 -0.6426  1.7516  2.1961
 4038TIP3    H233530   6.051   0.817   0.724 -1.0478  0.2199  2.6593
 4039TIP3   OH233531   0.978   0.820  13.657  0.0067  0.5074 -0.7175
 4039TIP3    H133532   1.032   0.747  13.628 -0.9952 -0.0953 -1.0775
 4039TIP3    H233533   0.976   0.880  13.582  1.2321  1.1527 -0.2524
 4040TIP3   OH233534   3.659   0.014   5.724 -1.0254 -0.0029 -0.6949
 4040TIP3    H133535   3.592  -0.038   5.769 -0.7611  0.7774  0.6414
 4040TIP3    H233536   3.650   0.102   5.761  1.0043  0.0133 -0.1395
 4041TIP3   OH233537   5.716   5.837  12.898  0.3108  0.1415 -0.1834
 4041TIP3    H133538   5.805   5.868  12.919  1.0393 -2.3667  0.6001
 4041TIP3    H233539   5.704   5.760  12.953 -2.4258  0.5022 -0.2057
 4042TIP3   OH233540   6.200   3.318   4.158  0.2174 -0.0032 -0.0338
 4042TIP3    H133541   6.120   3.360   4.127 -0.6088 -1.9103 -0.5753
 4042TIP3    H233542   6.174   3.228   4.178  1.7576 -0.0655  1.8334
 4043TIP3   OH233543   4.452   0.894  17.139  0.1513 -0.6511 -0.5160
 4043TIP3    H133544   4.492   0.940  17.066 -0.4321 -1.8937 -1.6386
 4043TIP3    H233545   4.358   0.913  17.131  0.0080 -1.3269 -0.4941
 4044TIP3   OH233546   0.420   3.175   0.772 -0.1950  0.0283 -0.7060
 4044TIP3    H133547   0.500   3.206   0.813  2.1268 -4.7691 -1.3601
 4044TIP3    H233548   0.381   3.116   0.836 -1.4495 -0.2718 -1.7230
 4045TIP3   OH233549   1.103   1.334  12.399  0.2758 -0.6787 -0.1709
 4045TIP3    H133550   1.151   1.377  12.470 -0.0643 -0.3640 -0.1271
 4045TIP3    H233551   1.136   1.376  12.320  1.0546 -1.4177 -0.2416
 4046TIP3   OH233552   1.808   6.126  14.816 -0.6683 -0.7731 -0.3903
 4046TIP3    H133553   1.768   6.078  14.888 -0.6977 -2.1302 -1.2941
 4046TIP3    H233554   1.758   6.100  14.739  0.9964 -1.3303 -1.3028
 4047TIP3   OH233555   5.416   2.271  12.083  0.2353 -0.1490 -0.0420
 4047TIP3    H133556   5.485   2.205  12.085  0.7399  0.3999  0.6255
 4047TIP3    H233557   5.460   2.353  12.103 -1.1649 -0.3000  4.2053
 4048TIP3   OH233558   4.662   4.419   1.939 -0.2192 -0.5215  0.1720
 4048TIP3    H133559   4.731   4.375   1.890 -1.6079 -0.8125 -1.5960
 4048TIP3    H233560   4.581   4.395   1.894 -1.2519  1.7874  0.6766
 4049TIP3   OH233561   2.893   2.459   2.292  0.1975 -0.2942  0.2168
 4049TIP3    H133562   2.944   2.389   2.333  0.2623 -0.7206 -0.5742
 4049TIP3    H233563   2.803   2.427   2.294  0.0714  0.0987  0.8715
 4050TIP3   OH233564   6.735   5.239  12.362 -0.1279 -0.0008 -0.3531
 4050TIP3    H133565   6.668   5.190  12.409 -0.1391 -1.3125 -1.7074
 4050TIP3    H233566   6.698   5.327  12.353 -0.5793 -0.0414  1.1161
 4051TIP3   OH233567   0.585   6.081  14.462 -0.4966  0.0128 -0.0055
 4051TIP3    H133568   0.639   6.087  14.540 -2.4941 -0.5782  1.4776
 4051TIP3    H233569   0.565   5.988  14.454 -1.4152  0.2410 -0.4316
 4052TIP3   OH233570   2.776   1.119   2.414  0.4712  0.1618  0.1665
 4052TIP3    H133571   2.688   1.120   2.453  0.1766 -0.5589 -0.4566
 4052TIP3    H233572   2.827   1.062   2.472  0.4258  0.2867  0.3275
 4053TIP3   OH233573   3.288   3.840  12.281  0.0757  0.0853 -0.3491
 4053TIP3    H133574   3.331   3.834  12.196 -0.4335  1.0831 -0.6763
 4053TIP3    H233575   3.304   3.754  12.322 -1.0393 -0.9613 -2.0714
 4054TIP3   OH233576   5.243   1.524  15.264 -0.3195 -0.1147  0.2587
 4054TIP3    H133577   5.237   1.428  15.262 -0.0232 -0.1275 -0.2203
 4054TIP3    H233578   5.336   1.541  15.280 -0.4242  0.0908  0.6490
 4055TIP3   OH233579   1.476   2.208   5.639 -0.0546  0.1429 -0.1173
 4055TIP3    H133580   1.461   2.115   5.623  0.9013  0.1871 -1.3851
 4055TIP3    H233581   1.471   2.249   5.553  1.6991  0.9329  0.1168
 4056TIP3   OH233582   4.757   3.808   3.722 -0.4711 -0.0895  0.3686
 4056TIP3    H133583   4.692   3.788   3.790 -0.2700  0.0172  0.5917
 4056TIP3    H233584   4.705   3.828   3.645 -0.7131 -4.4510 -0.7513
 4057TIP3   OH233585   0.848   5.548  16.281  0.2228  0.1389 -0.1845
 4057TIP3    H133586   0.848   5.468  16.334 -2.1482  0.8217  0.9423
 4057TIP3    H233587   0.826   5.618  16.343  1.2388  1.5156 -1.3527
 4058TIP3   OH233588   2.275   3.423   3.212 -0.0821 -0.3968 -0.1134
 4058TIP3    H133589   2.183   3.446   3.223  0.5776  3.4567 -1.7179
 4058TIP3    H233590   2.321   3.507   3.213  3.2600 -2.1147 -0.8640
 4059TIP3   OH233591   5.646   5.829   3.989 -0.3090 -0.2706  0.1525
 4059TIP3    H133592   5.596   5.893   4.039  1.8384 -0.0994  2.1873
 4059TIP3    H233593   5.678   5.767   4.054  0.2878 -1.6025 -1.3790
 4060TIP3   OH233594   1.254   4.011   5.411  0.3035 -0.6732  0.2096
 4060TIP3    H133595   1.274   3.919   5.425  0.1955 -0.7296 -0.0133
 4060TIP3    H233596   1.171   4.011   5.364  0.8117 -0.4801 -0.6866
 4061TIP3   OH233597   3.130   3.499   6.024 -0.0735  0.4975  0.4916
 4061TIP3    H133598   3.165   3.540   5.945 -0.7978  2.5384  1.1940
 4061TIP3    H233599   3.109   3.573   6.082 -2.0348 -0.8528  1.5469
 4062TIP3   OH233600   0.481   6.268  12.273 -0.1385  0.4875 -0.2023
 4062TIP3    H133601   0.506   6.326  12.201 -1.0486  0.3551 -0.6380
 4062TIP3    H233602   0.456   6.327  12.344 -2.0921  0.6771 -1.0010
 4063TIP3   OH233603   0.500   5.015  14.093  0.0418 -0.3623 -0.0600
 4063TIP3    H133604   0.412   5.007  14.056  0.2522  3.1378 -1.5035
 4063TIP3    H233605   0.557   4.973  14.027 -0.1560  0.9129 -1.0577
 4064TIP3   OH233606   2.048   3.852   3.852 -0.6156  0.9379  0.1536
 4064TIP3    H133607   1.986   3.908   3.805  1.3187  3.3543  0.4006
 4064TIP3    H233608   2.125   3.907   3.866  1.3289 -1.7509  0.5251
 4065TIP3   OH233609   6.617   4.739   4.151 -0.0265 -0.2845  0.4952
 4065TIP3    H133610   6.695   4.684   4.163  1.6906  1.7654 -0.9837
 4065TIP3    H233611   6.650   4.829   4.153 -2.4960  0.6471  0.7666
 4066TIP3   OH233612   5.560   1.371  15.747 -0.3014  0.4119  0.0832
 4066TIP3    H133613   5.537   1.331  15.663 -0.5605  0.3957  0.1626
 4066TIP3    H233614   5.559   1.465  15.729  0.2000  0.3893 -0.0782
 4067TIP3   OH233615   5.607   5.330   5.041  0.4644  0.3721  0.4832
 4067TIP3    H133616   5.676   5.396   5.051  0.5946 -0.0412  2.5772
 4067TIP3    H233617   5.623   5.292   4.955  3.7702 -0.6591  1.4459
 4068TIP3   OH233618   0.928   1.055  14.596  0.3383  0.1777 -0.9445
 4068TIP3    H133619   0.972   0.979  14.557  0.3498  0.5825 -1.7158
 4068TIP3    H233620   0.999   1.110  14.629  0.3004 -0.6751  0.6378
 4069TIP3   OH233621   5.337   5.601   2.097  0.0242  0.2834  0.9492
 4069TIP3    H133622   5.404   5.588   2.164 -0.6854  3.0041  2.2692
 4069TIP3    H233623   5.257   5.565   2.136  0.1290 -0.4383  0.5078
 4070TIP3   OH233624   2.253   6.777   1.360 -0.0266 -0.0007 -0.2677
 4070TIP3    H133625   2.296   6.692   1.356 -0.4946 -0.2375 -0.3942
 4070TIP3    H233626   2.247   6.798   1.453 -0.6439 -0.4848 -0.1990
 4071TIP3   OH233627   2.947   6.362  11.281  0.2033  1.0021 -0.2367
 4071TIP3    H133628   2.862   6.325  11.259  0.2650  1.5209 -1.3808
 4071TIP3    H233629   2.956   6.348  11.375 -0.0696 -1.2980 -0.5175
 4072TIP3   OH233630   3.783   5.310   2.904 -0.0989 -0.2256  0.0065
 4072TIP3    H133631   3.832   5.339   2.827 -0.3139 -1.2439 -0.5274
 4072TIP3    H233632   3.726   5.383   2.925 -0.9337 -0.4113 -1.5672
 4073TIP3   OH233633   2.658   4.041   2.801 -0.0252  0.0542  0.4939
 4073TIP3    H133634   2.703   4.063   2.719 -1.0633 -1.2522 -0.4469
 4073TIP3    H233635   2.589   4.107   2.808  0.8528  0.9246  0.9660
 4074TIP3   OH233636   1.547   1.379  16.459  0.7048 -0.2026 -0.4673
 4074TIP3    H133637   1.538   1.307  16.522 -0.6055  0.8295  0.5278
 4074TIP3    H233638   1.525   1.458  16.508 -1.8697  0.4760 -2.5835
 4075TIP3   OH233639   0.379   2.039  13.075 -0.0372 -0.8566 -0.2154
 4075TIP3    H133640   0.418   1.955  13.054  1.6120 -0.4139  0.9620
 4075TIP3    H233641   0.305   2.018  13.132 -0.4248 -1.5699 -0.9637
 4076TIP3   OH233642   3.059   4.961   2.134  0.4257  0.0930 -0.1840
 4076TIP3    H133643   3.018   4.895   2.079  1.1591 -1.5903  1.2384
 4076TIP3    H233644   3.140   4.984   2.088 -0.8187  1.5699 -1.7171
 4077TIP3   OH233645   1.915   5.237   6.122 -0.3403  0.0364 -0.8276
 4077TIP3    H133646   1.866   5.173   6.173 -0.1901  1.1373  0.7021
 4077TIP3    H233647   1.987   5.264   6.179  1.1227 -0.3484 -2.4342
 4078TIP3   OH233648   0.017   1.679   3.616 -0.3449  0.0425  0.1721
 4078TIP3    H133649  -0.029   1.754   3.577  0.4277  0.4348 -0.0094
 4078TIP3    H233650  -0.045   1.607   3.610  0.3222 -0.3387 -3.3542
 4079TIP3   OH233651   2.099   6.626   3.507  0.1736  0.3988  0.5984
 4079TIP3    H133652   2.148   6.689   3.454 -1.1018 -0.1512 -1.3218
 4079TIP3    H233653   2.008   6.652   3.496 -0.2050 -0.5616  1.4384
 4080TIP3   OH233654   0.497   1.795  13.557  0.4609 -0.5145  0.5282
 4080TIP3    H133655   0.450   1.828  13.634  0.0707  1.2496 -0.4326
 4080TIP3    H233656   0.588   1.820  13.572  0.2179  0.7409 -0.0483
 4081TIP3   OH233657   1.536   5.119   4.051  0.1338  0.2682 -0.6620
 4081TIP3    H133658   1.452   5.108   4.007 -0.0165 -0.3543 -0.2207
 4081TIP3    H233659   1.514   5.133   4.143  0.4922  0.5401 -0.6169
 4082TIP3   OH233660   1.918   2.016  10.856  0.9410 -0.3854  0.6513
 4082TIP3    H133661   1.978   2.028  10.783  2.0367  0.6752  1.6820
 4082TIP3    H233662   1.890   1.925  10.850 -1.6463  0.5478 -3.0375
 4083TIP3   OH233663   1.306   4.240  12.184  0.1672 -1.1994 -0.0205
 4083TIP3    H133664   1.318   4.178  12.111  0.2696 -0.7453 -0.3878
 4083TIP3    H233665   1.262   4.315  12.145 -1.3992 -1.6955  0.7701
 4084TIP3   OH233666   2.600   5.830  15.993  0.2031 -0.0261  0.5914
 4084TIP3    H133667   2.629   5.917  16.021 -0.4976  1.4423 -3.0284
 4084TIP3    H233668   2.668   5.801  15.932 -0.1844 -1.5124  0.8582
 4085TIP3   OH233669   3.638   1.457   3.581 -0.3781 -0.0848 -0.3519
 4085TIP3    H133670   3.717   1.503   3.556 -0.5756  0.6366  0.3317
 4085TIP3    H233671   3.615   1.405   3.504 -1.5558  2.8791 -2.0611
 4086TIP3   OH233672   2.202   1.040   3.615 -0.1961 -1.2827  0.1312
 4086TIP3    H133673   2.189   1.105   3.685 -0.3199 -0.6661 -0.4549
 4086TIP3    H233674   2.224   1.093   3.538  0.2198 -1.9778 -0.2262
 4087TIP3   OH233675   3.961   1.142  17.159  0.7534  0.2009  0.6391
 4087TIP3    H133676   3.953   1.171  17.068 -0.2696  1.5559  1.1468
 4087TIP3    H233677   3.933   1.217  17.211  2.2767 -0.2365  2.1155
 4088TIP3   OH233678   3.367   6.110   1.640 -0.0771  0.1444 -0.6390
 4088TIP3    H133679   3.333   6.184   1.689 -1.4742 -1.5115  0.9515
 4088TIP3    H233680   3.444   6.082   1.690  0.7966  0.8739 -1.5620
 4089TIP3   OH233681   3.795   1.856  16.127 -0.3649 -0.0839  0.4400
 4089TIP3    H133682   3.829   1.939  16.162 -0.6054  0.4911 -0.6748
 4089TIP3    H233683   3.812   1.861  16.033 -2.5768 -0.2526  0.0121
 4090TIP3   OH233684   4.219   3.868  15.302 -0.1797 -0.6324  0.8349
 4090TIP3    H133685   4.212   3.781  15.340 -1.6467  0.3112  2.7784
 4090TIP3    H233686   4.147   3.917  15.340 -0.0694  1.1195 -1.1370
 4091TIP3   OH233687   3.529   0.313  16.564  0.0425 -0.2534  0.1696
 4091TIP3    H133688   3.575   0.229  16.562  0.0667 -0.2092 -1.8008
 4091TIP3    H233689   3.452   0.300  16.508 -1.2826  0.2914  1.8289
 4092TIP3   OH233690   3.829   6.396   3.021 -0.4207 -0.2264 -0.0633
 4092TIP3    H133691   3.837   6.466   2.955 -2.3948  0.3120  0.2325
 4092TIP3    H233692   3.859   6.317   2.976  2.3580  0.8737 -0.2383
 4093TIP3   OH233693   6.256   5.090  15.883 -0.4930  0.3440 -0.5265
 4093TIP3    H133694   6.256   5.083  15.978  0.0248 -1.5849 -0.6417
 4093TIP3    H233695   6.188   5.029  15.854  0.3859 -0.2225 -1.4461
 4094TIP3   OH233696   0.816   5.949  12.915 -0.1985  0.4844  0.1430
 4094TIP3    H133697   0.731   5.985  12.890 -1.4472 -1.8093  0.9846
 4094TIP3    H233698   0.806   5.854  12.904  2.1546  0.1659  0.5446
 4095TIP3   OH233699   2.103   6.302   0.859  0.0122  0.1636  0.7243
 4095TIP3    H133700   2.047   6.236   0.818 -0.1164 -0.0762  1.2808
 4095TIP3    H233701   2.151   6.253   0.926  0.7965  0.3913  0.3325
 4096TIP3   OH233702   5.156   4.893   0.090  0.3359  0.0057  0.3568
 4096TIP3    H133703   5.202   4.977   0.081 -1.2267  0.8185 -0.1854
 4096TIP3    H233704   5.147   4.880   0.185  0.8524  0.2987  0.4466
 4097TIP3   OH233705   5.253   1.636  12.028 -1.1006  0.1791 -0.4147
 4097TIP3    H133706   5.181   1.671  12.080 -1.3649  0.2683 -0.8401
 4097TIP3    H233707   5.210   1.589  11.956 -0.7529 -0.9750  0.1150
 4098TIP3   OH233708   4.869   3.518  15.272  0.2068 -0.4031 -0.1378
 4098TIP3    H133709   4.936   3.456  15.243  0.9615 -0.8044  2.3328
 4098TIP3    H233710   4.786   3.477  15.248  0.7856 -0.7140 -1.6511
 4099TIP3   OH233711   3.253   3.459  13.365  0.2232  0.1146  1.2432
 4099TIP3    H133712   3.199   3.391  13.325 -1.2217  1.8980  0.0991
 4099TIP3    H233713   3.339   3.447  13.325  0.0415 -1.1560  1.1977
 4100TIP3   OH233714   4.812   0.784  15.298 -0.4233  0.0126 -0.4445
 4100TIP3    H133715   4.844   0.709  15.247  0.8976 -0.6474  1.3160
 4100TIP3    H233716   4.868   0.857  15.273 -0.7631  0.0570 -1.0739
 4101TIP3   OH233717   6.422   5.153  17.083 -0.0969  0.3615  0.0915
 4101TIP3    H133718   6.328   5.159  17.096 -0.1383  0.8987 -0.4163
 4101TIP3    H233719   6.452   5.244  17.086  0.7239  0.0657  2.5197
 4102TIP3   OH233720   2.275   0.204   2.011  0.8927  0.1501 -0.6937
 4102TIP3    H133721   2.201   0.223   2.069  1.3433  0.1518 -0.1190
 4102TIP3    H233722   2.238   0.210   1.923 -0.2018 -1.5351 -0.3791
 4103TIP3   OH233723   5.961   3.186  11.445 -0.3358 -0.4084  0.2541
 4103TIP3    H133724   5.953   3.128  11.370 -0.6960  0.0269 -0.0390
 4103TIP3    H233725   5.994   3.129  11.515  0.7890 -0.6384 -0.4472
 4104TIP3   OH233726   2.862   3.231   2.521  0.2403  0.3207  0.1040
 4104TIP3    H133727   2.908   3.312   2.498  0.2997 -0.1443 -1.4777
 4104TIP3    H233728   2.910   3.197   2.596 -1.3757  3.0818  2.4877
 4105TIP3   OH233729   3.335   2.137   5.714 -0.4272  0.1596 -0.4640
 4105TIP3    H133730   3.318   2.114   5.805 -0.8003 -0.4389 -0.6836
 4105TIP3    H233731   3.301   2.226   5.706  0.3491  0.5222  0.1890
 4106TIP3   OH233732   5.062   1.414   5.164  0.0632  0.1778  0.1755
 4106TIP3    H133733   5.032   1.366   5.087  1.6501  0.1385 -0.4438
 4106TIP3    H233734   4.983   1.454   5.199 -0.8956 -0.9109 -0.6919
 4107TIP3   OH233735   3.007   4.768   4.635  0.0850  0.3559  0.3201
 4107TIP3    H133736   2.974   4.709   4.703 -0.1397 -0.9670 -0.9201
 4107TIP3    H233737   2.957   4.745   4.557  0.6678  1.5501 -0.4246
 4108TIP3   OH233738   2.093   0.615   0.867  0.2225  0.8231 -0.6019
 4108TIP3    H133739   2.081   0.702   0.828 -1.0869  0.9190 -0.0147
 4108TIP3    H233740   2.098   0.631   0.961 -0.6338  0.2093 -0.4445
 4109TIP3   OH233741   4.376   5.873  15.197 -0.0509  0.1279  0.1244
 4109TIP3    H133742   4.433   5.943  15.227  1.0620 -1.1186  0.9679
 4109TIP3    H233743   4.339   5.836  15.277 -2.1069  0.9575 -0.4145
 4110TIP3   OH233744   0.711   3.056  12.548 -0.3492  0.2777 -0.2199
 4110TIP3    H133745   0.619   3.046  12.574 -0.0988  0.5949  0.7870
 4110TIP3    H233746   0.760   3.044  12.629  0.4318  1.4353 -0.5121
 4111TIP3   OH233747   1.370   0.999  11.117 -0.2021 -0.3214  0.1651
 4111TIP3    H133748   1.310   0.949  11.172 -0.4534 -1.8626 -1.4710
 4111TIP3    H233749   1.333   0.994  11.029  0.0541  2.3279 -0.1520
 4112TIP3   OH233750   4.696   4.049  12.482  0.1861 -0.3144  0.7712
 4112TIP3    H133751   4.643   4.040  12.561 -0.5888  0.9405  0.4044
 4112TIP3    H233752   4.708   3.959  12.451 -1.0633 -0.6647  1.2812
 4113TIP3   OH233753   5.636   0.406  13.873 -0.6479 -0.3097  0.1450
 4113TIP3    H133754   5.638   0.338  13.940 -2.2531 -0.3583  0.1716
 4113TIP3    H233755   5.556   0.455  13.892 -0.7778  0.0820 -1.3517
 4114TIP3   OH233756   5.598   6.114  11.261  0.0698 -0.2371  0.6179
 4114TIP3    H133757   5.681   6.131  11.306 -0.1992  0.3050  0.9110
 4114TIP3    H233758   5.560   6.201  11.247 -0.0532 -0.4373 -0.2679
 4115TIP3   OH233759   3.832   1.409  12.795  0.2211 -0.2532 -0.2697
 4115TIP3    H133760   3.892   1.447  12.730 -0.1244 -0.7794 -0.8982
 4115TIP3    H233761   3.871   1.432  12.879 -0.1152  1.7564 -0.6163
 4116TIP3   OH233762   6.065   6.115  12.571  0.2757  0.3761 -0.5777
 4116TIP3    H133763   6.036   6.146  12.484  0.3323  1.2147 -0.3048
 4116TIP3    H233764   6.028   6.179  12.632  1.7965  0.8376 -0.1293
 4117TIP3   OH233765   0.321   1.224  14.343  0.7209  0.2007 -0.4326
 4117TIP3    H133766   0.259   1.223  14.415  0.8850 -0.8190 -0.2996
 4117TIP3    H233767   0.363   1.310  14.349  1.1840 -0.1098  1.0719
 4118TIP3   OH233768   0.446   1.009   3.338  0.3807 -0.1594  0.7638
 4118TIP3    H133769   0.442   1.084   3.398  0.4222  1.1997 -0.8672
 4118TIP3    H233770   0.512   1.034   3.274 -2.8755  0.5214 -2.5051
 4119TIP3   OH233771   4.823   5.443  16.155  0.6461  0.2973  0.2433
 4119TIP3    H133772   4.816   5.406  16.067 -0.5329 -1.3724  0.9956
 4119TIP3    H233773   4.892   5.390  16.197  2.1677  1.9754 -0.0802
 4120TIP3   OH233774   3.017   3.108  13.776  0.1389  0.9194 -0.4191
 4120TIP3    H133775   2.952   3.175  13.752 -1.8688 -0.7200  0.3482
 4120TIP3    H233776   2.987   3.028  13.734  2.6475  0.4823 -1.5104
 4121TIP3   OH233777   4.098   5.192   0.054  0.5697  0.0279 -0.0837
 4121TIP3    H133778   4.116   5.210  -0.039 -0.5307  0.2762 -0.2519
 4121TIP3    H233779   4.011   5.228   0.069  1.8581  2.5418  1.7585
 4122TIP3   OH233780   3.810   2.166  15.143  0.5829  0.2387  0.2587
 4122TIP3    H133781   3.872   2.154  15.214  0.2541 -0.7154  0.3932
 4122TIP3    H233782   3.819   2.087  15.090 -0.1684  0.3119  0.0177
 4123TIP3   OH233783   1.192   1.722  14.381 -0.3451 -0.1693 -0.0842
 4123TIP3    H133784   1.219   1.695  14.293  2.7374 -2.3251  1.4197
 4123TIP3    H233785   1.246   1.799  14.400  2.3408 -2.3696  1.5637
 4124TIP3   OH233786   0.030   0.635   4.617  0.8238  0.1485 -0.2663
 4124TIP3    H133787   0.049   0.581   4.541  1.3706 -1.7938  1.2210
 4124TIP3    H233788   0.102   0.618   4.678 -1.3838 -0.9841  2.0931
 4125TIP3   OH233789   6.489   4.061  10.664 -0.0957 -0.7982  0.0711
 4125TIP3    H133790   6.482   4.106  10.580 -0.9094 -0.0210  0.5476
 4125TIP3    H233791   6.576   4.021  10.662  0.8650  1.2325 -0.1691
 4126TIP3   OH233792   2.176   6.760   2.669 -0.6991  0.6981  0.2178
 4126TIP3    H133793   2.124   6.770   2.749 -1.1790 -2.1219  0.3317
 4126TIP3    H233794   2.266   6.755   2.699 -0.6995  1.5935  0.3871
 4127TIP3   OH233795   0.542   3.528   1.209  0.1102  0.1845 -0.2583
 4127TIP3    H133796   0.465   3.557   1.159 -0.7755  2.8247  2.4924
 4127TIP3    H233797   0.616   3.571   1.166 -0.2254 -0.3811 -1.4147
 4128TIP3   OH233798   3.725   0.069   2.129  0.0053 -0.0039  0.6707
 4128TIP3    H133799   3.735   0.149   2.079  1.6357 -1.4793 -1.4733
 4128TIP3    H233800   3.631   0.058   2.138 -0.3139  0.5688 -1.6794
 4129TIP3   OH233801   5.685   5.217  12.085  0.0065  0.5346 -0.4909
 4129TIP3    H133802   5.604   5.227  12.036  0.2100 -2.6669 -1.6474
 4129TIP3    H233803   5.658   5.193  12.173 -0.3063  1.4670 -0.3276
 4130TIP3   OH233804   4.676   0.441  17.133 -0.0491 -0.2753 -0.3285
 4130TIP3    H133805   4.700   0.413  17.221  0.0629  0.9308  0.0399
 4130TIP3    H233806   4.590   0.481  17.144  0.2171  0.3935 -0.6599
 4131TIP3   OH233807   3.702   6.779  12.899 -0.6221 -0.7346  0.1922
 4131TIP3    H133808   3.722   6.722  12.974 -1.2445 -3.6922 -1.7823
 4131TIP3    H233809   3.617   6.748  12.868  0.8249 -1.4339 -3.3367
 4132TIP3   OH233810   5.296   0.625   1.357 -0.6483  0.0697  0.1833
 4132TIP3    H133811   5.269   0.677   1.432 -0.9280 -0.1709  0.2515
 4132TIP3    H233812   5.391   0.629   1.357 -0.6561  0.2205  0.4408
 4133TIP3   OH233813   2.159   2.628  11.821  0.8037 -0.2757  0.0724
 4133TIP3    H133814   2.092   2.563  11.842  0.6561 -0.9386 -2.3317
 4133TIP3    H233815   2.112   2.698  11.775  1.1914  0.9321  1.4574
 4134TIP3   OH233816   5.697   3.992  16.540  0.5822  0.2304  0.4813
 4134TIP3    H133817   5.767   3.929  16.559 -0.4407 -0.8012  0.9610
 4134TIP3    H233818   5.738   4.059  16.487  1.3624 -1.6556 -1.3587
 4135TIP3   OH233819   0.735   3.088   0.778 -0.4807  0.3296  0.9049
 4135TIP3    H133820   0.659   3.034   0.798  0.5876 -1.9648 -0.9893
 4135TIP3    H233821   0.791   3.080   0.856 -1.1115  0.0909  1.3343
 4136TIP3   OH233822   1.439   5.718   0.713 -0.7364 -0.3543 -0.0666
 4136TIP3    H133823   1.393   5.755   0.788 -0.4465 -1.1949  0.5267
 4136TIP3    H233824   1.384   5.645   0.684 -0.9051  0.0360 -0.7392
 4137TIP3   OH233825   0.878   5.996   5.901  0.4472 -0.5553 -0.3355
 4137TIP3    H133826   0.881   5.960   5.990 -0.5344 -0.2281 -0.1684
 4137TIP3    H233827   0.969   5.991   5.871  1.0333  0.5477  1.1637
 4138TIP3   OH233828   4.261   3.921  11.674 -0.5966 -0.0253  0.4537
 4138TIP3    H133829   4.216   3.999  11.643 -1.0360 -0.2250  0.5892
 4138TIP3    H233830   4.354   3.944  11.668 -0.6459 -0.2920 -1.5678
 4139TIP3   OH233831   1.067   2.188  11.007  0.4699 -0.3315  0.0755
 4139TIP3    H133832   1.127   2.116  10.989  0.8405  0.6608 -2.9290
 4139TIP3    H233833   1.088   2.254  10.941 -2.4689  0.9305  0.3254
 4140TIP3   OH233834   0.679   1.385  16.055 -0.0045 -0.0683 -0.0429
 4140TIP3    H133835   0.609   1.357  15.997 -0.4231 -1.6026  1.1486
 4140TIP3    H233836   0.692   1.477  16.035 -2.9328  0.4675  0.2926
 4141TIP3   OH233837   2.419   6.110  11.575  0.2385 -0.3581 -0.4879
 4141TIP3    H133838   2.430   6.166  11.498 -1.1305 -0.0128 -0.4374
 4141TIP3    H233839   2.505   6.070  11.587  1.2148  1.6101 -0.6225
 4142TIP3   OH233840   4.237   6.304  11.642  0.5883 -0.5010  0.2023
 4142TIP3    H133841   4.264   6.396  11.636 -0.4836 -0.2563 -0.9805
 4142TIP3    H233842   4.146   6.307  11.671 -0.1419 -1.0835 -1.9066
 4143TIP3   OH233843   1.897   1.492   4.002 -0.3864  0.5259  0.4450
 4143TIP3    H133844   1.960   1.442   3.952 -0.0833  1.3729 -0.0325
 4143TIP3    H233845   1.816   1.487   3.951 -0.3501  0.5335  0.3866
 4144TIP3   OH233846   0.183   5.329   5.440  0.1804 -0.4091 -0.5389
 4144TIP3    H133847   0.215   5.241   5.462  1.7275  0.2858  0.0967
 4144TIP3    H233848   0.228   5.386   5.502  0.7968  1.0566 -2.3091
 4145TIP3   OH233849   3.991   6.447  15.191  0.2686 -0.5626 -0.5816
 4145TIP3    H133850   4.018   6.504  15.263 -0.1490  0.0728 -0.9173
 4145TIP3    H233851   3.955   6.370  15.234  0.5071 -0.4234 -0.1167
 4146TIP3   OH233852   4.569   4.226   5.347 -0.0810 -0.2929  0.2516
 4146TIP3    H133853   4.492   4.236   5.292  0.5353  2.7623 -0.1700
 4146TIP3    H233854   4.631   4.176   5.294 -0.0829  1.2519 -1.2229
 4147TIP3   OH233855   2.470   4.220  11.957 -0.2433  0.1306 -0.3091
 4147TIP3    H133856   2.544   4.217  11.895 -0.7774  0.2614 -0.9620
 4147TIP3    H233857   2.501   4.277  12.028  0.7458 -0.8145  0.0380
 4148TIP3   OH233858   0.637   5.108  14.323 -0.1037 -0.2187  0.1849
 4148TIP3    H133859   0.571   5.098  14.255  0.4725 -0.7635 -0.2985
 4148TIP3    H233860   0.596   5.165  14.388 -0.7016  0.2039 -0.5549
 4149TIP3   OH233861   3.684   4.898  16.850 -0.3114  0.1587  0.1306
 4149TIP3    H133862   3.599   4.882  16.891 -0.1011 -0.8592  0.1826
 4149TIP3    H233863   3.665   4.956  16.776 -0.7932  1.3923  1.2136
 4150TIP3   OH233864   4.189   3.861   5.694  0.5886 -0.2535 -0.4004
 4150TIP3    H133865   4.125   3.792   5.709  0.3230 -0.1385 -0.9854
 4150TIP3    H233866   4.246   3.858   5.771  1.4904 -2.1137 -1.1051
 4151TIP3   OH233867   2.540   3.775  13.753  0.2577  0.0148  0.3339
 4151TIP3    H133868   2.531   3.790  13.659  0.1901 -1.0529  0.1709
 4151TIP3    H233869   2.545   3.863  13.790  0.3321  0.4441 -0.6700
 4152TIP3   OH233870   5.692   0.414  15.769 -0.0826 -0.3385  0.2227
 4152TIP3    H133871   5.666   0.486  15.826 -1.3201  0.4845 -1.3455
 4152TIP3    H233872   5.703   0.340  15.828  0.2681  0.8814  1.7440
 4153TIP3   OH233873   2.091   3.660   1.773  0.2083  0.0259  0.6451
 4153TIP3    H133874   2.081   3.566   1.755 -1.5410  0.4667 -0.7826
 4153TIP3    H233875   2.003   3.696   1.764  1.3147  2.3027 -1.8748
 4154TIP3   OH233876   2.068   4.546   4.838 -0.5206 -0.0866  0.2108
 4154TIP3    H133877   2.041   4.637   4.823 -1.2928 -0.5833 -1.5478
 4154TIP3    H233878   2.109   4.547   4.924 -0.8887  1.8539  0.3853
 4155TIP3   OH233879   1.277   2.562   0.562 -1.0927 -0.2153 -0.0132
 4155TIP3    H133880   1.344   2.576   0.495 -0.8283 -0.4932  0.1934
 4155TIP3    H233881   1.207   2.624   0.539 -0.8826 -0.1133 -0.3820
 4156TIP3   OH233882   5.082   5.671  15.919  0.0680  0.5747  0.2572
 4156TIP3    H133883   5.112   5.758  15.893 -0.2297  1.3345  2.3220
 4156TIP3    H233884   5.098   5.668  16.013  1.0228 -2.0140  0.0449
 4157TIP3   OH233885   5.269   1.494   1.625  0.2343  0.8487 -0.2362
 4157TIP3    H133886   5.255   1.580   1.586  2.1687  1.5052  0.4754
 4157TIP3    H233887   5.362   1.476   1.610 -0.2393 -1.3203 -0.7565
 4158TIP3   OH233888   0.550   0.161   4.543  0.3505 -0.0092 -0.2403
 4158TIP3    H133889   0.609   0.124   4.477  1.5303  2.2433 -0.4943
 4158TIP3    H233890   0.598   0.155   4.625  0.4543  0.7719 -0.2476
 4159TIP3   OH233891   1.484   3.741   2.058  0.6090 -0.5266 -0.3335
 4159TIP3    H133892   1.557   3.678   2.052 -0.7961 -2.1358 -0.9125
 4159TIP3    H233893   1.425   3.715   1.987  0.1108  1.6353 -0.7449
 4160TIP3   OH233894   5.727   0.202  11.478 -0.5012 -0.1010  0.4541
 4160TIP3    H133895   5.649   0.147  11.490 -0.1837 -0.1898  2.1827
 4160TIP3    H233896   5.731   0.255  11.558 -1.1104  2.8502 -1.3904
 4161TIP3   OH233897   3.725   6.442   6.326  0.1617  0.1013  0.8031
 4161TIP3    H133898   3.785   6.409   6.392 -0.0147  0.6335  1.2290
 4161TIP3    H233899   3.655   6.484   6.376 -0.4071 -0.2441  0.3046
 4162TIP3   OH233900   4.594   6.723   4.743  0.4695  0.2214  0.1971
 4162TIP3    H133901   4.667   6.714   4.805  0.9388  0.6586 -0.2911
 4162TIP3    H233902   4.597   6.815   4.717 -0.4450  0.3091  0.4042
 4163TIP3   OH233903   5.184   2.688   5.329  0.4907 -0.2377 -0.1209
 4163TIP3    H133904   5.150   2.746   5.398  2.5362  0.0151  0.7043
 4163TIP3    H233905   5.164   2.600   5.361  0.4663 -0.0839  0.2968
 4164TIP3   OH233906   5.077   5.007   2.235 -0.2580 -0.5961  0.0866
 4164TIP3    H133907   5.083   4.911   2.233 -0.2372 -0.5847 -0.6903
 4164TIP3    H233908   4.986   5.024   2.259 -0.0529 -0.8034  1.0349
 4165TIP3   OH233909   1.275   1.783   1.164  0.0026  0.3149  0.4974
 4165TIP3    H133910   1.227   1.806   1.244  0.7758  2.0768  0.4574
 4165TIP3    H233911   1.331   1.858   1.147  0.2784 -0.3030 -1.3916
 4166TIP3   OH233912   2.629   2.224  12.333 -0.0844  0.5284 -0.0946
 4166TIP3    H133913   2.698   2.244  12.270  0.6107  1.1591  0.8446
 4166TIP3    H233914   2.671   2.232  12.418 -1.0235 -0.2583  0.4555
 4167TIP3   OH233915   5.602   4.393   2.217  0.4451 -0.3011  0.0771
 4167TIP3    H133916   5.588   4.304   2.249  0.0616  0.0409  0.9086
 4167TIP3    H233917   5.629   4.383   2.126 -1.0992 -1.1963 -0.2964
 4168TIP3   OH233918   0.200   1.410   6.238  0.6485 -0.1959  0.0707
 4168TIP3    H133919   0.243   1.427   6.322 -1.5909 -0.7127  1.3588
 4168TIP3    H233920   0.190   1.315   6.235  0.6354 -0.1676 -0.7509
 4169TIP3   OH233921   1.778   5.971  14.324 -0.3213  0.0994 -0.2263
 4169TIP3    H133922   1.787   6.043  14.261 -1.4664  0.6156  0.1836
 4169TIP3    H233923   1.801   5.893  14.274  3.6297  0.9817  0.0152
 4170TIP3   OH233924   1.201   2.021   1.370 -0.0088  0.0017 -0.4847
 4170TIP3    H133925   1.158   2.106   1.359  3.0126  1.4636 -1.7609
 4170TIP3    H233926   1.256   2.012   1.291  1.6182 -1.9532  0.8221
 4171TIP3   OH233927   4.648   3.632   1.367 -0.4118 -0.0998 -0.0809
 4171TIP3    H133928   4.635   3.726   1.379 -1.7892 -0.2622 -0.2133
 4171TIP3    H233929   4.742   3.623   1.348 -0.6167  1.4476 -1.9558
 4172TIP3   OH233930   2.984   4.870   6.098 -0.5014 -0.1280 -0.2146
 4172TIP3    H133931   3.074   4.901   6.098 -0.3665 -0.4388 -2.6655
 4172TIP3    H233932   2.947   4.903   6.180  0.9873  2.4900 -0.5468
 4173TIP3   OH233933   4.825   4.641   5.268 -0.4183  0.5894  0.1630
 4173TIP3    H133934   4.763   4.715   5.263  0.0431  1.1056  1.8377
 4173TIP3    H233935   4.778   4.574   5.316 -0.3837  0.2369 -0.2893
 4174TIP3   OH233936   4.351   3.707   4.413  0.2340 -0.2160  0.1380
 4174TIP3    H133937   4.356   3.737   4.322  1.0494  2.4226  1.0312
 4174TIP3    H233938   4.433   3.734   4.452 -0.4079 -0.7110  1.8751
 4175TIP3   OH233939   5.186   4.582   3.708 -0.0484 -0.2001  0.1806
 4175TIP3    H133940   5.125   4.626   3.649 -0.0103  0.3001  0.5163
 4175TIP3    H233941   5.205   4.499   3.664 -0.9919 -0.3753  0.0915
 4176TIP3   OH233942   1.149   0.715   4.128 -0.3636 -0.3253 -0.0704
 4176TIP3    H133943   1.090   0.746   4.060 -0.0161 -0.0748 -0.2603
 4176TIP3    H233944   1.211   0.787   4.141 -0.0351 -0.6267  0.0515
 4177TIP3   OH233945   3.974   2.169   2.908 -0.1410  0.1957 -0.1284
 4177TIP3    H133946   3.914   2.193   2.979 -0.8928 -0.4451 -0.5572
 4177TIP3    H233947   3.973   2.074   2.906 -0.6834  0.2233 -1.4929
 4178TIP3   OH233948   3.729   4.983  14.334  0.2519  0.0697  0.0150
 4178TIP3    H133949   3.768   4.999  14.420  0.2778 -1.6409  0.3259
 4178TIP3    H233950   3.706   5.070  14.302  2.4650  0.9499  0.7121
 4179TIP3   OH233951   5.489   3.196   4.708 -0.2151 -0.0653  0.0675
 4179TIP3    H133952   5.463   3.202   4.800  0.0638 -0.1973  0.1549
 4179TIP3    H233953   5.481   3.285   4.674 -1.8466 -0.2912 -0.1880
 4180TIP3   OH233954   3.828   2.498   6.076  0.1324  0.2104  0.0645
 4180TIP3    H133955   3.782   2.540   6.148  0.2912 -1.0062  0.8883
 4180TIP3    H233956   3.886   2.567   6.042  0.0493  0.8000  1.0815
 4181TIP3   OH233957   5.200   1.739   5.358  0.2666 -0.5078  0.2774
 4181TIP3    H133958   5.222   1.709   5.269  0.3491 -0.5610  0.3156
 4181TIP3    H233959   5.251   1.820   5.368 -1.5381  0.7679 -0.5961
 4182TIP3   OH233960   5.024   0.028   0.852 -0.3587 -0.1556  0.2231
 4182TIP3    H133961   4.953   0.009   0.790  0.5505 -2.8785 -0.0519
 4182TIP3    H233962   5.001  -0.022   0.931 -0.5477  1.7962  1.4238
 4183TIP3   OH233963   2.761   2.251   5.118 -0.8041  0.6710  0.3965
 4183TIP3    H133964   2.671   2.224   5.096 -0.8117  1.7592 -0.9997
 4183TIP3    H233965   2.816   2.202   5.057 -0.5812  1.2892  0.1014
 4184TIP3   OH233966   6.732   5.293  14.619  0.7677 -0.2911  0.0489
 4184TIP3    H133967   6.745   5.388  14.617 -0.2008 -0.1550 -0.3740
 4184TIP3    H233968   6.722   5.268  14.527 -1.1352 -0.4583  0.2716
 4185TIP3   OH233969   4.090   5.200   3.576 -0.2128  0.2624 -0.1506
 4185TIP3    H133970   4.102   5.233   3.664 -2.4825 -2.8341  1.4162
 4185TIP3    H233971   4.061   5.276   3.526 -2.0866  1.3824  2.5349
 4186TIP3   OH233972   5.940   4.132   3.097  0.3058 -0.2750 -0.3528
 4186TIP3    H133973   5.971   4.055   3.145  0.9491  0.2932  0.1486
 4186TIP3    H233974   5.857   4.154   3.138 -0.2458 -1.1418 -0.9803
 4187TIP3   OH233975   4.301   0.811   4.605 -0.0515 -0.4835  0.2840
 4187TIP3    H133976   4.255   0.731   4.579  0.2486 -0.4669 -0.3280
 4187TIP3    H233977   4.232   0.877   4.613 -0.0210 -0.1177 -1.9730
 4188TIP3   OH233978   2.433   6.622  11.459  0.1646 -0.2163 -0.0367
 4188TIP3    H133979   2.375   6.579  11.396 -0.7036  0.3552  0.3602
 4188TIP3    H233980   2.374   6.665  11.521  1.0116  0.4212  0.3434
 4189TIP3   OH233981   2.628   1.809  16.787  0.2279  0.0454 -0.0807
 4189TIP3    H133982   2.534   1.806  16.806  0.3997 -1.1736  0.5834
 4189TIP3    H233983   2.670   1.771  16.864  1.3963  2.1812  0.3730
 4190TIP3   OH233984   2.285   1.633   2.213 -0.5482 -0.4445 -0.1729
 4190TIP3    H133985   2.331   1.649   2.295 -1.5939 -1.4816  0.6430
 4190TIP3    H233986   2.228   1.709   2.202 -0.6354 -0.4517  0.2314
 4191TIP3   OH233987   4.414   0.748  12.265  0.5893 -0.0514  0.1951
 4191TIP3    H133988   4.399   0.833  12.225  0.3257 -0.2536 -0.1430
 4191TIP3    H233989   4.458   0.767  12.348  2.5283  0.2677 -0.8958
 4192TIP3   OH233990   4.237   0.212   1.542  0.2442  0.3595 -0.1775
 4192TIP3    H133991   4.309   0.156   1.513  0.0957 -0.3477  0.7734
 4192TIP3    H233992   4.203   0.251   1.462  0.4048 -0.8549 -0.8543
 4193TIP3   OH233993   3.537   0.508   3.521 -0.2197  0.1889  0.0831
 4193TIP3    H133994   3.626   0.513   3.487 -0.8137  0.9514 -1.4216
 4193TIP3    H233995   3.489   0.458   3.456 -1.1534  0.7780  0.2992
 4194TIP3   OH233996   4.890   5.557   5.015  0.1799 -0.7597 -0.0024
 4194TIP3    H133997   4.833   5.489   5.051 -1.0454 -0.8364 -2.0235
 4194TIP3    H233998   4.935   5.593   5.091  0.1569 -3.1828  1.2098
 4195TIP3   OH233999   4.964   2.281   4.580  0.6680  0.5223 -0.1817
 4195TIP3    H134000   4.945   2.279   4.487  0.7919  0.4888 -0.2063
 4195TIP3    H234001   4.948   2.372   4.606  0.8827  0.5916 -0.2887
 4196TIP3   OH234002   2.755   6.629  12.667  0.1864  0.1296 -0.6828
 4196TIP3    H134003   2.788   6.719  12.670  2.2537 -0.5584 -1.6597
 4196TIP3    H234004   2.689   6.626  12.736  1.6369  1.7974  0.8519
 4197TIP3   OH234005   6.652   3.687  11.668 -0.4491 -0.5879 -0.1484
 4197TIP3    H134006   6.588   3.755  11.648  1.9498  1.3649 -1.4551
 4197TIP3    H234007   6.605   3.605  11.655 -2.8447  0.8009 -0.4304
 4198TIP3   OH234008   0.647   4.287   1.954 -0.5160  0.0207 -0.2214
 4198TIP3    H134009   0.561   4.251   1.933 -1.0311  1.4292 -0.6224
 4198TIP3    H234010   0.630   4.352   2.023  0.7833 -2.5920  2.6883
 4199TIP3   OH234011   3.526   6.401  14.912  0.2630 -0.2915 -0.3503
 4199TIP3    H134012   3.460   6.465  14.938 -0.0175  0.0776 -1.8974
 4199TIP3    H234013   3.558   6.364  14.994 -1.0229  0.3800  0.4691
 4200TIP3   OH234014   4.522   2.969   5.847  0.4262 -0.4303  0.3579
 4200TIP3    H134015   4.447   2.957   5.789  0.8033 -3.4422  0.3771
 4200TIP3    H234016   4.569   3.044   5.811  0.5445 -2.0845 -3.1635
 4201TIP3   OH234017   1.356   0.681  15.142 -0.1318 -0.1908  0.3858
 4201TIP3    H134018   1.275   0.665  15.191 -0.4351  0.9528  0.2693
 4201TIP3    H234019   1.415   0.721  15.205 -0.9976  2.5965 -0.4770
 4202TIP3   OH234020   0.900   5.515  14.691  0.0662 -0.1765  0.0804
 4202TIP3    H134021   0.882   5.518  14.597 -2.0558 -0.2712  0.4617
 4202TIP3    H234022   0.858   5.594  14.725  3.2176  1.3618  0.5936
 4203TIP3   OH234023   5.138   3.740  12.329 -0.0137  0.0733  0.6341
 4203TIP3    H134024   5.122   3.661  12.380 -3.1094  0.8394  0.9825
 4203TIP3    H234025   5.051   3.776  12.313  1.3131  3.4377  0.5324
 4204TIP3   OH234026   0.302   6.323   1.314  0.4582  0.4443  0.6229
 4204TIP3    H134027   0.221   6.368   1.337 -0.0433  0.4423 -1.0726
 4204TIP3    H234028   0.371   6.388   1.330 -0.1475  1.4354 -0.7107
 4205TIP3   OH234029   1.529   4.329  14.142 -0.3672 -0.4286  0.6656
 4205TIP3    H134030   1.602   4.387  14.117 -0.0184 -1.1749 -0.0654
 4205TIP3    H234031   1.566   4.272  14.209 -1.0783  1.0421  2.3393
 4206TIP3   OH234032   0.431   6.093   1.638 -0.3981  1.0451  0.4543
 4206TIP3    H134033   0.374   6.078   1.563  0.7336  0.2681 -0.2634
 4206TIP3    H234034   0.371   6.099   1.713 -1.2903 -2.3727  0.1041
 4207TIP3   OH234035   5.599   4.490   3.437 -0.3906 -0.9894 -0.3959
 4207TIP3    H134036   5.602   4.546   3.359 -2.3959  1.7529  1.4045
 4207TIP3    H234037   5.638   4.408   3.408  3.0606  1.4154 -3.0647
 4208TIP3   OH234038   0.039   4.307   5.237  0.2714  0.3095 -0.0783
 4208TIP3    H134039  -0.002   4.236   5.286 -0.4640  0.5707 -0.3179
 4208TIP3    H234040   0.099   4.263   5.177  0.7027 -0.0443  0.5968
 4209TIP3   OH234041   4.446   0.990  11.309  0.1407 -0.0978 -0.4549
 4209TIP3    H134042   4.487   0.946  11.235 -1.3165  0.6008 -1.7039
 4209TIP3    H234043   4.379   1.046  11.270  0.4640  1.5436  1.2688
 4210TIP3   OH234044   5.449   2.888  16.689  0.0004 -0.2415 -0.2535
 4210TIP3    H134045   5.361   2.856  16.708  0.0588 -0.9372 -1.1025
 4210TIP3    H234046   5.449   2.905  16.594  0.4490  0.7958 -0.0864
 4211TIP3   OH234047   0.135   3.326   4.313  0.1614 -0.8542  0.0769
 4211TIP3    H134048   0.216   3.290   4.279  0.4193 -0.4728  0.2862
 4211TIP3    H234049   0.162   3.399   4.369 -0.3912  0.5832 -1.4764
 4212TIP3   OH234050   2.972   6.682   3.883 -0.0946 -0.0419  0.3577
 4212TIP3    H134051   2.987   6.732   3.803  1.1881  0.9983  1.2256
 4212TIP3    H234052   3.026   6.603   3.872 -0.9511 -0.5307 -0.3641
 4213TIP3   OH234053   6.009   1.647   4.552  0.0641  0.0442  0.2204
 4213TIP3    H134054   5.917   1.622   4.555  0.0468 -0.1024 -1.1848
 4213TIP3    H234055   6.034   1.660   4.644 -1.3276  0.0081  0.6060
 4214TIP3   OH234056   2.792   5.925  15.314 -0.4088  0.3324  0.2026
 4214TIP3    H134057   2.713   5.973  15.291 -0.0354  0.4584 -0.8757
 4214TIP3    H234058   2.812   5.874  15.235  0.4104  0.0651  0.5781
 4215TIP3   OH234059   1.378   1.604  11.317  0.5095  0.1349  0.0402
 4215TIP3    H134060   1.354   1.696  11.301  0.1427  0.1137  0.4565
 4215TIP3    H234061   1.447   1.586  11.253 -0.5349  0.2216 -1.1253
 4216TIP3   OH234062   4.368   6.492  11.891 -0.0186 -0.5671  0.3155
 4216TIP3    H134063   4.439   6.498  11.827  0.7719  0.5778  1.2762
 4216TIP3    H234064   4.399   6.429  11.956 -0.7347 -1.5743 -0.3052
 4217TIP3   OH234065   3.435   5.363  15.962 -0.6808 -0.0394  0.2087
 4217TIP3    H134066   3.501   5.324  15.904 -0.8760 -0.8614  0.5334
 4217TIP3    H234067   3.432   5.455  15.936  0.5305 -0.0146  0.1314
 4218TIP3   OH234068   4.451   1.867   1.842  0.2762 -0.2679 -0.4945
 4218TIP3    H134069   4.373   1.901   1.886  0.2268 -3.3179  1.9290
 4218TIP3    H234070   4.417   1.826   1.762 -0.4325 -0.3776 -0.1423
 4219TIP3   OH234071   1.651   6.108  15.387 -0.1524  0.2182 -0.1908
 4219TIP3    H134072   1.736   6.150  15.394 -0.2564  0.3794  0.1249
 4219TIP3    H234073   1.606   6.131  15.468 -0.8544  0.9381 -0.7793
 4220TIP3   OH234074   5.340   4.565   3.443  0.1761 -0.6969 -0.1601
 4220TIP3    H134075   5.362   4.586   3.352  0.3840  2.7863  0.6259
 4220TIP3    H234076   5.403   4.498   3.468  0.8636 -0.8604 -2.2217
 4221TIP3   OH234077   4.941   0.358   5.235 -0.0957  0.8799 -0.2865
 4221TIP3    H134078   4.949   0.289   5.170  0.0971  2.2416 -1.7359
 4221TIP3    H234079   5.031   0.374   5.263 -0.0922  0.8792 -0.2972
 4222TIP3   OH234080   5.802   1.999   5.954 -0.1044  0.6324  0.1389
 4222TIP3    H134081   5.879   1.954   5.989  0.1582  1.5415  0.7343
 4222TIP3    H234082   5.728   1.944   5.980  0.3213 -0.1719 -0.3159
 4223TIP3   OH234083   4.483   1.725  16.207 -0.4887  0.2408 -0.0402
 4223TIP3    H134084   4.471   1.674  16.287 -1.0944  0.1721 -0.1724
 4223TIP3    H234085   4.417   1.690  16.147  2.1789 -2.1184 -1.7652
 4224TIP3   OH234086   4.119   1.340   5.802  0.0140 -0.3753  0.1093
 4224TIP3    H134087   4.087   1.390   5.877  1.0447  1.0941 -0.3966
 4224TIP3    H234088   4.214   1.354   5.802  0.1309 -1.0433 -0.9750
 4225TIP3   OH234089   3.462   3.437  17.129 -0.4129 -0.4292 -0.1734
 4225TIP3    H134090   3.479   3.343  17.140 -0.6037 -0.5506 -0.9172
 4225TIP3    H234091   3.376   3.451  17.169  0.7272 -0.0875  2.2659
 4226TIP3   OH234092   4.532   2.632  16.939  0.0233 -0.3365 -0.5057
 4226TIP3    H134093   4.576   2.708  16.977  0.5615 -0.7176 -0.3591
 4226TIP3    H234094   4.483   2.667  16.865 -0.5178  0.3138  0.1449
 4227TIP3   OH234095   4.824   1.179  15.789 -0.2757 -0.3989 -0.2972
 4227TIP3    H134096   4.784   1.264  15.772 -0.3231 -0.2539  0.5301
 4227TIP3    H234097   4.793   1.154  15.876  0.6869 -0.7163 -0.0347
 4228TIP3   OH234098   3.934   2.365   2.706 -0.2271  0.0713  0.3772
 4228TIP3    H134099   4.007   2.419   2.675 -1.4535  2.6879  1.9250
 4228TIP3    H234100   3.963   2.333   2.791 -0.6660  0.6198  0.7277
 4229TIP3   OH234101   1.140   0.690  14.831  0.2577  0.2289 -0.4246
 4229TIP3    H134102   1.084   0.613  14.823 -1.1572  1.1966 -0.1137
 4229TIP3    H234103   1.091   0.760  14.787  0.9879  1.2133  0.2937
 4230TIP3   OH234104   4.398   0.273   5.248  0.1984 -0.3511  0.2477
 4230TIP3    H134105   4.395   0.288   5.153  0.5986 -0.2104  0.2552
 4230TIP3    H234106   4.484   0.307   5.274 -1.7457  4.0957  1.4106
 4231TIP3   OH234107   6.572   1.442  12.989 -0.2613  0.4287  0.6709
 4231TIP3    H134108   6.615   1.504  13.048 -1.6282  0.8442  1.2347
 4231TIP3    H234109   6.481   1.442  13.016 -0.0815 -2.7502  1.4681
 4232TIP3   OH234110   5.199   3.551   1.729 -0.5789 -0.3271  0.2212
 4232TIP3    H134111   5.218   3.571   1.821  0.9890 -0.1419 -0.1216
 4232TIP3    H234112   5.160   3.464   1.731 -1.8620  0.2494  1.1836
 4233TIP3   OH234113   0.414   2.726   1.037 -0.6680  0.2771 -0.2997
 4233TIP3    H134114   0.336   2.673   1.019  0.1447 -1.1835  0.3461
 4233TIP3    H234115   0.424   2.721   1.132 -0.0662  0.8667 -0.3321
 4234TIP3   OH234116   4.170   4.420   2.500  0.1034 -0.3841 -0.4077
 4234TIP3    H134117   4.245   4.361   2.507 -0.8106 -1.6412 -0.9950
 4234TIP3    H234118   4.202   4.493   2.447  0.7225 -1.2470 -1.2534
 4235TIP3   OH234119   4.818   2.165  16.666 -0.5003 -0.3056  0.2916
 4235TIP3    H134120   4.873   2.229  16.620 -1.1204 -0.0042 -0.0433
 4235TIP3    H234121   4.812   2.198  16.755 -0.4140 -0.1548  0.2420
 4236TIP3   OH234122   6.100   6.355  14.833 -0.5976  0.2445 -0.2285
 4236TIP3    H134123   6.052   6.390  14.908 -0.4900 -0.1045  0.0056
 4236TIP3    H234124   6.170   6.419  14.817  0.8128 -0.8434  1.4480
 4237TIP3   OH234125   0.107   1.352  13.476 -0.0778  0.2931  0.2788
 4237TIP3    H134126   0.179   1.310  13.429  0.3654 -0.9684  2.0219
 4237TIP3    H234127   0.056   1.279  13.512 -1.4638  1.2009  0.1902
 4238TIP3   OH234128   1.390   6.248   2.405 -0.3732 -0.4681 -0.5087
 4238TIP3    H134129   1.314   6.197   2.377 -1.1123  0.4936 -0.2655
 4238TIP3    H234130   1.389   6.326   2.350  0.6199 -0.5915 -0.7145
 4239TIP3   OH234131   1.450   5.746  13.272  0.0469 -0.2091  0.2156
 4239TIP3    H134132   1.400   5.777  13.197 -3.5484 -1.9780  1.7198
 4239TIP3    H234133   1.438   5.814  13.339 -0.7278 -0.7876  0.6879
 4240TIP3   OH234134   1.593   6.040  13.375  0.0055 -0.0828  0.1061
 4240TIP3    H134135   1.626   6.003  13.293  1.2733  2.6861 -0.6809
 4240TIP3    H234136   1.596   6.134  13.362 -1.9680  0.3717  2.5193
 4241TIP3   OH234137   5.048   5.097  15.564  0.0738 -0.6419  0.3187
 4241TIP3    H134138   5.024   5.053  15.646 -0.6564 -1.7576 -0.4887
 4241TIP3    H234139   4.981   5.165  15.553 -0.9019 -1.6880 -0.2919
 4242TIP3   OH234140   5.984   1.538   2.843 -0.1510 -0.0002  0.0193
 4242TIP3    H134141   5.979   1.574   2.754  0.5970 -0.9208 -0.4084
 4242TIP3    H234142   5.897   1.550   2.879 -0.2097  1.2121 -0.5220
 4243TIP3   OH234143   1.565   0.255   1.985  0.3117  0.2404  0.3637
 4243TIP3    H134144   1.618   0.289   1.913  0.9511  0.2068  0.8106
 4243TIP3    H234145   1.619   0.270   2.063  0.2294 -1.0004  0.6723
 4244TIP3   OH234146   4.053   2.257   0.910 -0.4736 -0.2867  0.7470
 4244TIP3    H134147   4.005   2.323   0.960 -1.0495 -0.4298  0.3874
 4244TIP3    H234148   4.077   2.191   0.976 -0.1840  0.1143  1.0465
 4245TIP3   OH234149   3.425   2.041  11.244  0.0032 -0.0009 -0.0529
 4245TIP3    H134150   3.408   2.072  11.333  1.2996 -0.4830  0.3768
 4245TIP3    H234151   3.381   1.956  11.240 -0.3405  0.1713  0.0123
 4246TIP3   OH234152   6.349   3.381  12.455  0.0413  0.0195  0.0824
 4246TIP3    H134153   6.409   3.455  12.444  0.5821 -0.4989 -0.4949
 4246TIP3    H234154   6.265   3.414  12.422  0.7745 -0.2899 -2.1753
 4247TIP3   OH234155   5.858   5.061   3.397  0.2724  0.0613 -0.1094
 4247TIP3    H134156   5.797   5.106   3.340 -0.8401 -0.0630  0.9663
 4247TIP3    H234157   5.806   4.995   3.442  1.1703 -0.0006  0.8822
 4248TIP3   OH234158   5.351   1.117  16.025  0.5877  0.4563  0.4091
 4248TIP3    H134159   5.379   1.208  16.027 -1.8181  1.2149  1.5194
 4248TIP3    H234160   5.298   1.110  15.946  2.1133 -0.4382 -0.5641
 4249TIP3   OH234161   2.440   2.390  10.686  0.3452 -0.1818 -0.0604
 4249TIP3    H134162   2.536   2.396  10.677  0.3943 -0.0116  0.5452
 4249TIP3    H234163   2.418   2.454  10.754 -0.2462  0.0520 -0.4750
 4250TIP3   OH234164   6.694   2.052   0.966 -0.0435  0.0900 -0.0113
 4250TIP3    H134165   6.613   2.012   0.998 -0.5212  0.7890 -0.3411
 4250TIP3    H234166   6.706   2.130   1.019  2.4083 -1.9133  2.5832
 4251TIP3   OH234167   1.016   4.598  11.642 -0.0437  0.3275  0.7635
 4251TIP3    H134168   1.095   4.601  11.589 -1.2675  0.9295 -1.0580
 4251TIP3    H234169   0.982   4.687  11.640 -0.9815 -0.0085  1.1951
 4252TIP3   OH234170   0.484   2.695  14.912 -0.1134 -0.2361 -0.4182
 4252TIP3    H134171   0.572   2.720  14.882 -1.0156  2.3563 -1.0343
 4252TIP3    H234172   0.446   2.648  14.837  0.8293 -1.6281 -0.0445
 4253TIP3   OH234173   0.449   0.411  11.496 -0.1081  0.2476  0.4615
 4253TIP3    H134174   0.536   0.445  11.515 -0.1428  0.6624 -0.0738
 4253TIP3    H234175   0.401   0.418  11.578  0.1867  0.5876  0.6055
 4254TIP3   OH234176   4.661   1.123  12.276  0.1490 -0.3908  0.6163
 4254TIP3    H134177   4.712   1.097  12.199 -0.8496 -0.6513  0.0382
 4254TIP3    H234178   4.675   1.217  12.283 -0.5905 -0.1960 -0.5009
 4255TIP3   OH234179   4.216   6.165  16.335 -0.0595  0.1947 -0.3155
 4255TIP3    H134180   4.219   6.070  16.320  0.5042  0.0186  0.8385
 4255TIP3    H234181   4.199   6.174  16.429  2.3909  1.2049  0.0737
 4256TIP3   OH234182   0.843   3.715  13.064 -0.7582 -0.2933 -0.3771
 4256TIP3    H134183   0.893   3.796  13.060 -2.2106  0.7021  1.0608
 4256TIP3    H234184   0.765   3.731  13.011 -0.9810 -0.8023 -0.2130
 4257TIP3   OH234185   0.745   2.634   6.050 -0.2747  0.1233 -0.8241
 4257TIP3    H134186   0.711   2.723   6.040 -0.7041  0.0930  0.2742
 4257TIP3    H234187   0.678   2.578   6.009 -1.4990  0.0851  1.1139
 4258TIP3   OH234188   1.404   5.914  13.517  0.2597 -0.6099  0.0920
 4258TIP3    H134189   1.471   5.965  13.471  0.0009 -0.6932 -0.3809
 4258TIP3    H234190   1.340   5.978  13.546  0.6968 -0.4937  0.8144
 4259TIP3   OH234191   2.955   2.625  14.392  0.1024 -0.0601 -0.2940
 4259TIP3    H134192   2.962   2.718  14.414 -1.0185 -0.1616  0.5223
 4259TIP3    H234193   3.037   2.605  14.347  0.0532  1.5009 -1.1411
 4260TIP3   OH234194   1.487   3.068  15.884  0.3298  0.0899  0.6276
 4260TIP3    H134195   1.505   3.072  15.790  0.3982  1.6496  0.7031
 4260TIP3    H234196   1.548   3.130  15.924  0.8765 -1.1690  1.7982
 4261TIP3   OH234197   0.221   2.178  15.448 -0.1991 -0.0096 -0.4443
 4261TIP3    H134198   0.157   2.107  15.435 -0.5097 -0.0167  1.1049
 4261TIP3    H234199   0.167   2.255  15.469  0.3460 -0.3748  2.4668
 4262TIP3   OH234200   4.675   2.383  13.089  0.2467  0.3020  0.1518
 4262TIP3    H134201   4.590   2.351  13.118 -1.4124  3.1023 -1.2990
 4262TIP3    H234202   4.677   2.363  12.995  0.7340  1.1158 -0.0195
 4263TIP3   OH234203   2.196   5.956   4.110  0.1289 -0.0580  0.2418
 4263TIP3    H134204   2.127   5.935   4.174  0.3062  1.3057  0.8872
 4263TIP3    H234205   2.236   5.871   4.090 -0.1638 -0.5417  1.6592
 4264TIP3   OH234206   3.824   3.387   4.053  0.4513 -0.1411  0.4365
 4264TIP3    H134207   3.873   3.458   4.012  0.2357 -1.0006 -1.3581
 4264TIP3    H234208   3.751   3.430   4.097  0.9477  0.8413  0.3101
 4265TIP3   OH234209   2.419   2.185  11.764 -0.5880  0.0080 -0.1952
 4265TIP3    H134210   2.388   2.273  11.744  0.3730 -0.2938 -3.2708
 4265TIP3    H234211   2.341   2.139  11.797 -1.6886  1.3255 -0.9147
 4266TIP3   OH234212   1.162   1.750   5.208 -0.0238 -0.3191  0.6132
 4266TIP3    H134213   1.226   1.734   5.138 -1.3824 -0.3563 -0.6274
 4266TIP3    H234214   1.158   1.845   5.216 -0.6552 -0.2848 -0.0940
 4267TIP3   OH234215   6.355   2.047   2.391  1.0808  0.3867 -0.5358
 4267TIP3    H134216   6.374   1.971   2.447 -0.3946  0.1261 -0.3721
 4267TIP3    H234217   6.366   2.123   2.449  0.6735  0.1836 -0.1945
 4268TIP3   OH234218   0.178   1.952   2.917 -0.2288 -0.4280 -0.5166
 4268TIP3    H134219   0.225   1.922   2.995 -1.4211 -0.3161  0.2541
 4268TIP3    H234220   0.210   1.895   2.847  1.3722 -0.0739 -0.1042
 4269TIP3   OH234221   4.083   4.392  12.098 -0.2867 -0.6961  0.3960
 4269TIP3    H134222   4.105   4.331  12.028  0.1801  1.5227 -1.4290
 4269TIP3    H234223   4.168   4.412  12.139 -0.0050  1.1554 -1.0556
 4270TIP3   OH234224   6.400   6.456  13.698 -0.0527  0.1482  0.0892
 4270TIP3    H134225   6.350   6.493  13.625 -1.0223  3.4509  2.3581
 4270TIP3    H234226   6.340   6.394  13.739 -0.6262  0.6649  0.0268
 4271TIP3   OH234227   3.165   3.633   1.305 -0.4178 -0.0780 -0.4856
 4271TIP3    H134228   3.199   3.714   1.342 -2.7892  1.1405 -0.8986
 4271TIP3    H234229   3.193   3.634   1.213 -0.1163  0.0863 -0.3904
 4272TIP3   OH234230   3.355   2.185   4.366  0.2625 -0.1614  0.8713
 4272TIP3    H134231   3.349   2.092   4.345  1.9734 -0.1374  0.2464
 4272TIP3    H234232   3.399   2.188   4.451  0.0562  0.0907  0.9746
 4273TIP3   OH234233   2.551   1.118  15.769  0.2587  0.9294 -0.3103
 4273TIP3    H134234   2.622   1.124  15.833  0.2568 -2.1309  0.0477
 4273TIP3    H234235   2.592   1.078  15.692 -0.8959 -0.1333 -0.3818
 4274TIP3   OH234236   5.955   0.242  13.263 -0.1762 -0.3784  1.0856
 4274TIP3    H134237   5.870   0.271  13.296 -1.3112 -2.7747  0.4273
 4274TIP3    H234238   5.997   0.201  13.339 -0.4648 -0.9678  0.9325
 4275TIP3   OH234239   1.275   4.747  12.785 -0.6000 -0.1283  0.0647
 4275TIP3    H134240   1.261   4.838  12.758 -1.0297 -0.0318  0.6008
 4275TIP3    H234241   1.278   4.698  12.702 -3.0517  0.0118 -0.1699
 4276TIP3   OH234242   2.171   1.536   1.450 -0.1219  0.3977 -0.1065
 4276TIP3    H134243   2.113   1.511   1.378 -2.8312  1.1589  1.7226
 4276TIP3    H234244   2.127   1.503   1.528  0.0429  4.1316  1.6663
 4277TIP3   OH234245   3.817   0.106   4.261 -0.4211  0.0209  0.6430
 4277TIP3    H134246   3.836   0.049   4.186 -0.4954 -0.9717  1.3618
 4277TIP3    H234247   3.791   0.189   4.222 -1.4931 -0.8097 -0.4756
 4278TIP3   OH234248   6.238   4.672   5.694  0.3016  0.1358  0.0556
 4278TIP3    H134249   6.325   4.676   5.654  0.8484 -1.1825  1.0519
 4278TIP3    H234250   6.248   4.610   5.766 -1.0811  1.1994  1.1878
 4279TIP3   OH234251   1.781   5.487   2.209  0.0678 -0.0546 -0.7768
 4279TIP3    H134252   1.717   5.419   2.232 -0.6073  0.9701  0.4755
 4279TIP3    H234253   1.815   5.461   2.123 -1.9487 -0.6771 -1.4040
 4280TIP3   OH234254   1.162   3.979   0.512  1.3656 -0.1338 -0.0185
 4280TIP3    H134255   1.169   3.916   0.440  0.9274 -2.9667  2.3057
 4280TIP3    H234256   1.079   4.024   0.495  0.7501 -1.4829 -0.7662
 4281TIP3   OH234257   3.867   2.146   3.213  0.7953  0.0806  0.2553
 4281TIP3    H134258   3.828   2.070   3.256  1.8052 -0.1000  0.8537
 4281TIP3    H234259   3.797   2.211   3.213 -0.6714 -1.4147 -1.8454
 4282TIP3   OH234260   1.949   4.569   0.278 -0.9585 -0.4551 -0.3916
 4282TIP3    H134261   1.876   4.550   0.220 -1.9261  3.9160 -0.7744
 4282TIP3    H234262   1.908   4.613   0.354  1.0047  0.1364  0.3494
 4283TIP3   OH234263   5.939   2.617  12.540 -0.0371  0.5285 -0.1258
 4283TIP3    H134264   5.914   2.682  12.606  0.6951  0.4173  0.2643
 4283TIP3    H234265   6.014   2.571  12.578 -1.9425 -2.1234  0.6285
 4284TIP3   OH234266   0.753   6.214   1.217 -0.1998 -0.0840 -0.2578
 4284TIP3    H134267   0.677   6.162   1.192 -0.5157  0.2507 -0.0058
 4284TIP3    H234268   0.726   6.305   1.203 -0.3064  0.0963  1.0518
 4285TIP3   OH234269   0.516   2.771   3.674  0.4411  0.0226 -0.0276
 4285TIP3    H134270   0.590   2.830   3.667 -0.7755  1.3488 -2.1422
 4285TIP3    H234271   0.555   2.685   3.688  2.2684  1.0728  1.4990
 4286TIP3   OH234272   3.831   3.479   6.133  0.6315 -0.1288 -0.0062
 4286TIP3    H134273   3.878   3.536   6.193  0.6502 -1.4966  1.2953
 4286TIP3    H234274   3.819   3.397   6.181  0.7884 -1.3074 -1.9070
 4287TIP3   OH234275   4.911   0.287   0.295  0.4095  0.7554 -0.0669
 4287TIP3    H134276   4.887   0.196   0.307  0.5577  0.3358 -2.7352
 4287TIP3    H234277   4.954   0.290   0.210  1.8264  3.0439  0.6816
 4288TIP3   OH234278   3.877   1.253   3.847  0.0591 -0.4188 -0.1978
 4288TIP3    H134279   3.912   1.327   3.897 -1.9321  0.7141 -0.4440
 4288TIP3    H234280   3.935   1.180   3.870  1.2900  0.8986  1.0430
 4289TIP3   OH234281   0.517   6.558  11.372  0.4817 -0.1206 -0.1489
 4289TIP3    H134282   0.503   6.606  11.453 -0.2115  0.2415 -0.4787
 4289TIP3    H234283   0.428   6.541  11.339  0.7752  0.1555 -1.0795
 4290TIP3   OH234284   3.576   6.699  12.603 -1.2930  0.1174  0.5837
 4290TIP3    H134285   3.506   6.698  12.669 -1.1623 -0.0427  0.7176
 4290TIP3    H234286   3.652   6.663  12.647 -1.0451  0.5597  0.5264
 4291TIP3   OH234287   0.045   5.972   5.268 -0.0197  0.2035  0.0695
 4291TIP3    H134288   0.008   5.940   5.351 -0.2135  1.2868  0.4082
 4291TIP3    H234289   0.039   5.897   5.209 -0.8666 -0.2636  0.7295
 4292TIP3   OH234290   5.911   6.607   2.430 -0.8604 -0.6555 -0.7600
 4292TIP3    H134291   5.880   6.516   2.437  0.6016 -1.1539 -0.7191
 4292TIP3    H234292   5.968   6.607   2.353 -1.4660  0.4126 -1.2259
 4293TIP3   OH234293   6.698   4.159  16.567 -0.1331 -0.3973  0.1813
 4293TIP3    H134294   6.769   4.212  16.531 -1.3310  0.2596 -1.2452
 4293TIP3    H234295   6.669   4.104  16.494 -2.1683  0.5132  0.2723
 4294TIP3   OH234296   6.638   2.592  14.175  0.3743  0.0199 -0.3658
 4294TIP3    H134297   6.642   2.566  14.083 -0.1205  2.0120 -0.9718
 4294TIP3    H234298   6.728   2.616  14.198  0.6379 -1.1730 -0.0967
 4295TIP3   OH234299   2.261   5.027   5.711 -0.2424 -0.1830 -0.3949
 4295TIP3    H134300   2.340   5.081   5.704 -0.3713  0.2755  1.2912
 4295TIP3    H234301   2.213   5.066   5.784 -1.1713 -1.5451 -0.2684
 4296TIP3   OH234302   3.542   1.202   6.633  0.1128  0.0150  0.1895
 4296TIP3    H134303   3.591   1.256   6.694 -0.2370  0.3668  0.1560
 4296TIP3    H234304   3.451   1.229   6.644  0.0241 -0.0656 -0.3382
 4297TIP3   OH234305   1.787   1.338   0.080  0.4194 -0.0888 -0.5698
 4297TIP3    H134306   1.818   1.300  -0.002 -1.0601 -1.0281 -0.7231
 4297TIP3    H234307   1.835   1.290   0.148 -0.1403 -1.0285 -0.8224
 4298TIP3   OH234308   5.004   6.293   4.913 -0.2716 -0.2423  0.0991
 4298TIP3    H134309   5.015   6.380   4.874 -0.7269 -0.7552 -1.2079
 4298TIP3    H234310   5.087   6.276   4.958 -0.0699  0.7381  0.1136
 4299TIP3   OH234311   6.659   4.827   3.479 -0.3866 -0.2333 -0.2493
 4299TIP3    H134312   6.611   4.859   3.402 -1.5580  1.9774  1.3609
 4299TIP3    H234313   6.745   4.868   3.472 -0.6042  0.2316 -0.1943
 4300TIP3   OH234314   3.209   3.490  15.312  0.1655  0.6325  0.0650
 4300TIP3    H134315   3.295   3.527  15.293  0.4229 -0.6080 -1.2217
 4300TIP3    H234316   3.181   3.534  15.393  3.5475 -1.4446  2.5109
 4301TIP3   OH234317   0.505   5.349  12.680  0.2037 -0.5485  0.1599
 4301TIP3    H134318   0.469   5.395  12.604  1.9222  0.0140 -0.3208
 4301TIP3    H234319   0.450   5.271  12.689 -0.2446 -0.4308 -1.4285
 4302TIP3   OH234320   0.715   1.151  16.317  0.4539 -0.3879  0.3590
 4302TIP3    H134321   0.651   1.089  16.283 -1.2544  1.1010  0.8007
 4302TIP3    H234322   0.711   1.141  16.412  0.7233 -0.1475  0.3974
 4303TIP3   OH234323   1.380   5.036  12.323  0.5507  0.0982 -0.5118
 4303TIP3    H134324   1.422   4.969  12.268 -0.4009 -1.1758  0.2982
 4303TIP3    H234325   1.356   4.990  12.403 -2.4818  0.7714 -0.9915
 4304TIP3   OH234326   0.511   5.986   2.262 -0.7526  0.5763 -0.1244
 4304TIP3    H134327   0.523   5.983   2.167 -1.2251  2.2111 -0.2498
 4304TIP3    H234328   0.544   5.902   2.293 -0.0689  0.2529 -1.6833
 4305TIP3   OH234329   2.330   2.370   6.875  0.0813  0.0333  0.0229
 4305TIP3    H134330   2.385   2.447   6.887  0.3818 -0.4228  1.6258
 4305TIP3    H234331   2.315   2.366   6.780  1.5398  1.0357 -0.2655
 4306TIP3   OH234332   2.122   2.441   3.840 -0.0485  0.7475 -0.0387
 4306TIP3    H134333   2.173   2.508   3.885  1.0046 -1.1984  1.8009
 4306TIP3    H234334   2.178   2.364   3.841 -1.4744 -0.3439 -1.5430
 4307TIP3   OH234335   6.746   5.476   1.352 -0.4053 -0.3860 -0.2602
 4307TIP3    H134336   6.829   5.508   1.388  0.4402 -4.1326  1.4135
 4307TIP3    H234337   6.679   5.526   1.398  0.8272 -1.2628  2.6193
 4308TIP3   OH234338   2.157   2.555   1.726 -0.5801  0.3124 -0.6463
 4308TIP3    H134339   2.187   2.635   1.683  0.5652  0.7654  0.9471
 4308TIP3    H234340   2.202   2.485   1.679  0.3856  0.7708 -0.4101
 4309TIP3   OH234341   1.657   4.013   4.407  0.1344 -0.0141 -0.2142
 4309TIP3    H134342   1.566   4.017   4.436 -0.2911 -1.1194 -1.3582
 4309TIP3    H234343   1.671   4.095   4.359 -0.8595 -0.7075 -1.7200
 4310TIP3   OH234344   2.216   3.501   4.390 -0.2002  0.1626 -0.4450
 4310TIP3    H134345   2.292   3.491   4.447 -1.7752  0.5460  1.7654
 4310TIP3    H234346   2.253   3.512   4.302  2.3388  1.5405  0.7550
 4311TIP3   OH234347   3.550   3.084   5.870 -0.1854 -0.9372 -0.3037
 4311TIP3    H134348   3.557   2.993   5.899 -0.0781 -1.2095 -1.1928
 4311TIP3    H234349   3.511   3.129   5.945  1.8491 -1.2780  0.9884
 4312TIP3   OH234350   3.640   3.545  12.854 -0.0295  0.2349 -0.1452
 4312TIP3    H134351   3.611   3.591  12.933  1.5645 -1.0951  1.2451
 4312TIP3    H234352   3.698   3.606  12.811 -0.9162  0.9745 -0.3114
 4313TIP3   OH234353   0.683   6.142   6.252  0.5019  0.2667 -0.4742
 4313TIP3    H134354   0.698   6.220   6.306  1.7224 -0.6310  0.5155
 4313TIP3    H234355   0.610   6.097   6.296 -1.5731  1.8379 -2.1863
 4314TIP3   OH234356   1.460   5.971   2.041 -0.4325 -0.0234 -0.2702
 4314TIP3    H134357   1.395   5.998   1.975 -0.4292  0.1136 -0.2175
 4314TIP3    H234358   1.526   5.922   1.991 -0.9819 -0.8385 -0.2033
 4315TIP3   OH234359   2.493   5.017   5.161  0.0879  0.2999  0.2182
 4315TIP3    H134360   2.415   5.016   5.105  0.7389 -0.5990 -0.6966
 4315TIP3    H234361   2.566   5.001   5.101  0.9754  0.9615  1.0889
 4316TIP3   OH234362   2.312   5.762  15.007 -0.3266 -0.3349 -0.3673
 4316TIP3    H134363   2.344   5.689  15.061 -0.6400  0.0027  0.2849
 4316TIP3    H234364   2.392   5.804  14.975 -0.1282 -0.1836  0.3218
 4317TIP3   OH234365   3.634   2.881   5.346 -0.4013  0.5716 -0.3612
 4317TIP3    H134366   3.584   2.917   5.272 -2.1129  1.6411  1.2681
 4317TIP3    H234367   3.627   2.786   5.336 -0.6356  0.7001 -1.5509
 4318TIP3   OH234368   1.046   2.612  14.634  0.1346  0.1709 -0.5043
 4318TIP3    H134369   0.959   2.578  14.613  0.4404 -1.2293  0.4269
 4318TIP3    H234370   1.046   2.701  14.599 -2.5858  1.1147  1.6798
 4319TIP3   OH234371   5.391   6.532   0.916 -0.7444 -0.5139  0.1973
 4319TIP3    H134372   5.407   6.625   0.932 -0.1395 -0.0711 -2.6960
 4319TIP3    H234373   5.310   6.513   0.964 -1.0809  1.5968  0.5080
 4320TIP3   OH234374   3.845   6.201   5.675  0.2610 -0.4052 -0.1547
 4320TIP3    H134375   3.756   6.200   5.710  0.3759 -1.8905  0.1149
 4320TIP3    H234376   3.895   6.144   5.733  1.0359 -0.8264 -1.2155
 4321TIP3   OH234377   0.851   0.274   1.095 -0.4870  0.0739  0.0678
 4321TIP3    H134378   0.814   0.185   1.096  1.1698 -0.6493 -0.2890
 4321TIP3    H234379   0.806   0.319   1.167 -1.1229 -1.1548  0.4639
 4322TIP3   OH234380   2.191   0.926   1.611 -0.3018  0.7818  0.2034
 4322TIP3    H134381   2.232   0.871   1.678 -0.4679  0.5418  0.1068
 4322TIP3    H234382   2.171   0.866   1.539 -1.4440  0.7725  0.5189
 4323TIP3   OH234383   1.254   6.133   4.858  0.2757  0.0847 -0.9990
 4323TIP3    H134384   1.310   6.120   4.935  1.0376 -0.0802 -1.5776
 4323TIP3    H234385   1.227   6.044   4.834 -1.0173  0.2292 -0.1585
 4324TIP3   OH234386   4.789   2.815   4.312  0.2129  0.0978 -0.3862
 4324TIP3    H134387   4.805   2.731   4.269  1.5867  0.9413 -1.5975
 4324TIP3    H234388   4.738   2.865   4.248 -0.8459  0.0865  0.4464
 4325TIP3   OH234389   4.521   1.393   1.647 -0.3358  0.1475 -0.1195
 4325TIP3    H134390   4.506   1.465   1.586 -2.0986 -0.8751 -0.9401
 4325TIP3    H234391   4.598   1.348   1.611 -1.7559 -0.8438 -2.0265
 4326TIP3   OH234392   3.217   1.287  11.063  0.1681 -0.4821  0.6470
 4326TIP3    H134393   3.233   1.264  11.154 -1.4203  1.2954  1.3944
 4326TIP3    H234394   3.294   1.339  11.038 -0.2524  0.5975  1.5505
 4327TIP3   OH234395   0.494   4.155  15.898 -0.2450  0.2130  0.3717
 4327TIP3    H134396   0.466   4.160  15.989  0.3475 -0.9009  0.6203
 4327TIP3    H234397   0.414   4.135  15.849 -0.7218  1.6834  0.5378
 4328TIP3   OH234398   4.899   3.430  12.770  0.1371 -0.3391  0.1630
 4328TIP3    H134399   4.989   3.406  12.790 -0.1090 -0.2981  1.3751
 4328TIP3    H234400   4.876   3.376  12.694  0.2858 -2.4448  1.5461
 4329TIP3   OH234401   6.619   2.568  15.746  0.4475  0.3475  0.6396
 4329TIP3    H134402   6.619   2.663  15.756  0.7260  0.6108 -1.5906
 4329TIP3    H234403   6.689   2.550  15.683 -0.3949 -1.2336  0.1240
 4330TIP3   OH234404   4.520   0.304   3.824  0.4028  0.1117  0.2131
 4330TIP3    H134405   4.435   0.334   3.792  0.5758  2.0500  1.4357
 4330TIP3    H234406   4.514   0.209   3.825 -2.0055  0.2396  0.9108
 4331TIP3   OH234407   5.792   0.107   5.447  0.4137  0.6831  0.8373
 4331TIP3    H134408   5.837   0.050   5.384  0.9349 -0.4622  2.1944
 4331TIP3    H234409   5.862   0.136   5.506 -0.5388 -0.7233  2.6855
 4332TIP3   OH234410   2.892   1.656   1.864 -0.0450  0.2931  0.3557
 4332TIP3    H134411   2.894   1.732   1.806  0.6979 -0.2405 -0.3193
 4332TIP3    H234412   2.867   1.692   1.949  0.7319  1.3696  0.1425
 4333TIP3   OH234413   3.659   3.815  16.860 -0.1020  0.3626  0.0598
 4333TIP3    H134414   3.600   3.875  16.904 -1.6597 -1.1888  0.1641
 4333TIP3    H234415   3.602   3.745  16.828  1.3897 -0.0632 -1.7862
 4334TIP3   OH234416   2.930   2.981   2.062 -0.2434  0.0031 -0.1069
 4334TIP3    H134417   3.004   2.935   2.101 -0.2941 -1.4604 -1.6700
 4334TIP3    H234418   2.863   2.982   2.131  0.4334 -0.6174  0.5621
 4335TIP3   OH234419   1.425   6.757  16.780  0.1819  0.6627 -0.3325
 4335TIP3    H134420   1.441   6.725  16.869  0.7379  0.4877 -0.4991
 4335TIP3    H234421   1.509   6.792  16.751  0.5109 -1.0828 -1.5350
 4336TIP3   OH234422   4.804   6.095   4.818 -0.1314 -0.1820  0.2390
 4336TIP3    H134423   4.872   6.152   4.855 -0.0275 -0.9990  1.3264
 4336TIP3    H234424   4.842   6.061   4.737 -0.7441  2.4297 -1.2249
 4337TIP3   OH234425   5.388   6.645   2.173  0.7336  0.0531  0.4736
 4337TIP3    H134426   5.423   6.663   2.086 -0.7361 -1.8979 -0.5491
 4337TIP3    H234427   5.445   6.577   2.209  0.2019 -0.5142  0.2568
 4338TIP3   OH234428   0.745   3.974  13.477  0.1654  0.1080  0.1230
 4338TIP3    H134429   0.716   3.886  13.499  4.1738 -1.0842  0.9603
 4338TIP3    H234430   0.729   4.026  13.556  1.9149 -0.9512  1.1989
 4339TIP3   OH234431   0.567   6.104   5.289  0.4225 -0.0978 -0.0517
 4339TIP3    H134432   0.645   6.065   5.327  0.0846  0.2277  0.9842
 4339TIP3    H234433   0.514   6.132   5.364  0.1434  1.3193 -0.7430
 4340TIP3   OH234434   3.437   4.183   2.837  0.1828 -0.3066  0.3656
 4340TIP3    H134435   3.454   4.173   2.931 -0.3431 -0.7604  0.4097
 4340TIP3    H234436   3.420   4.095   2.806 -1.7335  0.0879  0.2468
 4341TIP3   OH234437   6.048   2.163   4.161  0.2010 -0.4100 -0.1935
 4341TIP3    H134438   6.048   2.258   4.156 -1.5120 -0.2998  1.3928
 4341TIP3    H234439   6.006   2.134   4.080 -2.5794  0.3386  0.9269
 4342TIP3   OH234440   6.297   2.128  16.416  0.3025  0.1395  0.3443
 4342TIP3    H134441   6.253   2.107  16.333  1.2814  0.5029 -0.2739
 4342TIP3    H234442   6.236   2.096  16.483 -0.5866  0.0004 -0.5002
 4343TIP3   OH234443   5.438   0.353  13.177  0.1482 -0.5458 -0.0619
 4343TIP3    H134444   5.432   0.343  13.272 -0.0342 -2.3441 -0.2319
 4343TIP3    H234445   5.347   0.356  13.148  0.2036  0.0470 -0.1725
 4344TIP3   OH234446   0.523   1.323   0.757 -0.4006  0.2580 -0.1382
 4344TIP3    H134447   0.451   1.314   0.695  0.3198  0.7813 -1.0677
 4344TIP3    H234448   0.488   1.377   0.827 -1.4590 -0.9709  0.2843
 4345TIP3   OH234449   2.749   6.147   5.295  1.0660  0.2821  0.3387
 4345TIP3    H134450   2.803   6.073   5.324 -1.0774 -1.1357  0.8527
 4345TIP3    H234451   2.712   6.117   5.211  1.7213  1.5605 -0.4119
 4346TIP3   OH234452   3.303   1.968  16.664 -0.2722  0.2926  0.0168
 4346TIP3    H134453   3.397   1.985  16.661 -0.2081 -0.2769 -2.8365
 4346TIP3    H234454   3.271   2.019  16.738  2.4415 -0.3632  1.6907
 4347TIP3   OH234455   4.601   2.274  16.435  0.0817 -0.6582  1.0704
 4347TIP3    H134456   4.579   2.182  16.426 -3.3988  0.0470  1.6997
 4347TIP3    H234457   4.585   2.294  16.527  0.3364  0.6918  0.8423
 4348TIP3   OH234458   0.595   3.786   3.787  0.3639  0.2224 -0.0873
 4348TIP3    H134459   0.657   3.853   3.815 -0.3340  0.7454  0.2126
 4348TIP3    H234460   0.512   3.833   3.775 -0.5290 -0.8254  1.6684
 4349TIP3   OH234461   1.523   3.455   0.926  0.4257  0.0677 -0.4248
 4349TIP3    H134462   1.450   3.439   0.867 -0.0158  1.5288 -0.3074
 4349TIP3    H234463   1.547   3.369   0.959 -0.8292 -0.4958 -0.9531
 4350TIP3   OH234464   2.024   6.682  12.434 -0.7068  0.7847  0.4073
 4350TIP3    H134465   2.019   6.757  12.493 -0.8478 -0.3034  1.8304
 4350TIP3    H234466   1.934   6.648  12.431 -0.0912 -1.1038  2.2066
 4351TIP3   OH234467   0.898   5.581   1.433 -0.0093  0.4162  0.1291
 4351TIP3    H134468   0.939   5.649   1.487  2.6019  1.5655 -3.0979
 4351TIP3    H234469   0.964   5.511   1.428 -0.3148  0.2048 -1.2756
 4352TIP3   OH234470   4.357   3.958   2.058  0.7407  0.6226 -0.1113
 4352TIP3    H134471   4.434   3.989   2.106 -0.0030  1.4584  0.5590
 4352TIP3    H234472   4.310   3.904   2.121  0.6062  0.3954 -0.4082
 4353TIP3   OH234473   2.799   2.141  16.885 -1.0806 -0.0883  0.2682
 4353TIP3    H134474   2.879   2.119  16.837 -0.2578  2.3625  0.4514
 4353TIP3    H234475   2.782   2.065  16.940  0.2311 -1.2790 -0.9233
 4354TIP3   OH234476   0.882   0.662  16.723  0.0803 -0.0519  0.0706
 4354TIP3    H134477   0.907   0.619  16.804 -0.5178 -0.4609  0.0448
 4354TIP3    H234478   0.799   0.705  16.743  0.5286  0.8569  0.0130
 4355TIP3   OH234479   0.928   0.612  11.869  0.2119  0.0229  0.2368
 4355TIP3    H134480   0.897   0.605  11.779  2.5835 -0.5305 -0.5843
 4355TIP3    H234481   1.011   0.565  11.870  0.1831 -0.0630  2.7537
 4356TIP3   OH234482   5.943   1.229   1.784  0.8485 -0.3239  0.6372
 4356TIP3    H134483   5.968   1.191   1.868  1.5296 -2.3069 -0.4440
 4356TIP3    H234484   5.893   1.160   1.740 -2.4451  1.8491  0.7438
 4357TIP3   OH234485   1.120   5.465  10.350 -0.3985 -0.0296  0.1586
 4357TIP3    H134486   1.049   5.403  10.362 -1.7587  1.9232  2.7495
 4357TIP3    H234487   1.190   5.433  10.408 -0.0229 -0.6423 -0.6149
 4358TIP3   OH234488   6.273   1.621   0.664 -0.1111 -0.1891 -0.0790
 4358TIP3    H134489   6.330   1.603   0.739 -0.8770 -0.4593  0.4445
 4358TIP3    H234490   6.266   1.717   0.662  0.6041 -0.1419 -0.3297
 4359TIP3   OH234491   1.321   1.669   5.014 -0.1724  0.0618  0.1040
 4359TIP3    H134492   1.408   1.697   4.988 -0.4846  2.1200  1.1971
 4359TIP3    H234493   1.287   1.623   4.937  1.0495  1.1198 -1.0923
 4360TIP3   OH234494   0.826   6.538  14.935 -0.0203 -0.0689 -0.4032
 4360TIP3    H134495   0.814   6.465  14.873 -0.1614  0.8203 -1.4388
 4360TIP3    H234496   0.759   6.523  15.002  1.7093 -2.3955  0.8703
 4361TIP3   OH234497   0.721   1.238   0.916  0.1499  0.5626 -0.5571
 4361TIP3    H134498   0.778   1.313   0.900 -0.7838  1.2314 -0.8410
 4361TIP3    H234499   0.640   1.260   0.869 -0.4098 -0.2660  0.0105
 4362TIP3   OH234500   1.995   4.666  15.538  0.1596 -0.2727  0.5505
 4362TIP3    H134501   2.052   4.701  15.606  0.1378  2.3570 -0.7260
 4362TIP3    H234502   2.055   4.628  15.474  0.3210 -0.1096  0.6064
 4363TIP3   OH234503   0.636   6.709  12.672 -0.6242  0.4266  0.0578
 4363TIP3    H134504   0.651   6.705  12.577 -0.0250 -0.0218  0.1721
 4363TIP3    H234505   0.631   6.803  12.690 -0.2616  0.5298 -0.3491
 4364TIP3   OH234506   1.496   6.030  12.401  0.3055  0.0154  0.0621
 4364TIP3    H134507   1.403   6.031  12.380  0.1724  0.3785  0.6831
 4364TIP3    H234508   1.539   6.058  12.320 -0.1556  0.4022 -0.0482
 4365TIP3   OH234509   2.987   6.661  11.809  0.0505  0.1577 -0.2066
 4365TIP3    H134510   3.016   6.652  11.899 -0.4890  2.3421  0.2098
 4365TIP3    H234511   3.043   6.730  11.772 -0.6928  0.2944 -1.1113
 4366TIP3   OH234512   6.220   2.596   1.628  0.1968 -0.3388  0.6015
 4366TIP3    H134513   6.126   2.613   1.629  0.3389  0.4604  0.9725
 4366TIP3    H234514   6.252   2.640   1.549  0.1472 -1.2296  0.0851
 4367TIP3   OH234515   4.388   6.038  11.274 -0.3754  0.2116 -0.4766
 4367TIP3    H134516   4.388   6.133  11.286 -1.5745  0.1408  0.1869
 4367TIP3    H234517   4.477   6.011  11.296 -0.3886  1.0265  0.6233
 4368TIP3   OH234518   1.700   6.721   3.743  0.5570 -0.1876  0.0845
 4368TIP3    H134519   1.615   6.693   3.777  0.9758 -1.4436  0.1394
 4368TIP3    H234520   1.751   6.744   3.821  1.7898 -3.8362  0.4640
 4369TIP3   OH234521   3.613   5.227  11.941  0.5653 -0.2231  0.1631
 4369TIP3    H134522   3.675   5.292  11.972  0.3083 -0.0096  0.2300
 4369TIP3    H234523   3.608   5.162  12.011 -0.4166  0.5297  0.8097
 4370TIP3   OH234524   3.208   5.741  14.579  0.2845  0.1361 -1.4973
 4370TIP3    H134525   3.274   5.676  14.554 -0.6994 -1.4543 -0.0571
 4370TIP3    H234526   3.153   5.696  14.643 -0.5366  2.3435 -0.6045
 4371TIP3   OH234527   5.302   5.059   3.584  0.2031  0.5333  0.0789
 4371TIP3    H134528   5.287   4.978   3.536 -1.8178  1.0988 -0.2745
 4371TIP3    H234529   5.249   5.050   3.663  2.2535  0.2905  1.4646
 4372TIP3   OH234530   3.668   0.297  13.449  0.3749 -0.0795  0.1926
 4372TIP3    H134531   3.714   0.313  13.532 -0.5668  1.1609  0.5053
 4372TIP3    H234532   3.594   0.358  13.452 -0.5290 -1.1187 -0.8861
 4373TIP3   OH234533   1.836   1.634  12.885 -0.2296  0.4020  0.9019
 4373TIP3    H134534   1.781   1.706  12.852 -0.6452 -0.6406 -0.7512
 4373TIP3    H234535   1.925   1.663  12.868 -0.4696 -1.3550 -4.0161
 4374TIP3   OH234536   2.015   3.685   2.511  0.1971  0.2813  0.0299
 4374TIP3    H134537   1.940   3.677   2.453  1.1551  0.4676 -1.2437
 4374TIP3    H234538   2.034   3.595   2.538  0.4980  0.0626 -0.9015
 4375TIP3   OH234539   0.683   4.012   3.998  0.6599 -0.1984 -0.0391
 4375TIP3    H134540   0.773   4.039   4.013  0.3955 -0.0537  1.3392
 4375TIP3    H234541   0.673   3.932   4.049 -0.0095 -0.1860 -0.1435
 4376TIP3   OH234542   0.997   1.666  16.463  0.1948  0.3942 -0.1225
 4376TIP3    H134543   0.998   1.751  16.506  0.0613 -0.7539  2.2598
 4376TIP3    H234544   1.012   1.685  16.370  1.3290  2.8999  0.5367
 4377TIP3   OH234545   5.542   5.338  17.158  0.2858 -0.0039 -0.5029
 4377TIP3    H134546   5.528   5.258  17.108 -0.0092 -0.7415  0.7390
 4377TIP3    H234547   5.497   5.406  17.107  1.1198 -0.4834 -1.9151
 4378TIP3   OH234548   6.450   5.980   0.904  0.3473 -0.4003 -0.4228
 4378TIP3    H134549   6.472   5.943   0.819 -1.0729  1.0169 -1.4348
 4378TIP3    H234550   6.522   6.040   0.924 -0.4389  0.9935 -1.7105
 4379TIP3   OH234551   1.950   4.247  13.875  0.7491 -0.0700 -0.8380
 4379TIP3    H134552   1.963   4.152  13.882 -1.4541 -0.2903  0.9256
 4379TIP3    H234553   1.972   4.280  13.962 -0.1712  0.7962 -0.9225
 4380TIP3   OH234554   2.666   5.020  12.408  0.0361 -0.1135  0.2050
 4380TIP3    H134555   2.634   5.110  12.402  0.6088 -0.0587 -2.8095
 4380TIP3    H234556   2.606   4.978  12.469 -0.3238  2.2526  1.5728
 4381TIP3   OH234557   3.375   4.623   6.529  0.1260 -0.2710  0.1381
 4381TIP3    H134558   3.288   4.660   6.545 -0.2153 -0.7513 -0.5728
 4381TIP3    H234559   3.431   4.699   6.514  0.1207  0.1125  1.9035
 4382TIP3   OH234560   5.659   6.362   4.177  0.1348  0.1721 -0.6007
 4382TIP3    H134561   5.627   6.448   4.203  1.8223  0.9317 -0.9672
 4382TIP3    H234562   5.737   6.348   4.230 -0.5488 -1.4781 -0.0000
 4383TIP3   OH234563   3.152   3.979   2.744  0.5387 -0.2319 -0.3636
 4383TIP3    H134564   3.058   3.988   2.728  1.1353  1.3281 -3.5871
 4383TIP3    H234565   3.170   3.886   2.731 -0.6951 -0.7096  1.2410
 4384TIP3   OH234566   5.693   0.989  16.672  0.0809 -0.0303 -0.7219
 4384TIP3    H134567   5.629   0.971  16.742 -0.4746  0.1687 -1.1752
 4384TIP3    H234568   5.733   1.072  16.697 -0.4893  0.3032 -0.9058
 4385TIP3   OH234569   0.151   1.702  16.088  0.4367  0.0031  0.0029
 4385TIP3    H134570   0.171   1.791  16.116  0.5572 -0.0405  0.0563
 4385TIP3    H234571   0.228   1.676  16.037 -0.2342  0.4761 -1.2868
 4386TIP3   OH234572   2.798   0.711   1.115  0.3636  0.1368 -0.0369
 4386TIP3    H134573   2.813   0.638   1.056  0.4124  0.2500 -0.1640
 4386TIP3    H234574   2.705   0.707   1.136  0.6757 -0.8971  1.1836
 4387TIP3   OH234575   0.603   6.616  15.473 -0.0158 -0.0732  0.4758
 4387TIP3    H134576   0.666   6.585  15.409  1.2351 -2.7310  2.8662
 4387TIP3    H234577   0.637   6.701  15.501  1.1003 -0.3145 -0.1236
 4388TIP3   OH234578   0.243   1.036  17.177  0.3722  0.2989  0.5074
 4388TIP3    H134579   0.161   0.986  17.175  0.7674 -0.3141 -1.6129
 4388TIP3    H234580   0.310   0.973  17.152  1.3068  1.1656  0.8080
 4389TIP3   OH234581   1.176   5.904   3.405  0.0963  0.1568 -0.0347
 4389TIP3    H134582   1.226   5.951   3.338  1.7680  0.3206  1.2761
 4389TIP3    H234583   1.162   5.969   3.474  0.5568 -0.6621  0.8474
 4390TIP3   OH234584   5.254   1.803   3.204 -0.0584 -0.4137  0.2191
 4390TIP3    H134585   5.249   1.741   3.131  2.6464  1.0783 -1.3112
 4390TIP3    H234586   5.331   1.775   3.254  1.3319  1.7968 -0.6187
 4391TIP3   OH234587   5.576   5.053   0.814  0.6777  0.1114  0.2568
 4391TIP3    H134588   5.508   5.119   0.824  1.8496  1.3488  0.1249
 4391TIP3    H234589   5.639   5.092   0.754  0.8210 -1.5794 -0.7157
 4392TIP3   OH234590   3.945   2.060   5.451  0.5224  0.8195 -0.1351
 4392TIP3    H134591   3.919   1.968   5.445  1.8604  0.4716 -0.5829
 4392TIP3    H234592   3.863   2.108   5.435 -0.4510 -0.2773  1.3719
 4393TIP3   OH234593   2.849   6.489   0.333  0.2313  0.0689 -0.3221
 4393TIP3    H134594   2.849   6.562   0.272 -2.5578  1.4141  1.2028
 4393TIP3    H234595   2.823   6.413   0.280  1.6132  0.4536 -1.5767
 4394TIP3   OH234596   2.689   3.682   4.429 -0.5375 -0.3941  0.3915
 4394TIP3    H134597   2.679   3.745   4.358 -1.6691 -1.4236 -0.4113
 4394TIP3    H234598   2.677   3.732   4.509 -0.5218  0.5615 -0.2041
 4395TIP3   OH234599   2.572   6.175   2.264  0.2365  0.1622 -0.2932
 4395TIP3    H134600   2.525   6.145   2.342  0.8444 -1.2273 -0.4400
 4395TIP3    H234601   2.609   6.260   2.290  0.5205 -0.3322  0.9739
 4396TIP3   OH234602   2.164   3.949   1.653 -0.1603  0.1766  0.2429
 4396TIP3    H134603   2.074   3.919   1.642  0.7301 -1.5732 -2.8812
 4396TIP3    H234604   2.164   4.040   1.624 -0.8820  0.1576  0.1862
 4397TIP3   OH234605   5.099   0.611   6.491  0.0595 -0.0452 -0.1877
 4397TIP3    H134606   5.142   0.526   6.478  1.3696  0.7252 -1.0171
 4397TIP3    H234607   5.151   0.673   6.439 -0.2963  1.4422  1.1797
 4398TIP3   OH234608   3.863   4.280   5.636  0.1521 -0.3818 -0.2167
 4398TIP3    H134609   3.875   4.361   5.686  1.4738 -0.2520 -0.7195
 4398TIP3    H234610   3.952   4.250   5.618 -0.3266 -1.7351 -0.3883
 4399TIP3   OH234611   3.367   2.178  11.472  0.4411  0.0389  0.3250
 4399TIP3    H134612   3.287   2.226  11.449 -0.0937 -1.2810 -0.6036
 4399TIP3    H234613   3.358   2.160  11.565  0.0428  0.5932  0.3991
 4400TIP3   OH234614   5.178   4.196   1.378  0.1548  0.4004  0.6210
 4400TIP3    H134615   5.166   4.289   1.360  0.1223  0.0456 -1.3768
 4400TIP3    H234616   5.130   4.152   1.307  3.1901 -1.1094 -0.5774
 4401TIP3   OH234617   4.164   6.663   0.419  0.3563 -0.1276 -0.1502
 4401TIP3    H134618   4.250   6.661   0.377  0.1444  2.8101 -0.8192
 4401TIP3    H234619   4.183   6.690   0.509  0.2749 -1.0733  0.1554
 4402TIP3   OH234620   1.105   6.215  13.701 -0.7700  0.0502 -0.1676
 4402TIP3    H134621   1.017   6.201  13.734 -0.7331  1.8885  0.7400
 4402TIP3    H234622   1.095   6.214  13.605 -1.9920  1.5608 -0.0674
 4403TIP3   OH234623   5.331   6.646  13.607  0.3297  0.0779  0.4478
 4403TIP3    H134624   5.355   6.570  13.659 -1.8219 -0.1177  1.2334
 4403TIP3    H234625   5.318   6.611  13.519  0.8816 -0.1811  0.4691
 4404TIP3   OH234626   1.045   3.990   4.563 -0.3681 -0.2338  0.5692
 4404TIP3    H134627   0.972   3.928   4.567 -1.5246  1.0551 -0.1718
 4404TIP3    H234628   1.056   4.009   4.470  0.3769  0.1921  0.7399
 4405TIP3   OH234629   1.755   6.583  12.475 -0.1596  0.0079 -0.2150
 4405TIP3    H134630   1.705   6.630  12.542 -0.9145 -2.5626  1.1221
 4405TIP3    H234631   1.690   6.560  12.408  0.3352  1.3970 -1.2019
 4406TIP3   OH234632   1.939   1.501  14.054 -0.0153  0.4381 -0.2839
 4406TIP3    H134633   1.900   1.477  14.138  0.1695 -0.2439 -0.3937
 4406TIP3    H234634   1.883   1.459  13.989 -0.6899  1.6997 -0.5426
 4407TIP3   OH234635   5.393   2.237  11.620 -0.0820 -0.0076 -0.0330
 4407TIP3    H134636   5.328   2.177  11.583 -1.8343  0.3459  2.3639
 4407TIP3    H234637   5.353   2.269  11.701  1.9296  2.3716  0.0815
 4408TIP3   OH234638   2.704   4.339  13.422 -0.0277  0.8122 -0.3370
 4408TIP3    H134639   2.708   4.408  13.355  0.2214 -1.3004 -2.5734
 4408TIP3    H234640   2.646   4.273  13.385 -2.1514  0.8169  2.8014
 4409TIP3   OH234641   4.388   2.668  15.448 -0.2451  0.3874  0.1066
 4409TIP3    H134642   4.481   2.668  15.469  0.2271 -1.3667 -1.7386
 4409TIP3    H234643   4.378   2.735  15.381 -0.4787  1.2160  0.9727
 4410TIP3   OH234644   1.946   3.400   5.947  0.2832 -0.1047 -0.1829
 4410TIP3    H134645   1.999   3.321   5.943  1.4791  0.7572 -2.2050
 4410TIP3    H234646   1.982   3.451   6.019  0.3281 -0.8358  0.3080
 4411TIP3   OH234647   5.367   0.700  16.431  0.6971 -0.2519  0.1231
 4411TIP3    H134648   5.311   0.623  16.441  1.1954 -0.3414  2.5236
 4411TIP3    H234649   5.451   0.674  16.469  1.6835  0.6468 -1.3574
 4412TIP3   OH234650   0.686   5.047  12.819 -0.3345 -0.4776 -0.4839
 4412TIP3    H134651   0.598   5.050  12.782 -0.9060 -0.1171  0.8839
 4412TIP3    H234652   0.678   5.088  12.905  1.2220 -0.1987 -0.4479
 4413TIP3   OH234653   2.979   4.184  14.997 -0.1828  0.1352 -0.4212
 4413TIP3    H134654   2.911   4.166  15.062 -0.1384 -1.5481 -0.8186
 4413TIP3    H234655   2.944   4.149  14.915  1.3918 -1.2545 -0.5173
 4414TIP3   OH234656   1.008   5.491  11.751 -0.2616  0.1246 -0.1141
 4414TIP3    H134657   0.990   5.399  11.772  1.5497  0.0809  1.3886
 4414TIP3    H234658   1.099   5.492  11.723  0.0109  1.5799  0.7501
 4415TIP3   OH234659   6.461   0.772   2.397 -0.1555  0.2485 -0.0908
 4415TIP3    H134660   6.510   0.709   2.450  0.0136  0.5547  0.1179
 4415TIP3    H234661   6.528   0.834   2.366 -0.2910  0.2120 -0.4580
 4416TIP3   OH234662   2.912   5.733  16.154  0.0929  0.4669  0.5228
 4416TIP3    H134663   2.933   5.805  16.095  0.3273 -0.0373 -0.0061
 4416TIP3    H234664   2.976   5.665  16.133 -2.6177 -1.4530 -1.7699
 4417TIP3   OH234665   6.025   2.130   2.618 -0.0288  0.2854 -0.2098
 4417TIP3    H134666   6.026   2.189   2.693 -0.7343  1.0382 -0.7758
 4417TIP3    H234667   6.097   2.070   2.633  1.3869  1.9695 -0.1306
 4418TIP3   OH234668   3.426   5.574  14.572  0.8560 -0.6304 -0.3577
 4418TIP3    H134669   3.513   5.554  14.607  2.0323  1.7782 -1.7844
 4418TIP3    H234670   3.439   5.576  14.477 -0.8452 -0.6051 -0.5907
 4419TIP3   OH234671   1.949   4.542   3.611 -0.6407  0.1807  0.0366
 4419TIP3    H134672   1.941   4.619   3.555 -0.3759  1.9384  2.3525
 4419TIP3    H234673   2.027   4.559   3.665  0.6883 -2.6953 -0.9013
 4420TIP3   OH234674   3.785   1.661  10.793  0.1504 -0.1611 -0.0421
 4420TIP3    H134675   3.754   1.647  10.703 -2.9131  0.6573  0.8358
 4420TIP3    H234676   3.735   1.598  10.846  0.0875  1.0823  1.4034
 4421TIP3   OH234677   1.079   1.870  16.914  0.1571 -0.1059  0.1856
 4421TIP3    H134678   1.113   1.926  16.983  0.7683 -0.3459  0.0884
 4421TIP3    H234679   1.008   1.920  16.874 -1.0962 -0.5101  1.8561
 4422TIP3   OH234680   0.290   3.943   0.374 -0.1840  0.4449  0.7756
 4422TIP3    H134681   0.283   4.018   0.316 -1.0593 -0.5450 -0.4242
 4422TIP3    H234682   0.199   3.924   0.399 -0.2164 -1.6726 -0.8425
 4423TIP3   OH234683   5.580   3.742   1.537 -0.2774  0.3506  0.1404
 4423TIP3    H134684   5.582   3.797   1.615  0.3029 -1.3429  1.3246
 4423TIP3    H234685   5.486   3.732   1.518 -0.3914  1.9534 -0.2648
 4424TIP3   OH234686   3.944   5.819   0.055  0.3990 -0.5687 -0.0945
 4424TIP3    H134687   3.901   5.750   0.104 -0.3429  0.0476  0.1278
 4424TIP3    H234688   4.003   5.861   0.118 -0.3735  0.0657  0.2047
 4425TIP3   OH234689   0.220   2.996   4.482  0.5365 -0.4874  0.1561
 4425TIP3    H134690   0.314   2.978   4.489  1.1952  2.0948 -1.0866
 4425TIP3    H234691   0.208   3.022   4.390 -0.5006  3.5160  1.3106
 4426TIP3   OH234692   5.335   1.240  14.530  0.1319 -0.1733  0.6425
 4426TIP3    H134693   5.396   1.284  14.589  0.5775 -0.6700  0.5543
 4426TIP3    H234694   5.376   1.155  14.512 -1.6143 -1.3924  2.3070
 4427TIP3   OH234695   0.340   5.021   2.764 -0.0720 -0.7708  0.4158
 4427TIP3    H134696   0.429   4.995   2.739 -0.8211 -0.9108 -2.1629
 4427TIP3    H234697   0.351   5.108   2.802  1.1841 -0.8158  0.1817
 4428TIP3   OH234698   4.378   1.499  15.137 -0.0937 -0.0820  0.2532
 4428TIP3    H134699   4.459   1.482  15.088  0.6452 -1.1330  1.8145
 4428TIP3    H234700   4.366   1.422  15.192 -1.0147  1.0154  1.6256
 4429TIP3   OH234701   4.124   4.760   3.327  0.4205  0.4534  0.4765
 4429TIP3    H134702   4.210   4.762   3.369 -0.0093  0.9818  1.3548
 4429TIP3    H234703   4.097   4.852   3.324  0.1417  0.3469 -0.3407
 4430TIP3   OH234704   4.140   3.033   1.499  0.2792  0.2068 -0.0088
 4430TIP3    H134705   4.199   2.966   1.465 -2.9209 -1.8848 -1.6931
 4430TIP3    H234706   4.095   3.067   1.422 -0.7397  1.7261  1.2173
 4431TIP3   OH234707   5.154   3.262   4.916  0.3345  0.2132  0.7698
 4431TIP3    H134708   5.190   3.350   4.901  0.1526  0.3868  1.3277
 4431TIP3    H234709   5.194   3.234   4.998 -2.6716  1.4283  2.7482
 4432TIP3   OH234710   2.380   3.176  14.789 -0.1114 -0.4734  0.0393
 4432TIP3    H134711   2.430   3.257  14.780 -1.1110  0.0810 -0.5997
 4432TIP3    H234712   2.313   3.181  14.720 -1.6331 -0.7772  1.4628
 4433TIP3   OH234713   5.880   2.483   3.468  0.4373  0.0586 -0.5161
 4433TIP3    H134714   5.964   2.466   3.511  0.7633  1.2377 -0.6828
 4433TIP3    H234715   5.893   2.564   3.419 -0.9643  0.5524 -0.1088
 4434TIP3   OH234716   0.772   2.406  15.691 -0.7217  0.0488 -0.5459
 4434TIP3    H134717   0.816   2.447  15.617  1.5108  0.7589  1.1067
 4434TIP3    H234718   0.759   2.477  15.754 -0.1606 -1.0337  0.8308
 4435TIP3   OH234719   3.460   5.609   3.144 -0.3464 -0.1891  0.1253
 4435TIP3    H134720   3.399   5.676   3.175 -0.8980 -1.5797  2.1247
 4435TIP3    H234721   3.507   5.581   3.223  0.5022 -1.5336 -0.8309
 4436TIP3   OH234722   4.578   5.272  16.238 -0.6972  0.3274 -0.0218
 4436TIP3    H134723   4.572   5.338  16.307  0.9057  0.9715 -0.4789
 4436TIP3    H234724   4.565   5.321  16.157  1.2750  0.2428 -0.4155
 4437TIP3   OH234725   2.299   2.133   3.534 -0.5411  0.4431  0.3055
 4437TIP3    H134726   2.338   2.046   3.527 -0.4704  0.5058 -0.0884
 4437TIP3    H234727   2.343   2.184   3.467 -2.0628  0.2357 -0.8736
 4438TIP3   OH234728   3.205   1.271  11.954 -0.4462 -0.1768  0.1528
 4438TIP3    H134729   3.164   1.332  11.893  0.6919  0.5741  0.1388
 4438TIP3    H234730   3.156   1.282  12.036 -1.0647 -0.1725 -0.2155
 4439TIP3   OH234731   6.471   5.295  15.043 -0.2453 -0.0435  0.2519
 4439TIP3    H134732   6.422   5.245  15.108 -0.4534  0.4160  0.4500
 4439TIP3    H234733   6.439   5.263  14.959  0.1954 -0.8105  0.3729
 4440TIP3   OH234734   4.676   1.731   1.944  0.2920 -0.3889 -0.0614
 4440TIP3    H134735   4.690   1.649   1.897  0.5458  0.2490 -1.1273
 4440TIP3    H234736   4.598   1.769   1.904 -0.4272 -0.5858  1.1249
 4441TIP3   OH234737   3.354   2.307  15.301  0.4800 -0.0410  0.4481
 4441TIP3    H134738   3.295   2.248  15.254 -0.1538  0.6884  0.3273
 4441TIP3    H234739   3.297   2.368  15.347  1.1220  0.0932  1.0821
 4442TIP3   OH234740   2.841   4.612   6.061 -0.3266  0.0872 -0.4718
 4442TIP3    H134741   2.853   4.542   6.126  0.5229 -1.4988 -2.2800
 4442TIP3    H234742   2.915   4.671   6.076 -1.0746  0.6469  1.1089
 4443TIP3   OH234743   1.494   3.421   2.238 -0.0082 -0.1319 -0.0440
 4443TIP3    H134744   1.496   3.342   2.291  0.5893  0.8945  1.5083
 4443TIP3    H234745   1.401   3.445   2.234 -0.0437 -0.1387  0.6686
 4444TIP3   OH234746   5.291   2.854   3.659  0.1403  0.4306 -0.4227
 4444TIP3    H134747   5.371   2.803   3.671 -2.5389 -3.7679  0.6584
 4444TIP3    H234748   5.270   2.887   3.747 -1.5636 -2.1595  0.1999
 4445TIP3   OH234749   5.239   1.788   0.209 -0.1445  0.2090  0.3020
 4445TIP3    H134750   5.322   1.833   0.224  0.2979 -0.1793 -0.9417
 4445TIP3    H234751   5.254   1.699   0.241 -0.2963  0.3176  0.6795
 4446TIP3   OH234752   1.586   3.385  10.832 -0.0552  0.1024 -0.3452
 4446TIP3    H134753   1.660   3.387  10.894 -1.1015  0.9054  0.9062
 4446TIP3    H234754   1.557   3.475  10.827 -0.9893 -0.2216 -0.8012
 4447TIP3   OH234755   1.767   1.356  11.855 -0.4947 -0.5709  0.1842
 4447TIP3    H134756   1.686   1.306  11.869 -1.4251  1.0435  0.8087
 4447TIP3    H234757   1.737   1.447  11.848  1.1299 -0.1169 -1.1136
 4448TIP3   OH234758   1.501   4.347   3.727  0.2787 -0.5818 -0.0342
 4448TIP3    H134759   1.512   4.268   3.676 -0.8889 -0.5923 -0.2730
 4448TIP3    H234760   1.560   4.411   3.686  0.0885 -0.8774 -0.7693
 4449TIP3   OH234761   6.226   6.775  14.539 -0.7460  0.4278 -0.5214
 4449TIP3    H134762   6.311   6.733  14.523 -0.7756  0.5458 -0.9936
 4449TIP3    H234763   6.242   6.833  14.614 -0.4332  0.3867 -0.5556
 4450TIP3   OH234764   6.495   6.538  11.347  0.3417  0.1936  0.0629
 4450TIP3    H134765   6.542   6.604  11.296  0.7460 -0.0574  0.1061
 4450TIP3    H234766   6.456   6.587  11.419  0.9315  0.3293  0.2926
 4451TIP3   OH234767   4.919   5.778   4.623 -0.0874  0.3954  0.6589
 4451TIP3    H134768   4.947   5.870   4.631 -0.4583  0.5491  0.2137
 4451TIP3    H234769   4.856   5.779   4.551  0.8305 -0.4238 -0.1520
 4452TIP3   OH234770   6.527   1.581  14.070  0.8521  0.2551 -0.1928
 4452TIP3    H134771   6.548   1.591  13.978 -1.3485  0.5241 -0.6913
 4452TIP3    H234772   6.590   1.516  14.103  0.0496 -1.7088 -2.4460
 4453TIP3   OH234773   0.794   1.590  11.100  0.7741 -0.3419 -0.2693
 4453TIP3    H134774   0.724   1.644  11.064 -0.2357 -0.3252  1.6289
 4453TIP3    H234775   0.865   1.651  11.117  1.3117 -0.3796 -2.3405
 4454TIP3   OH234776   6.605   1.735  15.240  0.2303  0.3171  0.4170
 4454TIP3    H134777   6.512   1.746  15.260  0.0812 -1.2700  0.7383
 4454TIP3    H234778   6.649   1.742  15.325  0.0931 -1.7234  0.6810
 4455TIP3   OH234779   3.203   0.035   2.394 -0.2582 -0.1191 -0.2180
 4455TIP3    H134780   3.204   0.120   2.438  0.8053  0.5592 -1.5011
 4455TIP3    H234781   3.137  -0.016   2.441  0.6535  0.6638  1.9626
 4456TIP3   OH234782   1.913   4.802  14.331 -0.2412  0.4388 -0.7511
 4456TIP3    H134783   1.874   4.853  14.261  0.1042  1.6049 -0.0969
 4456TIP3    H234784   1.942   4.866  14.395 -0.1520 -0.5925  0.2589
 4457TIP3   OH234785   0.818   4.504  12.237 -0.3100  0.0482 -0.0907
 4457TIP3    H134786   0.889   4.440  12.227 -0.3804  0.0333 -0.4932
 4457TIP3    H234787   0.750   4.457  12.286  0.1648  0.2215  0.7394
 4458TIP3   OH234788   2.352   6.549   1.459 -0.1125  0.2800 -0.0636
 4458TIP3    H134789   2.366   6.462   1.423 -0.8098  0.8571 -1.7937
 4458TIP3    H234790   2.295   6.535   1.535  2.0445 -1.0494  1.3398
 4459TIP3   OH234791   3.300   5.424  16.643 -0.2697 -0.1432  0.0579
 4459TIP3    H134792   3.381   5.392  16.603 -0.8180 -1.4767 -0.0300
 4459TIP3    H234793   3.230   5.388  16.587 -0.9546 -0.0177  0.8289
 4460TIP3   OH234794   1.742   2.421  16.413  0.1294  0.2344  0.0907
 4460TIP3    H134795   1.746   2.334  16.372  0.7994  0.3279 -0.0413
 4460TIP3    H234796   1.683   2.409  16.487 -0.3086 -0.1743 -0.3212
 4461TIP3   OH234797   1.151   0.091  15.219 -0.1343  0.4348  0.2497
 4461TIP3    H134798   1.138   0.071  15.311  0.3600  0.4522  0.3226
 4461TIP3    H234799   1.246   0.089  15.206 -0.3142 -2.9620 -1.0309
 4462TIP3   OH234800   2.286   4.448   1.774  0.2900 -1.1192  1.1765
 4462TIP3    H134801   2.197   4.463   1.806 -0.0988 -0.6485 -0.0960
 4462TIP3    H234802   2.324   4.535   1.766  0.6533 -1.2836  1.1188
 4463TIP3   OH234803   6.398   5.688  12.454  0.2974 -0.0221 -0.3534
 4463TIP3    H134804   6.449   5.737  12.389  1.9739 -0.0219  0.9362
 4463TIP3    H234805   6.359   5.755  12.510  0.6752 -0.0903 -0.0076
 4464TIP3   OH234806   2.714   3.618  16.451 -0.6911  0.5621  0.4726
 4464TIP3    H134807   2.685   3.626  16.360  0.2960  0.1015  0.1160
 4464TIP3    H234808   2.676   3.536  16.482  1.5121 -0.8388 -0.4800
 4465TIP3   OH234809   2.423   4.388  16.428 -0.2729 -0.2316 -0.3261
 4465TIP3    H134810   2.407   4.366  16.520 -0.9411 -1.4724 -0.7289
 4465TIP3    H234811   2.374   4.322  16.379  1.1185 -0.3416 -1.5831
 4466TIP3   OH234812   6.274   1.596   2.391  0.2603  0.7546 -0.3965
 4466TIP3    H134813   6.191   1.638   2.369 -1.4372 -2.0163  0.4148
 4466TIP3    H234814   6.315   1.578   2.306 -0.6965  0.7849 -0.8719
 4467TIP3   OH234815   4.429   0.930  14.904  0.1305 -0.3474 -0.1407
 4467TIP3    H134816   4.367   0.949  14.975  0.5854  0.8723 -0.0539
 4467TIP3    H234817   4.505   0.891  14.948 -0.6098 -1.9902 -0.2635
 4468TIP3   OH234818   1.941   3.468  15.392 -0.4909  0.1736  0.2566
 4468TIP3    H134819   2.018   3.435  15.347  0.0743  1.2694  0.4032
 4468TIP3    H234820   1.868   3.418  15.356  0.1100  0.1908 -0.9843
 4469TIP3   OH234821   5.837   4.254  11.621  0.3528  0.0444 -0.1592
 4469TIP3    H134822   5.749   4.273  11.586  0.7533  1.1306 -0.6118
 4469TIP3    H234823   5.835   4.292  11.709  0.0618 -0.7622  0.1826
 4470TIP3   OH234824   0.957   4.992   1.077  0.3516  0.1768 -0.2736
 4470TIP3    H134825   0.949   4.897   1.077  2.5210 -0.0538 -2.1286
 4470TIP3    H234826   0.984   5.014   1.166  1.5204 -1.1240 -0.2966
 4471TIP3   OH234827   3.855   0.362  13.969 -0.5978  0.5079 -0.3934
 4471TIP3    H134828   3.894   0.373  14.056 -2.5259  1.7128  0.3315
 4471TIP3    H234829   3.762   0.378  13.982 -1.1440 -0.8512 -2.3978
 4472TIP3   OH234830   2.282   4.506   4.628 -0.1797  0.1319 -0.2421
 4472TIP3    H134831   2.281   4.421   4.673  0.4870 -0.0050 -0.4774
 4472TIP3    H234832   2.234   4.565   4.687 -0.3300 -0.3211  0.0941
 4473TIP3   OH234833   3.961   1.343  15.661  0.4738 -0.4255 -0.4285
 4473TIP3    H134834   4.026   1.394  15.708  2.0827 -2.7982  0.0001
 4473TIP3    H234835   3.951   1.263  15.712  0.4628 -1.9936 -2.7989
 4474TIP3   OH234836   1.918   0.617  12.431 -0.1854  0.1879 -0.6983
 4474TIP3    H134837   1.900   0.670  12.353  1.6197  0.2513 -1.1076
 4474TIP3    H234838   1.966   0.541  12.397 -1.1193 -0.7651  0.1194
 4475TIP3   OH234839   1.834   6.011   4.371 -0.0408 -0.3706 -0.0219
 4475TIP3    H134840   1.858   5.941   4.432 -1.6349 -1.2817 -0.3914
 4475TIP3    H234841   1.803   5.964   4.293  0.3662  0.7733 -0.8718
 4476TIP3   OH234842   0.863   3.116   5.336 -0.2294 -1.3489 -0.0631
 4476TIP3    H134843   0.796   3.125   5.404 -1.8936  1.5689 -1.9950
 4476TIP3    H234844   0.827   3.054   5.274 -0.5193 -0.8791 -0.3663
 4477TIP3   OH234845   0.265   5.934   6.186  0.1446  0.4246 -0.1265
 4477TIP3    H134846   0.319   5.957   6.110  0.2165 -0.7922 -0.4405
 4477TIP3    H234847   0.176   5.959   6.160  0.2783  0.7006 -0.3233
 4478TIP3   OH234848   4.622   5.138  12.499  0.5964 -0.8009  0.4072
 4478TIP3    H134849   4.549   5.077  12.512 -1.1477  1.1159 -0.1077
 4478TIP3    H234850   4.635   5.178  12.585  0.3553 -0.3910  0.2517
 4479TIP3   OH234851   3.379   2.692  17.062 -0.0987 -0.5400 -0.3477
 4479TIP3    H134852   3.412   2.777  17.034  1.0784 -0.9846 -0.3536
 4479TIP3    H234853   3.318   2.666  16.993 -1.1578  0.6915  0.1052
 4480TIP3   OH234854   0.664   2.554   3.254 -0.0362 -0.1770  0.9474
 4480TIP3    H134855   0.759   2.556   3.240 -0.2429  1.4734 -0.3806
 4480TIP3    H234856   0.628   2.585   3.171 -1.6867  0.6771  1.9778
 4481TIP3   OH234857   4.294   6.269  10.966  0.3694  0.1116 -0.1073
 4481TIP3    H134858   4.227   6.294  10.903 -0.7903 -0.3281  0.9214
 4481TIP3    H234859   4.377   6.278  10.919 -0.5437 -1.2781 -2.0417
 4482TIP3   OH234860   6.046   1.410   1.563  0.8559 -0.0643  0.0626
 4482TIP3    H134861   6.124   1.462   1.581 -0.3570  1.7469  0.1586
 4482TIP3    H234862   6.039   1.351   1.638  0.5789  1.6562  1.4100
 4483TIP3   OH234863   2.967   1.968   4.101  0.5603 -0.0715 -0.1454
 4483TIP3    H134864   3.040   1.992   4.159 -0.7788  3.2358  0.2803
 4483TIP3    H234865   2.888   1.986   4.153 -0.6174 -2.2724 -1.0925
 4484TIP3   OH234866   2.664   2.552  15.563 -0.2143  0.7301 -0.3309
 4484TIP3    H134867   2.613   2.477  15.532 -0.0439  0.8289 -0.8450
 4484TIP3    H234868   2.639   2.561  15.655 -0.0947 -0.0744 -0.2179
 4485TIP3   OH234869   2.418   5.696  10.634 -0.0067 -0.5720 -0.4542
 4485TIP3    H134870   2.432   5.788  10.608 -1.8910 -0.1747 -0.1340
 4485TIP3    H234871   2.505   5.656  10.626  0.8983  1.2899 -0.3739
 4486TIP3   OH234872   4.422   1.241   3.886 -0.4982 -0.1122 -0.2696
 4486TIP3    H134873   4.409   1.264   3.978 -2.0685  0.4558 -0.6237
 4486TIP3    H234874   4.515   1.255   3.871 -0.5259  1.3354  0.8194
 4487TIP3   OH234875   4.761   2.557  15.041  0.0719  0.3202 -0.3097
 4487TIP3    H134876   4.820   2.484  15.021 -0.0353  0.3049 -0.5734
 4487TIP3    H234877   4.683   2.540  14.987 -0.1709  0.3444  0.0327
 4488TIP3   OH234878   4.061   3.339   0.080  0.2632  0.2638 -0.1822
 4488TIP3    H134879   4.124   3.411   0.076  0.5685 -0.0212 -0.5592
 4488TIP3    H234880   4.084   3.282   0.006 -0.2198 -0.0198 -0.1200
 4489TIP3   OH234881   4.802   1.117  13.088  0.8009  0.1769 -0.1815
 4489TIP3    H134882   4.870   1.109  13.155  0.5766 -3.2159 -0.2298
 4489TIP3    H234883   4.796   1.029  13.051 -3.7733  0.3357 -0.0333
 4490TIP3   OH234884   2.319   0.740   4.454  0.3333 -0.1015  0.0830
 4490TIP3    H134885   2.251   0.690   4.409  0.4925  0.8909 -1.2939
 4490TIP3    H234886   2.383   0.760   4.386  0.7778  1.0990  0.8368
 4491TIP3   OH234887   2.960   3.013  15.536  0.3974  0.3759 -0.9270
 4491TIP3    H134888   2.918   3.097  15.555  1.1408  0.3946  0.7586
 4491TIP3    H234889   3.023   3.001  15.608 -0.3893 -2.0698 -0.6089
 4492TIP3   OH234890   5.263   4.228   0.373  0.0062 -0.3076  0.2184
 4492TIP3    H134891   5.172   4.201   0.383 -0.8605  2.2882 -0.2948
 4492TIP3    H234892   5.289   4.195   0.287 -1.0756  0.5873 -0.4650
 4493TIP3   OH234893   3.659   5.370   4.715 -0.2217 -0.3085 -0.0111
 4493TIP3    H134894   3.682   5.332   4.800 -1.2343 -0.2416  0.2987
 4493TIP3    H234895   3.650   5.294   4.657  1.9610 -0.2681 -0.4489
 4494TIP3   OH234896   6.053   3.152   1.918  0.1852  0.6174  0.0272
 4494TIP3    H134897   5.981   3.094   1.943  0.6750  0.5600  1.3292
 4494TIP3    H234898   6.048   3.224   1.981  1.4403  0.4809  0.2778
 4495TIP3   OH234899   4.839   5.088  10.583 -0.5345  0.1570 -0.3272
 4495TIP3    H134900   4.812   5.179  10.598  0.0298  0.3729 -0.6182
 4495TIP3    H234901   4.758   5.037  10.591 -0.9202  0.7342 -0.5849
 4496TIP3   OH234902   3.828   3.694   3.866 -0.3213 -0.1193  0.2238
 4496TIP3    H134903   3.851   3.683   3.959 -1.1512  0.8176  0.5407
 4496TIP3    H234904   3.761   3.627   3.850 -0.1318 -0.3243  0.2762
 4497TIP3   OH234905   3.707   2.719  11.487 -0.5897 -0.0697 -0.1391
 4497TIP3    H134906   3.744   2.690  11.571 -2.0619  0.1566  0.6082
 4497TIP3    H234907   3.782   2.752  11.438 -0.0587  2.3461  2.1645
 4498TIP3   OH234908   4.987   3.148  16.463  0.3677  0.3134  0.2654
 4498TIP3    H134909   5.016   3.071  16.512  0.2324  0.1177  0.0408
 4498TIP3    H234910   4.900   3.168  16.499 -0.7917 -1.2808 -1.5154
 4499TIP3   OH234911   3.037   0.643  13.727  0.4294 -0.3476  0.1192
 4499TIP3    H134912   3.127   0.660  13.756  0.1240  0.2562  0.7245
 4499TIP3    H234913   3.028   0.548  13.732  1.3385 -0.5041 -0.8702
 4500TIP3   OH234914   4.009   2.313  12.604  0.3173  0.1294 -0.7694
 4500TIP3    H134915   4.064   2.383  12.568  1.2252 -0.3248 -0.2727
 4500TIP3    H234916   4.035   2.235  12.555 -0.0125 -0.0503 -0.6546
 4501TIP3   OH234917   1.322   1.144   3.201 -0.3161  0.2195  0.2059
 4501TIP3    H134918   1.331   1.154   3.296 -0.6061 -2.2608  0.5272
 4501TIP3    H234919   1.252   1.205   3.178  0.5142  1.6650  1.4028
 4502TIP3   OH234920   3.350   3.432  16.365 -0.6397 -0.2865 -0.4145
 4502TIP3    H134921   3.335   3.345  16.400 -1.7233  0.3994  0.8592
 4502TIP3    H234922   3.311   3.491  16.429  0.4949  1.1635 -1.0317
 4503TIP3   OH234923   5.170   4.104  10.511  0.2211  0.1655 -0.0004
 4503TIP3    H134924   5.087   4.061  10.492 -0.9713  2.1951  0.4393
 4503TIP3    H234925   5.195   4.145  10.428 -0.0271  0.8962  0.2877
 4504TIP3   OH234926   4.867   6.363   3.876  0.0562  0.2431  0.5757
 4504TIP3    H134927   4.872   6.298   3.805 -0.2824  0.5203  0.2962
 4504TIP3    H234928   4.917   6.438   3.843  1.6512 -0.4092  1.4781
 4505TIP3   OH234929   6.249   1.874   2.955 -0.2621 -0.3856 -0.1835
 4505TIP3    H134930   6.180   1.838   3.011 -0.3142  0.0591  0.0419
 4505TIP3    H234931   6.327   1.875   3.011 -0.2449 -0.2122 -0.2094
 4506TIP3   OH234932   4.098   6.303  15.818  0.2167 -0.0821  0.6115
 4506TIP3    H134933   4.024   6.244  15.834  0.9867 -0.6206  2.2497
 4506TIP3    H234934   4.145   6.306  15.901  1.3080  1.2991 -0.0341
 4507TIP3   OH234935   0.035   3.592  12.354  0.6235 -0.4262  0.7108
 4507TIP3    H134936  -0.003   3.630  12.433 -0.0707  0.1346  0.1125
 4507TIP3    H234937   0.060   3.667  12.301  0.3823 -0.8004  0.0607
 4508TIP3   OH234938   2.017   1.830  15.334  0.5574  0.0734  0.1459
 4508TIP3    H134939   2.002   1.921  15.361  2.3381  1.1341 -2.2577
 4508TIP3    H234940   1.962   1.820  15.256  0.9120 -0.6985 -0.0014
 4509TIP3   OH234941   5.991   5.275   2.937 -0.2578  0.0437  0.0010
 4509TIP3    H134942   5.924   5.343   2.943 -0.3244  0.2670 -2.7559
 4509TIP3    H234943   5.943   5.193   2.942 -0.4571  0.1894  0.5651
 4510TIP3   OH234944   4.161   4.557   5.537 -0.0744  0.3527 -0.3203
 4510TIP3    H134945   4.072   4.541   5.505 -0.7449 -1.0009  2.0620
 4510TIP3    H234946   4.199   4.618   5.474 -2.4692  0.4395 -1.7365
 4511TIP3   OH234947   2.416   6.637  14.720  0.2702  0.0433  0.3503
 4511TIP3    H134948   2.388   6.686  14.798 -0.3246  1.4335 -0.7197
 4511TIP3    H234949   2.375   6.551  14.730 -1.9355  1.0452  0.3332
 4512TIP3   OH234950   3.000   2.724   2.484  0.1947  0.5535  0.1395
 4512TIP3    H134951   3.081   2.699   2.528 -0.4535 -0.7388  0.6550
 4512TIP3    H234952   2.941   2.649   2.498 -0.3455  0.5059 -2.1226
 4513TIP3   OH234953   4.124   1.888   3.561  0.2816 -0.1434 -0.1755
 4513TIP3    H134954   4.058   1.854   3.620 -0.5135  0.3846 -0.7512
 4513TIP3    H234955   4.197   1.826   3.567 -1.0838 -1.8775 -1.0979
 4514TIP3   OH234956   2.553   1.328   0.004 -0.0045  0.6347 -0.3691
 4514TIP3    H134957   2.465   1.307   0.034  0.7820 -0.1355  1.4926
 4514TIP3    H234958   2.584   1.396   0.064  1.1636 -0.0690 -0.1592
 4515TIP3   OH234959   5.330   4.521  15.733 -0.5428  0.4515 -0.3887
 4515TIP3    H134960   5.379   4.482  15.661 -0.6731  1.4917 -1.0521
 4515TIP3    H234961   5.238   4.502  15.712 -0.6087  1.1318 -0.7321
 4516TIP3   OH234962   2.721   4.463   0.036  0.2788  0.2498 -0.0073
 4516TIP3    H134963   2.652   4.520   0.070  0.2900  1.1721 -1.4664
 4516TIP3    H234964   2.701   4.377   0.072 -0.8899  0.7801  0.6301
 4517TIP3   OH234965   0.043   2.684  12.387  0.1038  0.3340 -0.1794
 4517TIP3    H134966   0.066   2.662  12.477  2.4895  0.6238 -0.6986
 4517TIP3    H234967   0.069   2.608  12.336  0.2029  0.8046 -0.8337
 4518TIP3   OH234968   0.579   4.413   3.040 -0.7991  0.2477 -0.8192
 4518TIP3    H134969   0.541   4.497   3.016 -1.7571 -0.6467 -2.5712
 4518TIP3    H234970   0.520   4.348   3.001 -0.8751 -1.2682  1.7109
 4519TIP3   OH234971   3.501   4.191   4.978  0.4906  0.1164 -0.5121
 4519TIP3    H134972   3.419   4.149   4.953 -0.2560  0.2534  1.5543
 4519TIP3    H234973   3.569   4.129   4.953 -0.2660 -0.1168 -1.9847
 4520TIP3   OH234974   3.628   1.232  15.691 -0.1896 -0.0979  0.1054
 4520TIP3    H134975   3.723   1.224  15.699 -0.1683  1.0542  1.0223
 4520TIP3    H234976   3.593   1.157  15.739  0.1954  1.0495  2.2093
 4521TIP3   OH234977   2.881   2.233  11.757  0.4683 -0.2187 -0.0722
 4521TIP3    H134978   2.799   2.280  11.741 -0.2930 -0.8681  1.7034
 4521TIP3    H234979   2.889   2.172  11.683 -0.0372  0.6726 -0.8679
 4522TIP3   OH234980   6.193   1.170  15.389 -0.0581 -0.0265  0.4014
 4522TIP3    H134981   6.209   1.172  15.295  1.2634  1.5337  0.6336
 4522TIP3    H234982   6.177   1.077  15.409 -2.0190 -0.1568 -1.5931
 4523TIP3   OH234983   0.802   1.481  11.421 -0.5160 -0.0841  0.2238
 4523TIP3    H134984   0.749   1.505  11.345 -0.5475  2.6959  1.0429
 4523TIP3    H234985   0.890   1.511  11.399 -0.1308 -0.9977  0.5108
 4524TIP3   OH234986   6.100   0.235  11.053 -0.4964 -0.3485 -0.5973
 4524TIP3    H134987   6.150   0.182  11.115 -3.1148 -1.9742  0.1896
 4524TIP3    H234988   6.113   0.325  11.083  1.6707 -0.7481 -0.2407
 4525TIP3   OH234989   3.864   3.735   4.933 -0.1611 -0.2995 -0.1008
 4525TIP3    H134990   3.810   3.664   4.900  1.0801 -1.1276 -0.4063
 4525TIP3    H234991   3.832   3.813   4.887 -2.0419 -0.5091  0.8074
 4526TIP3   OH234992   0.499   4.837  14.892 -0.7763  0.6676 -0.5164
 4526TIP3    H134993   0.511   4.921  14.849  0.8641 -0.3552 -2.1232
 4526TIP3    H234994   0.486   4.858  14.985  0.0247  2.6355 -0.8478
 4527TIP3   OH234995   1.906   3.811  12.320  0.0617 -0.1499 -0.1868
 4527TIP3    H134996   1.858   3.738  12.360  0.6312 -0.1858  0.4420
 4527TIP3    H234997   1.861   3.890  12.352  0.2653 -0.1917  0.2144
 4528TIP3   OH234998   2.890   4.013   1.589  0.5370 -0.5520 -0.0699
 4528TIP3    H134999   2.949   4.046   1.522  0.4388 -0.1764  0.0297
 4528TIP3    H235000   2.858   3.929   1.554  0.1737 -0.1652 -0.6720
 4529TIP3   OH235001   3.759   5.553  14.332  0.0598  0.4056  0.5506
 4529TIP3    H135002   3.774   5.519  14.244  0.4485  0.6440  0.5209
 4529TIP3    H235003   3.704   5.631  14.319  0.3529  0.6026  0.4939
 4530TIP3   OH235004   0.284   4.476   4.069  0.0682 -0.3424  0.2251
 4530TIP3    H135005   0.257   4.389   4.037 -0.3143 -0.5057  0.9738
 4530TIP3    H235006   0.366   4.459   4.116 -0.1219 -0.3402  0.5613
 4531TIP3   OH235007   0.105   3.183  12.742 -0.1910 -0.0177 -0.2631
 4531TIP3    H135008   0.115   3.195  12.647  0.6745 -1.3756 -0.3460
 4531TIP3    H235009   0.112   3.089  12.756 -0.3553  0.1664  1.1570
 4532TIP3   OH235010   4.733   4.757  11.970 -0.5475 -0.2600 -0.0722
 4532TIP3    H135011   4.827   4.763  11.984  0.0252 -3.2610 -2.0601
 4532TIP3    H235012   4.709   4.842  11.933  1.5387  0.2043 -0.4290
 4533TIP3   OH235013   6.153   2.875  16.549 -0.0339 -0.3170  0.2927
 4533TIP3    H135014   6.235   2.885  16.598  0.0671  1.9811 -0.2931
 4533TIP3    H235015   6.095   2.827  16.608  0.9485  0.1196  1.6342
 4534TIP3   OH235016   4.775   0.809   4.823  0.1283 -0.1438  0.4178
 4534TIP3    H135017   4.810   0.877   4.766  1.0058  1.0784  2.3326
 4534TIP3    H235018   4.681   0.825   4.825  0.2432  0.5866  0.2807
 4535TIP3   OH235019   1.594   2.187  13.425  0.0629  0.4323  0.7310
 4535TIP3    H135020   1.645   2.249  13.373  0.0021 -0.2213 -0.1233
 4535TIP3    H235021   1.657   2.150  13.487  0.5074  0.0430  0.0566
 4536TIP3   OH235022   5.082   6.110  10.874  0.3385 -0.3477  0.9637
 4536TIP3    H135023   5.089   6.205  10.878  0.8988 -0.3363 -0.0697
 4536TIP3    H235024   5.002   6.089  10.922  0.3812  0.6179  1.4624
 4537TIP3   OH235025   0.393   5.349  15.576 -0.3917  0.1610 -0.1896
 4537TIP3    H135026   0.344   5.404  15.514  0.0474  0.2922 -0.4249
 4537TIP3    H235027   0.352   5.263  15.570 -0.7274  0.3244 -0.2344
 4538TIP3   OH235028   2.875   4.084  14.764 -0.1927 -0.5358  0.4405
 4538TIP3    H135029   2.827   4.004  14.743  0.1868 -0.1975 -1.8490
 4538TIP3    H235030   2.808   4.152  14.764 -0.3521 -0.6965  1.3288
 4539TIP3   OH235031   5.888   2.459  14.727  0.7321 -0.5630 -0.0285
 4539TIP3    H135032   5.882   2.550  14.756  1.8128 -0.5083  0.0155
 4539TIP3    H235033   5.981   2.438  14.730  0.5351 -1.5378 -0.4582
 4540TIP3   OH235034   4.535   6.419  15.665 -0.7512  0.1190 -0.4040
 4540TIP3    H135035   4.535   6.439  15.571  0.9632  1.3562 -0.1747
 4540TIP3    H235036   4.591   6.342  15.672  1.7581  1.9111 -0.0826
 4541TIP3   OH235037   0.736   6.427  12.572  0.0683  0.2390 -0.0434
 4541TIP3    H135038   0.685   6.463  12.499  0.5248 -0.0926 -0.5277
 4541TIP3    H235039   0.672   6.414  12.642 -0.6249 -0.7550 -0.8556
 4542TIP3   OH235040   4.357   6.097   2.624 -0.4135  0.5544 -0.2483
 4542TIP3    H135041   4.319   6.025   2.573  1.6925 -2.4284  2.2600
 4542TIP3    H235042   4.286   6.127   2.681 -1.0444 -0.1053 -0.6832
 4543TIP3   OH235043   1.665   2.458  15.037 -0.0028 -0.2887 -0.4843
 4543TIP3    H135044   1.654   2.474  14.943  1.9222 -2.0206 -1.0545
 4543TIP3    H235045   1.578   2.437  15.069 -0.9068  1.5998 -1.5960
 4544TIP3   OH235046   1.709   0.327   5.272 -0.1797 -0.0378 -0.0726
 4544TIP3    H135047   1.656   0.262   5.319 -0.3811  0.5502  0.5087
 4544TIP3    H235048   1.774   0.355   5.335  1.6011 -1.6232 -1.1364
 4545TIP3   OH235049   1.623   5.556  12.644 -0.8853 -0.4249  0.1691
 4545TIP3    H135050   1.694   5.619  12.633 -0.8059 -0.4930  0.2831
 4545TIP3    H235051   1.556   5.603  12.694 -0.4807 -0.6871  0.9687
 4546TIP3   OH235052   0.905   5.097   0.385  0.0710 -0.3582 -0.4804
 4546TIP3    H135053   0.822   5.080   0.431  1.0799 -2.4894  0.6141
 4546TIP3    H235054   0.890   5.180   0.339 -1.2385  1.5234  3.0926
 4547TIP3   OH235055   1.949   4.650  13.283 -0.1868 -0.2308 -0.1123
 4547TIP3    H135056   1.894   4.577  13.311  0.4832 -0.6042  0.2229
 4547TIP3    H235057   2.001   4.672  13.360  1.0721 -0.7223 -0.8123
 4548TIP3   OH235058   1.192   2.895   1.537  0.0358 -0.0435 -0.1634
 4548TIP3    H135059   1.286   2.895   1.556  0.3033  3.2427 -1.0847
 4548TIP3    H235060   1.149   2.905   1.622  0.5156 -0.8758  0.1859
 4549TIP3   OH235061   3.838   0.652  11.484 -0.0927 -0.0966 -0.0567
 4549TIP3    H135062   3.862   0.658  11.576 -1.0767 -0.1713  0.2117
 4549TIP3    H235063   3.890   0.579  11.450  1.6299  1.0986 -0.0081
 4550TIP3   OH235064   6.490   3.128   4.495  0.3888  0.0577 -0.2745
 4550TIP3    H135065   6.505   3.145   4.402  0.0777  0.6313 -0.2228
 4550TIP3    H235066   6.565   3.075   4.522  0.5727  0.0425 -0.8088
 4551TIP3   OH235067   1.601   4.353  12.819 -0.2603  0.1562 -0.4459
 4551TIP3    H135068   1.638   4.276  12.863  0.9468  0.8570 -0.2084
 4551TIP3    H235069   1.619   4.339  12.726 -1.4114 -0.5714 -0.5723
 4552TIP3   OH235070   0.218   5.425   4.475 -0.3076  0.1644 -0.2200
 4552TIP3    H135071   0.174   5.488   4.531 -1.3725 -0.2599 -0.5512
 4552TIP3    H235072   0.156   5.410   4.403  0.9030  0.4734 -1.3423
 4553TIP3   OH235073   2.802   4.460   2.961 -0.2706 -0.1213  0.1506
 4553TIP3    H135074   2.832   4.541   3.002 -1.2186 -0.3400  1.3012
 4553TIP3    H235075   2.708   4.471   2.951 -0.8780 -2.1281  2.8694
 4554TIP3   OH235076   2.340   2.095   3.102  0.1752 -0.3799  0.4773
 4554TIP3    H135077   2.375   2.058   3.183 -0.6021 -1.9526  0.0911
 4554TIP3    H235078   2.257   2.050   3.088 -0.5066  1.0804 -0.3162
 4555TIP3   OH235079   2.286   6.719  14.375 -0.1777 -0.1022 -0.2985
 4555TIP3    H135080   2.351   6.701  14.443 -2.0360 -1.0678  1.2678
 4555TIP3    H235081   2.261   6.632  14.341 -1.7520  0.1432  0.1816
 4556TIP3   OH235082   3.597   6.403  15.219  0.0687  0.4118  0.3288
 4556TIP3    H135083   3.658   6.442  15.281 -0.9845 -0.1079  1.7110
 4556TIP3    H235084   3.512   6.409  15.261 -0.3536 -1.9111 -0.1147
 4557TIP3   OH235085   6.280   4.324  12.000  0.5918  0.1683  0.1171
 4557TIP3    H135086   6.370   4.341  12.029 -0.2029  0.3530  2.5763
 4557TIP3    H235087   6.285   4.238  11.959  2.0247  0.4875 -0.4188
 4558TIP3   OH235088   4.847   2.891  12.566  0.0523  0.4218 -0.2387
 4558TIP3    H135089   4.923   2.857  12.612  1.7031  2.6767 -1.2201
 4558TIP3    H235090   4.869   2.982  12.547 -2.2419  0.6689 -1.9437
 4559TIP3   OH235091   1.991   5.273   5.691 -0.1107  0.2186 -0.1724
 4559TIP3    H135092   1.908   5.263   5.739  0.6106 -0.1776  1.0193
 4559TIP3    H235093   2.056   5.290   5.759  0.7061  1.0678 -1.1468
 4560TIP3   OH235094   2.702   5.465  16.845  0.4286 -0.4052 -0.0995
 4560TIP3    H135095   2.768   5.409  16.804  1.6427 -0.0735  1.3582
 4560TIP3    H235096   2.620   5.415  16.836  1.0446 -1.2698 -1.0463
 4561TIP3   OH235097   1.346   0.848   2.763 -0.1595 -0.0892 -0.1220
 4561TIP3    H135098   1.320   0.919   2.822 -0.5671  0.6857 -1.2138
 4561TIP3    H235099   1.273   0.841   2.701 -0.3958 -1.8857  0.3517
 4562TIP3   OH235100   2.364   3.194   0.797 -0.4506  0.1368 -0.3929
 4562TIP3    H135101   2.326   3.229   0.878 -1.2269  1.4844 -1.3108
 4562TIP3    H235102   2.457   3.187   0.815 -0.4368  1.6128  0.2166
 4563TIP3   OH235103   4.687   3.601   2.983 -0.1580 -0.3813 -0.3991
 4563TIP3    H135104   4.710   3.511   3.007  0.1137 -0.3060 -0.3781
 4563TIP3    H235105   4.630   3.630   3.055  0.0252 -0.4218 -0.2377
 4564TIP3   OH235106   3.203   0.384  14.206 -0.3829  0.1493 -0.2588
 4564TIP3    H135107   3.229   0.422  14.290  4.1177  0.7665 -1.7894
 4564TIP3    H235108   3.190   0.460  14.149  0.8569 -0.3587 -1.2355
 4565TIP3   OH235109   2.410   0.232  16.644 -0.8999  0.7923 -0.4270
 4565TIP3    H135110   2.485   0.193  16.599 -1.5545 -0.4123 -0.5306
 4565TIP3    H235111   2.435   0.235  16.736 -0.6010  0.6779 -0.5046
 4566TIP3   OH235112   4.827   1.658   5.748 -0.1741  0.3747  0.0994
 4566TIP3    H135113   4.742   1.674   5.706 -1.2330  0.1407  2.0653
 4566TIP3    H235114   4.879   1.615   5.681 -2.2193 -1.1139 -0.5944
 4567TIP3   OH235115   3.291   2.053  16.125  0.0193 -0.7396 -0.2083
 4567TIP3    H135116   3.383   2.063  16.103  0.0274  0.5126  0.3501
 4567TIP3    H235117   3.245   2.074  16.044  0.2411 -2.2664 -0.7505
 4568TIP3   OH235118   2.746   2.484   1.702  0.3809  0.1953 -0.2375
 4568TIP3    H135119   2.801   2.552   1.664 -0.2263  3.4018  4.2115
 4568TIP3    H235120   2.658   2.523   1.704  0.1015 -0.4931  2.7451
 4569TIP3   OH235121   4.763   5.566  16.625  0.7334 -0.6615 -0.7055
 4569TIP3    H135122   4.746   5.473  16.610 -0.6953 -1.0787  3.0829
 4569TIP3    H235123   4.676   5.607  16.626  1.1935  0.3221  0.0468
 4570TIP3   OH235124   0.875   4.260   1.546  0.0814  0.0811  0.3550
 4570TIP3    H135125   0.875   4.173   1.587  2.3301  0.5172  1.3700
 4570TIP3    H235126   0.812   4.253   1.475  0.6937 -2.5743  0.0190
 4571TIP3   OH235127   0.600   1.169   2.777 -0.1114  0.4558 -0.0831
 4571TIP3    H135128   0.613   1.252   2.732  0.8700  0.4537  0.1964
 4571TIP3    H235129   0.652   1.105   2.728 -0.4145  0.1129  0.0319
 4572TIP3   OH235130   5.177   3.328  15.902 -0.0661 -0.0180 -0.0788
 4572TIP3    H135131   5.107   3.323  15.967  1.5034 -0.9560  1.5827
 4572TIP3    H235132   5.238   3.258  15.925  2.0375  1.4974 -0.7605
 4573TIP3   OH235133   2.972   0.995   1.684 -0.0720  0.7253 -0.0659
 4573TIP3    H135134   3.010   1.068   1.733 -0.2101  1.0248 -0.3944
 4573TIP3    H235135   3.020   0.918   1.713 -0.6311  0.7952  1.0514
 4574TIP3   OH235136   1.430   2.287  14.849 -0.2271 -0.9972  0.4013
 4574TIP3    H135137   1.510   2.330  14.820 -1.2877 -0.1924 -1.3783
 4574TIP3    H235138   1.395   2.346  14.917 -0.4293 -0.2626 -0.3351
 4575TIP3   OH235139   3.390   5.776   4.945 -0.4217  0.0990 -0.0617
 4575TIP3    H135140   3.318   5.834   4.969  0.3097  1.4416 -1.1013
 4575TIP3    H235141   3.358   5.728   4.869 -0.8511 -0.5525  0.5185
 4576TIP3   OH235142   3.020   2.628   5.219  0.0150 -0.3078  0.6691
 4576TIP3    H135143   2.944   2.685   5.228  0.2771 -0.2992  3.2012
 4576TIP3    H235144   2.988   2.541   5.241  1.0941 -0.0089  3.7369
 4577TIP3   OH235145   1.337   6.707  13.842  0.0978 -0.3949  0.7022
 4577TIP3    H135146   1.351   6.704  13.937 -0.2793 -0.5591  0.7544
 4577TIP3    H235147   1.425   6.710  13.805  0.2262  1.5222  1.1078
 4578TIP3   OH235148   3.159   1.042   0.915 -0.7557  0.2082 -0.2260
 4578TIP3    H135149   3.247   1.031   0.951 -1.8280 -0.8758  2.1731
 4578TIP3    H235150   3.122   1.115   0.965 -0.8377  1.4493 -2.0432
 4579TIP3   OH235151   1.865   0.125  14.761  0.8239 -0.2647  0.0922
 4579TIP3    H135152   1.882   0.209  14.805  0.6078  0.0537 -0.4253
 4579TIP3    H235153   1.858   0.148  14.669 -0.5434 -0.6602  0.0905
 4580TIP3   OH235154   0.356   5.916  14.262 -1.0112 -0.5621 -0.5766
 4580TIP3    H135155   0.408   5.867  14.326  2.0432  1.7087 -1.1904
 4580TIP3    H235156   0.281   5.947  14.312  1.0265  0.6933  1.8276
 4581TIP3   OH235157   3.546   5.356   0.302  0.3929  0.1565  0.1538
 4581TIP3    H135158   3.597   5.432   0.328  0.9809  0.0528 -0.6750
 4581TIP3    H235159   3.580   5.285   0.357  1.4105  0.0057 -0.6518
 4582TIP3   OH235160   4.539   3.174   2.231  0.5862 -0.7599  0.5064
 4582TIP3    H135161   4.458   3.224   2.238 -0.2459 -1.9889 -0.1861
 4582TIP3    H235162   4.582   3.208   2.152  0.0272 -1.1204  0.0432
 4583TIP3   OH235163   0.678   4.448  17.074 -0.3483 -0.2359 -0.6392
 4583TIP3    H135164   0.758   4.449  17.127 -1.0151  0.3595  0.3773
 4583TIP3    H235165   0.634   4.531  17.095 -0.5552  0.0756 -2.2406
 4584TIP3   OH235166   2.025   3.583   3.439 -0.0634 -0.1059  0.7143
 4584TIP3    H135167   2.028   3.598   3.534  2.0024  0.8285  0.5257
 4584TIP3    H235168   2.040   3.489   3.430 -1.7503 -0.4553  1.3713
 4585TIP3   OH235169   5.807   0.935   0.554 -0.0832 -0.7967 -0.0171
 4585TIP3    H135170   5.726   0.927   0.503  0.1384  0.8381 -0.6788
 4585TIP3    H235171   5.779   0.977   0.635 -0.0231 -0.9326  0.0724
 4586TIP3   OH235172   3.907   3.469   3.069 -0.1427  0.4329  0.2368
 4586TIP3    H135173   3.859   3.514   3.139  0.6011 -0.8275  1.5941
 4586TIP3    H235174   3.924   3.382   3.104 -1.6488 -0.9769 -2.4071
 4587TIP3   OH235175   4.268   2.485   5.586  0.3799  0.1205 -0.0913
 4587TIP3    H135176   4.299   2.406   5.631  1.1957  0.3937 -0.1729
 4587TIP3    H235177   4.255   2.549   5.656  2.1627  0.7162 -0.2801
 4588TIP3   OH235178   5.482   3.831  15.979  0.4634 -0.6010 -0.3786
 4588TIP3    H135179   5.526   3.755  15.940  1.5415  0.4279 -1.2113
 4588TIP3    H235180   5.428   3.866  15.908  0.4551 -0.2201 -0.1826
 4589TIP3   OH235181   5.584   0.024  16.568 -0.0029  0.5935  0.1927
 4589TIP3    H135182   5.574  -0.029  16.489  1.3829  0.4549  0.1067
 4589TIP3    H235183   5.678   0.028  16.583 -0.1425  2.3366  0.6883
 4590TIP3   OH235184   0.205   2.781   0.501 -0.3649 -0.6402 -0.3996
 4590TIP3    H135185   0.267   2.767   0.573 -0.0108  1.2327 -0.3012
 4590TIP3    H235186   0.122   2.801   0.545 -0.2635  0.0246 -0.5020
 4591TIP3   OH235187   4.707   6.477   3.076 -0.0651  0.1199 -0.2809
 4591TIP3    H135188   4.782   6.513   3.123 -1.2677  0.4249  1.4329
 4591TIP3    H235189   4.711   6.383   3.091 -0.0415  0.1373 -0.1817
 4592TIP3   OH235190   1.793   2.234   1.065  0.5989  0.3600 -0.0505
 4592TIP3    H135191   1.810   2.282   1.146 -0.6266 -0.0152  0.4450
 4592TIP3    H235192   1.820   2.293   0.995  0.7493  1.0748  0.6108
 4593TIP3   OH235193   0.429   0.432   4.464 -0.2822 -0.1756  0.1238
 4593TIP3    H135194   0.473   0.352   4.494 -0.3772 -0.0726  0.5336
 4593TIP3    H235195   0.483   0.463   4.391  0.5212  0.1486  0.8509
 4594TIP3   OH235196   2.212   4.765   0.950  0.1757 -0.1733 -0.3754
 4594TIP3    H135197   2.198   4.709   0.874 -2.8571 -0.8130  0.6044
 4594TIP3    H235198   2.159   4.842   0.933  0.9908  0.5368  0.2469
 4595TIP3   OH235199   2.311   6.468  14.041  0.3359  0.1595  0.2172
 4595TIP3    H135200   2.387   6.470  14.100  0.2253 -0.1952  0.3775
 4595TIP3    H235201   2.294   6.374  14.029 -0.9805  0.2413  1.3624
 4596TIP3   OH235202   1.889   0.968   1.899 -0.0884  0.2910  0.4555
 4596TIP3    H135203   1.951   1.027   1.857  0.9649  0.3617  2.0407
 4596TIP3    H235204   1.928   0.949   1.985 -0.3302 -2.7540 -0.0306
 4597TIP3   OH235205   3.846   5.719   2.479  0.4297 -0.4598  0.1214
 4597TIP3    H135206   3.759   5.742   2.512 -0.4499 -1.5511 -1.3484
 4597TIP3    H235207   3.858   5.628   2.507  0.2167 -0.9753 -1.4221
 4598TIP3   OH235208   1.818   2.408  13.920 -0.3260 -0.3027  0.7202
 4598TIP3    H135209   1.836   2.401  13.826  0.6883  2.2007  0.6865
 4598TIP3    H235210   1.731   2.447  13.924  0.1032  0.6646  0.7938
 4599TIP3   OH235211   0.325   3.474   3.915  0.2148 -0.2951 -0.1546
 4599TIP3    H135212   0.336   3.505   3.825  0.4337  0.1398  0.0191
 4599TIP3    H235213   0.413   3.475   3.952 -0.1763  1.9759  0.8402
 4600TIP3   OH235214   2.106   2.008  11.148  0.5606  0.3301  0.5572
 4600TIP3    H135215   2.103   1.925  11.100 -0.7887  1.1262 -0.7533
 4600TIP3    H235216   2.154   1.987  11.229  2.2989 -1.1697 -0.8214
 4601TIP3   OH235217   1.189   2.270  11.745  0.2163 -0.2180  0.5672
 4601TIP3    H135218   1.284   2.286  11.748  0.3688 -0.9602 -0.1518
 4601TIP3    H235219   1.180   2.193  11.688 -0.9516  0.8667 -0.7256
 4602TIP3   OH235220   5.575   0.496  15.532  0.4815 -0.8386 -0.0152
 4602TIP3    H135221   5.518   0.436  15.483  1.1707 -0.8051 -0.8610
 4602TIP3    H235222   5.597   0.447  15.612  1.0380 -1.7263 -0.6969
 4603TIP3   OH235223   5.137   1.212   2.340 -0.2721 -0.8164  0.4776
 4603TIP3    H135224   5.079   1.188   2.412  0.2135  0.2307  1.2450
 4603TIP3    H235225   5.220   1.234   2.383  0.2330 -0.8309 -0.4685
 4604TIP3   OH235226   3.751   5.157   5.387  0.2305  0.0306  0.1848
 4604TIP3    H135227   3.729   5.165   5.480 -2.2119 -0.1405 -0.3537
 4604TIP3    H235228   3.682   5.205   5.342  1.1893 -0.2154 -1.5721
 4605TIP3   OH235229   2.073   2.710   3.386 -0.2411 -0.1210  0.1086
 4605TIP3    H135230   2.045   2.712   3.478  0.7260 -1.8047  0.4603
 4605TIP3    H235231   2.047   2.795   3.352 -0.2508  0.6954  2.0484
 4606TIP3   OH235232   4.466   3.294  11.188  0.4016 -0.1933 -0.2552
 4606TIP3    H135233   4.446   3.235  11.116  2.0772 -0.8446 -0.2070
 4606TIP3    H235234   4.561   3.306  11.185 -0.0321  3.7033 -1.1714
 4607TIP3   OH235235   5.007   0.114  11.768 -0.3423 -0.4216 -0.9227
 4607TIP3    H135236   4.947   0.129  11.695 -1.0846  1.1056 -0.0024
 4607TIP3    H235237   4.951   0.085  11.840  0.1765 -0.1936 -0.4269
 4608TIP3   OH235238   6.426   6.603   4.847  0.2545 -0.0285  0.4393
 4608TIP3    H135239   6.365   6.626   4.916 -0.1453 -0.8157  0.3491
 4608TIP3    H235240   6.371   6.572   4.775  0.7349 -0.3916  0.2227
 4609TIP3   OH235241   3.401   5.998   0.585  0.1063  0.1123  0.1346
 4609TIP3    H135242   3.442   6.060   0.646 -2.7353  1.3038  0.9524
 4609TIP3    H235243   3.388   5.919   0.636 -1.7465  0.9177  0.9594
 4610TIP3   OH235244   5.025   0.108  15.444  0.3747 -0.2855 -0.6353
 4610TIP3    H135245   5.069   0.121  15.528 -0.2970 -0.7751 -0.2058
 4610TIP3    H235246   5.078   0.041  15.400  1.2076  0.5647 -0.9599
 4611TIP3   OH235247   0.391   1.664  15.266  0.1960  0.3506  0.4329
 4611TIP3    H135248   0.423   1.753  15.282 -0.3060  0.7688 -0.8974
 4611TIP3    H235249   0.465   1.620  15.223  0.1678  0.3509  0.3844
 4612TIP3   OH235250   0.736   3.181  11.832  0.7769  0.1681 -0.2340
 4612TIP3    H135251   0.641   3.190  11.841  0.7544  0.3154 -0.5856
 4612TIP3    H235252   0.770   3.198  11.919  0.4776  0.1388 -0.1110
 4613TIP3   OH235253   6.189   5.822   2.295  0.1867 -0.0858  0.2937
 4613TIP3    H135254   6.212   5.828   2.388  0.9987 -1.6809  0.2190
 4613TIP3    H235255   6.254   5.762   2.258 -0.1488  0.5040 -1.2997
 4614TIP3   OH235256   1.270   4.596  12.538  0.1771  0.3022  0.0873
 4614TIP3    H135257   1.184   4.631  12.514  0.0303 -0.0377  0.1133
 4614TIP3    H235258   1.270   4.507  12.504 -0.0362 -0.1992  1.3605
 4615TIP3   OH235259   5.887   1.227   1.086 -0.2377 -0.2017 -0.3274
 4615TIP3    H135260   5.939   1.217   1.166  0.4470  1.1909 -0.5806
 4615TIP3    H235261   5.803   1.186   1.107 -0.8832  2.0929  1.8996
 4616TIP3   OH235262   2.901   2.621  15.980  0.2139 -0.5307 -0.6869
 4616TIP3    H135263   2.982   2.669  16.000 -0.3111  0.9550 -2.0483
 4616TIP3    H235264   2.904   2.545  16.038  1.3346  0.8567  1.1501
 4617TIP3   OH235265   1.563   0.636  15.887 -0.0946  0.4352  0.3805
 4617TIP3    H135266   1.631   0.689  15.846 -0.9059  1.2788  0.1049
 4617TIP3    H235267   1.611   0.572  15.940  0.9602 -0.5981 -1.7566
 4618TIP3   OH235268   1.708   1.017  12.160  0.7395  0.2802 -0.3892
 4618TIP3    H135269   1.630   0.970  12.190 -0.5954  2.5984 -0.1449
 4618TIP3    H235270   1.709   1.003  12.065  0.3156 -0.1933 -0.3274
 4619TIP3   OH235271   0.278   6.201  13.799  0.2781 -0.2544  0.3543
 4619TIP3    H135272   0.191   6.217  13.762  0.4241 -1.3595 -0.5320
 4619TIP3    H235273   0.310   6.125  13.750  1.4713 -0.2610  1.1321
 4620TIP3   OH235274   1.406   1.430  16.895 -0.3455 -0.3537 -0.0960
 4620TIP3    H135275   1.485   1.421  16.841  0.6840 -0.8987  1.4859
 4620TIP3    H235276   1.418   1.513  16.941  0.5277 -1.6696  2.0938
 4621TIP3   OH235277   3.829   0.801  11.759 -0.8699  0.1620  0.1783
 4621TIP3    H135278   3.751   0.768  11.802 -1.5859 -0.0901 -1.2563
 4621TIP3    H235279   3.802   0.885  11.720 -0.8313 -0.5594 -1.4603
 4622TIP3   OH235280   2.799   5.062   0.685 -0.0824 -0.1210 -0.4362
 4622TIP3    H135281   2.811   5.156   0.673 -0.4964 -0.1924 -1.4059
 4622TIP3    H235282   2.855   5.040   0.760  0.0473  0.8866 -0.2361
 4623TIP3   OH235283   2.914   0.028   0.435 -0.0757  0.2905  0.2547
 4623TIP3    H135284   2.959  -0.013   0.509  0.3849 -1.7099 -1.0902
 4623TIP3    H235285   2.823   0.034   0.462 -0.1513 -1.6593  0.4813
 4624TIP3   OH235286   4.922   6.529  15.863  0.0844  0.0147 -0.0627
 4624TIP3    H135287   4.885   6.616  15.849  1.8198  0.7527 -0.1949
 4624TIP3    H235288   4.910   6.513  15.957 -0.5273  0.2516 -0.0998
 4625TIP3   OH235289   0.195   6.048   1.373  0.2757 -0.2724 -0.1786
 4625TIP3    H135290   0.242   6.127   1.350 -0.5432  0.2685 -0.0071
 4625TIP3    H235291   0.111   6.078   1.406 -0.2529 -1.2381 -0.6157
 4626TIP3   OH235292   6.401   6.598   5.254  0.1057  0.5479  0.2074
 4626TIP3    H135293   6.381   6.692   5.247  0.4437  0.7268  1.5507
 4626TIP3    H235294   6.408   6.582   5.348  3.3941 -0.1131 -0.1135
 4627TIP3   OH235295   3.829   6.467  17.099 -0.1126 -0.2502 -0.0043
 4627TIP3    H135296   3.802   6.535  17.037  2.0533  0.2198 -0.4648
 4627TIP3    H235297   3.841   6.389  17.045  1.0423 -0.0300 -0.0838
 4628TIP3   OH235298   4.141   3.035  14.615  0.0824  0.2443  0.6480
 4628TIP3    H135299   4.105   3.015  14.702  0.5113 -2.9284  0.1463
 4628TIP3    H235300   4.212   2.972  14.604  0.4887  1.0938 -1.7328
 4629TIP3   OH235301   5.311   4.491  13.323  0.2413  0.4960 -0.6168
 4629TIP3    H135302   5.373   4.421  13.302  0.9969  0.6711  0.8871
 4629TIP3    H235303   5.225   4.450  13.315  0.7272 -1.4352  2.8617
 4630TIP3   OH235304   4.848   4.299  13.761 -0.0591  0.2448  0.2615
 4630TIP3    H135305   4.904   4.354  13.706  0.3533 -0.8209 -0.3988
 4630TIP3    H235306   4.895   4.216  13.768 -0.8450 -0.1496  0.9479
 4631TIP3   OH235307   3.575   0.158   0.605 -0.6749 -0.3156 -0.3317
 4631TIP3    H135308   3.486   0.132   0.583 -0.8014 -0.8310  0.7958
 4631TIP3    H235309   3.606   0.204   0.527 -1.3798 -1.5014 -1.3241
 4632TIP3   OH235310   5.099   0.885  13.557  0.1985  0.3944 -0.2531
 4632TIP3    H135311   5.188   0.903  13.528  0.0054  0.4195 -0.8321
 4632TIP3    H235312   5.052   0.968  13.545 -0.0793  0.1855 -0.6074
 4633TIP3   OH235313   2.840   0.140  11.683  0.0463 -0.0441 -0.3835
 4633TIP3    H135314   2.850   0.188  11.600  0.3773 -3.0899 -2.1712
 4633TIP3    H235315   2.780   0.069  11.663 -0.5331 -0.3512  2.2483
 4634TIP3   OH235316   2.436   4.750   3.306 -0.0535 -0.8202  0.1232
 4634TIP3    H135317   2.469   4.828   3.351 -1.6929 -0.2104  0.2999
 4634TIP3    H235318   2.431   4.775   3.214 -2.2188 -0.1137  0.4068
 4635TIP3   OH235319   5.943   2.407   2.508  0.9007  0.2873 -0.0037
 4635TIP3    H135320   5.945   2.329   2.563  1.9544  0.8301  0.7564
 4635TIP3    H235321   5.859   2.449   2.528 -0.2740 -1.3290 -1.4147
 4636TIP3   OH235322   3.918   2.478  16.109 -0.3188 -0.2809  0.3471
 4636TIP3    H135323   3.901   2.522  16.026  0.9574 -1.7685 -0.7380
 4636TIP3    H235324   3.866   2.398  16.105 -0.4324 -0.2475  1.0804
 4637TIP3   OH235325   6.579   2.424   4.120 -0.0710 -0.6025  0.5577
 4637TIP3    H135326   6.659   2.399   4.168 -0.8473 -0.5236  1.9317
 4637TIP3    H235327   6.601   2.409   4.028  1.0653 -1.9031  1.0084
 4638TIP3   OH235328   3.481   0.286   5.262 -0.1146 -0.2938 -0.5386
 4638TIP3    H135329   3.433   0.230   5.323  1.2597  1.1210  1.9409
 4638TIP3    H235330   3.502   0.229   5.188 -1.0595 -2.3149  0.7094
 4639TIP3   OH235331   6.029   3.729  16.101 -0.3635  0.4621  0.0157
 4639TIP3    H135332   6.084   3.684  16.165  1.1224 -0.9678 -2.1897
 4639TIP3    H235333   6.083   3.800  16.068 -0.5258  0.2234 -0.7881
 4640TIP3   OH235334   0.275   0.585   3.823 -0.0062 -0.7298 -0.0602
 4640TIP3    H135335   0.257   0.596   3.916  1.6864  0.6770  0.1316
 4640TIP3    H235336   0.194   0.549   3.787 -1.1071 -0.1185  1.7323
 4641TIP3   OH235337   1.320   2.966   0.046 -0.0880  0.1488  0.0856
 4641TIP3    H135338   1.228   2.966   0.073  0.5501  1.7393  2.3996
 4641TIP3    H235339   1.317   2.953  -0.049 -2.5931 -1.6764  0.3565
 4642TIP3   OH235340   3.877   3.202  16.747  0.2579 -0.9990 -0.3050
 4642TIP3    H135341   3.961   3.219  16.705  0.5831 -2.6301 -0.3293
 4642TIP3    H235342   3.896   3.136  16.814 -0.9496 -1.1648 -0.1185
 4643TIP3   OH235343   0.076   0.656   0.596  0.3636 -0.4155 -0.1970
 4643TIP3    H135344   0.171   0.666   0.586  0.6827 -0.7630  2.0728
 4643TIP3    H235345   0.043   0.746   0.594  0.7563 -0.2827 -0.8569
 4644TIP3   OH235346   1.026   5.542   5.176 -0.0828  0.1296  0.0654
 4644TIP3    H135347   1.038   5.497   5.259 -1.5326 -0.9219 -0.2644
 4644TIP3    H235348   0.963   5.612   5.196  0.0221  0.2502 -0.0250
 4645TIP3   OH235349   4.770   4.421  11.497 -0.6346 -0.4848  0.1219
 4645TIP3    H135350   4.790   4.345  11.442 -2.0582 -0.8946  0.1536
 4645TIP3    H235351   4.821   4.407  11.576  0.6762 -0.3814 -0.6796
 4646TIP3   OH235352   3.487   6.320  10.389  0.4661  0.0074  0.1216
 4646TIP3    H135353   3.481   6.225  10.388  0.1652 -0.0012  1.4464
 4646TIP3    H235354   3.397   6.350  10.382  0.3388  0.1418  1.9895
 4647TIP3   OH235355   0.622   5.217   2.107 -0.2138  0.0041 -0.2928
 4647TIP3    H135356   0.607   5.291   2.048  1.0564 -0.3583 -1.0928
 4647TIP3    H235357   0.597   5.140   2.056 -2.4022 -0.0786  0.8499
 4648TIP3   OH235358   2.216   6.752   6.463 -0.0709  0.4076 -0.4257
 4648TIP3    H135359   2.302   6.794   6.456  0.5378 -1.0992 -2.2726
 4648TIP3    H235360   2.236   6.660   6.480 -1.3875  0.8074  3.9018
 4649TIP3   OH235361   2.012   5.712   0.804  0.4112 -0.1303 -0.1092
 4649TIP3    H135362   2.060   5.778   0.754 -0.0103 -0.3901 -0.8528
 4649TIP3    H235363   1.977   5.652   0.738  0.5840 -0.9619  0.5428
 4650TIP3   OH235364   5.989   4.260   3.392  0.3778  0.2275 -0.2262
 4650TIP3    H135365   5.990   4.331   3.328 -0.0936  1.9482  1.6262
 4650TIP3    H235366   5.906   4.215   3.377 -0.4641  1.6135  0.2195
 4651TIP3   OH235367   4.821   0.064   1.566  0.2198  0.0468  0.4278
 4651TIP3    H135368   4.854   0.150   1.540 -1.4567  0.5876  0.0283
 4651TIP3    H235369   4.783   0.028   1.486 -0.3774 -0.4576  0.9383
 4652TIP3   OH235370   0.109   1.243   5.302 -0.5293 -0.4607  0.3242
 4652TIP3    H135371   0.128   1.156   5.267 -0.0792 -0.3613  0.3208
 4652TIP3    H235372   0.071   1.226   5.389  1.5932 -0.5990  1.2444
 4653TIP3   OH235373   5.838   5.384  16.521  0.6422  0.2174 -0.1670
 4653TIP3    H135374   5.826   5.475  16.547  1.7834  0.7597 -1.4636
 4653TIP3    H235375   5.799   5.379  16.433  1.5068 -0.2715 -0.5311
 4654TIP3   OH235376   6.776   5.344   0.701 -0.5569  0.0285  0.3675
 4654TIP3    H135377   6.775   5.437   0.724  1.5449  0.2745 -0.3852
 4654TIP3    H235378   6.819   5.301   0.775  1.8047  0.1876 -0.8299
 4655TIP3   OH235379   0.572   5.691   3.095 -0.5742  0.2817 -0.5389
 4655TIP3    H135380   0.555   5.785   3.088 -1.6402  0.0820 -0.6653
 4655TIP3    H235381   0.581   5.675   3.189  2.3423  0.9699 -0.6471
 4656TIP3   OH235382   1.878   1.505  17.078 -0.2317  0.2800 -0.8539
 4656TIP3    H135383   1.898   1.412  17.062 -1.9608 -0.5183  1.3824
 4656TIP3    H235384   1.951   1.535  17.132 -0.8027 -0.4203  0.3431
 4657TIP3   OH235385   6.247   3.779   0.295  0.1240 -0.0145 -0.0336
 4657TIP3    H135386   6.255   3.862   0.343 -0.0260  1.1911 -2.0179
 4657TIP3    H235387   6.154   3.771   0.275  0.2815 -0.0758 -0.7908
 4658TIP3   OH235388   4.571   4.273   2.664  0.3303 -0.2952 -0.1049
 4658TIP3    H135389   4.638   4.226   2.615 -1.0532  0.4478 -2.8392
 4658TIP3    H235390   4.615   4.351   2.698  0.4404  1.4115 -3.8454
 4659TIP3   OH235391   5.353   5.344   5.752 -0.0771 -0.0813 -0.2001
 4659TIP3    H135392   5.399   5.349   5.836 -0.0488 -0.1466 -0.2122
 4659TIP3    H235393   5.396   5.408   5.696  0.6439 -0.8450 -0.5290
 4660TIP3   OH235394   0.882   5.493  13.476 -0.1234  0.0902  0.6020
 4660TIP3    H135395   0.861   5.585  13.486  0.3873  0.0062  2.6187
 4660TIP3    H235396   0.914   5.485  13.386 -2.2328  1.4546 -0.3158
 4661TIP3   OH235397   1.963   4.456  14.797  0.1020  0.2269  0.2678
 4661TIP3    H135398   1.961   4.367  14.833 -2.5319  0.7371  1.5415
 4661TIP3    H235399   2.056   4.476  14.788  0.7507 -2.3143  0.8287
 4662TIP3   OH235400   5.007   0.120  12.446 -0.0635 -0.2167 -0.1632
 4662TIP3    H135401   5.033   0.167  12.525  1.0839 -0.7046 -0.2316
 4662TIP3    H235402   4.923   0.158  12.422  0.0388  0.6111  0.7456
 4663TIP3   OH235403   3.970   5.706  16.270  0.4549 -0.2013  0.0744
 4663TIP3    H135404   4.019   5.695  16.189  0.1414 -1.5484  0.0557
 4663TIP3    H235405   4.014   5.778  16.315  2.2401 -1.1599 -0.0969
 4664TIP3   OH235406   3.091   6.114   1.845 -0.2778 -0.3212  0.3129
 4664TIP3    H135407   3.068   6.169   1.771  0.0429 -1.0847 -0.3612
 4664TIP3    H235408   3.126   6.034   1.806 -0.6971 -0.9898  1.2787
 4665TIP3   OH235409   6.495   1.822   0.332  0.3508 -0.1962  0.0118
 4665TIP3    H135410   6.511   1.909   0.295 -0.1522  1.0885  2.6716
 4665TIP3    H235411   6.460   1.771   0.259 -0.2712  2.1226 -1.3803
 4666TIP3   OH235412   1.154   2.217   2.315  0.4263  0.0007 -0.1570
 4666TIP3    H135413   1.195   2.160   2.250 -1.1553 -2.2765  0.7737
 4666TIP3    H235414   1.169   2.173   2.399 -1.4071  0.6112  0.5184
 4667TIP3   OH235415   5.344   3.621  13.336 -0.0263  0.0131  0.0851
 4667TIP3    H135416   5.361   3.698  13.391 -1.9498  1.1205 -0.8180
 4667TIP3    H235417   5.390   3.549  13.380  0.9409  1.4680  1.5048
 4668TIP3   OH235418   0.720   0.951  15.455  0.2733 -0.0479 -0.2809
 4668TIP3    H135419   0.746   1.040  15.431  1.2754  0.1961  1.6430
 4668TIP3    H235420   0.667   0.962  15.534 -2.7284 -0.8587 -2.1044
 4669TIP3   OH235421   1.913   4.409  13.433  0.6396 -0.1670  0.0666
 4669TIP3    H135422   1.838   4.351  13.443  0.3694  0.3440  1.0830
 4669TIP3    H235423   1.979   4.373  13.493  1.8931 -1.6812 -2.1383
 4670TIP3   OH235424   5.261   1.365  11.850  0.3112 -0.4841 -0.0023
 4670TIP3    H135425   5.306   1.412  11.921  0.5048 -0.7633  0.0635
 4670TIP3    H235426   5.332   1.327  11.798  0.1526 -0.7441 -0.0273
 4671TIP3   OH235427   1.464   1.431  13.601 -0.9051  0.0165  0.0477
 4671TIP3    H135428   1.418   1.449  13.519 -0.8022  0.0283 -0.0082
 4671TIP3    H235429   1.428   1.348  13.631 -0.9600  0.0238  0.0012
 4672TIP3   OH235430   1.524   4.952  12.549 -0.1816 -0.0670  0.0718
 4672TIP3    H135431   1.592   5.000  12.500 -1.8030  0.3078 -1.8684
 4672TIP3    H235432   1.552   4.861  12.546 -0.5241 -0.1182 -2.0224
 4673TIP3   OH235433   1.083   0.374  10.601  0.3176 -0.6540  0.0218
 4673TIP3    H135434   0.988   0.364  10.603  0.1549  0.3188 -1.8208
 4673TIP3    H235435   1.097   0.468  10.591  1.4844 -0.7654  0.5790
 4674TIP3   OH235436   4.697   3.537  14.493 -0.9344 -0.0800 -0.1421
 4674TIP3    H135437   4.661   3.615  14.450 -0.2032 -0.1908 -0.9571
 4674TIP3    H235438   4.623   3.476  14.496 -1.1549  0.1533 -0.6921
 4675TIP3   OH235439   3.848   0.348  16.622 -0.0341 -0.9356 -0.2481
 4675TIP3    H135440   3.762   0.336  16.662 -0.3946 -0.2441 -0.7859
 4675TIP3    H235441   3.907   0.292  16.672 -0.7279 -1.1099  0.3752
 4676TIP3   OH235442   2.204   6.787   0.208 -0.7457 -0.1410 -0.8693
 4676TIP3    H135443   2.125   6.734   0.217 -0.2799 -0.7018  0.0205
 4676TIP3    H235444   2.275   6.729   0.237 -0.0730  0.5386 -1.1330
 4677TIP3   OH235445   3.255   5.510   2.497 -0.8012  0.1675 -0.0725
 4677TIP3    H135446   3.338   5.523   2.544 -1.0796  3.6468 -0.3762
 4677TIP3    H235447   3.282   5.475   2.412  0.0918 -1.5524  0.8887
 4678TIP3   OH235448   6.674   0.030  14.244 -0.3009 -0.4539  0.1513
 4678TIP3    H135449   6.721  -0.040  14.289  3.0694  0.9569 -0.9880
 4678TIP3    H235450   6.699   0.020  14.152 -0.0033  2.0345 -0.0717
 4679TIP3   OH235451   0.231   0.477   0.047 -0.0664 -0.1634 -0.0342
 4679TIP3    H135452   0.168   0.473  -0.024 -0.7682  0.0533  0.5791
 4679TIP3    H235453   0.190   0.532   0.114  0.4357 -0.6665  0.6955
 4680TIP3   OH235454   4.903   1.346  11.023  0.1477 -0.2570 -0.4967
 4680TIP3    H135455   4.872   1.256  11.034 -0.0592  0.1917  3.3229
 4680TIP3    H235456   4.925   1.374  11.112  2.4395  2.6824 -1.9241
 4681TIP3   OH235457   3.143   2.130   6.668 -0.3896 -0.3583 -0.2954
 4681TIP3    H135458   3.050   2.110   6.675 -0.3533 -0.2183  0.6186
 4681TIP3    H235459   3.146   2.214   6.622 -0.7893  0.4361  1.0970
 4682TIP3   OH235460   6.494   1.516  11.791  0.1256 -0.1906  0.7885
 4682TIP3    H135461   6.429   1.560  11.735  0.4105 -0.2247  0.4264
 4682TIP3    H235462   6.448   1.499  11.873  0.1700  1.2938  1.1360
 4683TIP3   OH235463   0.232   1.070   2.526 -0.1433  0.1697  0.6865
 4683TIP3    H135464   0.304   1.099   2.469 -0.8111  0.6604  0.0804
 4683TIP3    H235465   0.176   1.018   2.468  0.5264 -1.5220  1.5311
 4684TIP3   OH235466   5.523   5.611   1.018  0.8788 -0.1046 -0.3409
 4684TIP3    H135467   5.584   5.547   1.055  0.2629 -0.8496 -0.6055
 4684TIP3    H235468   5.525   5.684   1.080 -0.4833 -1.5214  1.4025
 4685TIP3   OH235469   1.816   6.078  16.089 -0.2836  0.1212  0.5030
 4685TIP3    H135470   1.774   5.992  16.079 -0.3351  0.2215 -0.1445
 4685TIP3    H235471   1.770   6.118  16.163  0.9134 -1.1036  1.9502
 4686TIP3   OH235472   1.797   4.619   6.096  0.1209  0.6891 -0.3189
 4686TIP3    H135473   1.839   4.679   6.158  0.9210 -0.7706  0.5658
 4686TIP3    H235474   1.704   4.625   6.117  0.4437 -0.2855  1.4923
 4687TIP3   OH235475   5.350   2.356   1.142 -0.2776  0.8196 -0.0935
 4687TIP3    H135476   5.392   2.442   1.153  2.4833 -0.5620  0.4200
 4687TIP3    H235477   5.320   2.333   1.230  1.2283  0.1530  0.2608
 4688TIP3   OH235478   0.472   2.157  16.671 -0.1047 -0.2525  0.1972
 4688TIP3    H135479   0.401   2.181  16.731  0.2594  1.3141  0.0235
 4688TIP3    H235480   0.552   2.171  16.722  0.1091 -1.9174  0.3633
 4689TIP3   OH235481   0.994   3.753  15.368 -0.0069 -0.6759 -0.0879
 4689TIP3    H135482   0.940   3.717  15.298 -2.0536 -1.1014  1.6472
 4689TIP3    H235483   1.046   3.821  15.326 -1.4696 -0.6525 -1.9388
 4690TIP3   OH235484   1.224   0.564  12.760 -0.4487 -0.6860  0.2768
 4690TIP3    H135485   1.201   0.600  12.674 -2.8859 -0.8545  0.8173
 4690TIP3    H235486   1.320   0.562  12.760 -0.2501  3.4383 -0.7499
 4691TIP3   OH235487   2.003   6.468   3.105 -0.1279 -0.4408 -0.2765
 4691TIP3    H135488   2.058   6.402   3.064  1.9633 -0.3040  2.2135
 4691TIP3    H235489   2.021   6.548   3.056 -0.1814 -0.9774 -1.1858
 4692TIP3   OH235490   4.771   2.257  12.654  0.7742 -0.1180 -0.8205
 4692TIP3    H135491   4.733   2.169  12.652  0.7572 -0.1167 -0.6214
 4692TIP3    H235492   4.748   2.295  12.569 -2.2199  0.9361  0.3840
 4693TIP3   OH235493   0.076   0.063   1.855 -0.1037 -0.3915 -0.1236
 4693TIP3    H135494   0.108   0.153   1.848  0.7348 -0.6589  0.1588
 4693TIP3    H235495   0.010   0.055   1.786  0.2785  0.2454 -0.5653
 4694TIP3   OH235496   5.231   0.568   0.413 -0.2481  0.0607 -0.0844
 4694TIP3    H135497   5.227   0.493   0.354 -1.1659  1.3336 -1.6886
 4694TIP3    H235498   5.309   0.617   0.385  0.0173  0.0149  0.5703
 4695TIP3   OH235499   1.158   1.341  15.045  0.3163 -0.0794  1.0136
 4695TIP3    H135500   1.224   1.323  14.979 -0.1265 -1.3263  0.9095
 4695TIP3    H235501   1.121   1.426  15.020  0.6145 -0.2415  0.0418
 4696TIP3   OH235502   0.593   6.073   5.574  0.1305 -0.0872  0.4247
 4696TIP3    H135503   0.680   6.101   5.544  0.6929  1.4375  3.2933
 4696TIP3    H235504   0.598   6.077   5.669 -2.8661 -0.7221  0.6631
 4697TIP3   OH235505   6.751   3.050   6.373 -0.1517  1.0097  0.1082
 4697TIP3    H135506   6.684   3.039   6.440 -1.1894  2.3717 -0.6924
 4697TIP3    H235507   6.799   3.128   6.400 -0.3475  1.3579 -0.5421
 4698TIP3   OH235508   5.653   5.286   1.940  0.0180  0.0044 -0.8090
 4698TIP3    H135509   5.579   5.234   1.908 -0.1695 -1.2472  1.5449
 4698TIP3    H235510   5.616   5.373   1.956 -1.1130 -0.7638  0.8986
 4699TIP3   OH235511   1.116   0.254   5.504  0.5222  0.2855  0.2458
 4699TIP3    H135512   1.192   0.304   5.533 -0.0373  1.1462  0.2364
 4699TIP3    H235513   1.097   0.195   5.576  2.1448 -1.0380 -0.3680
 4700TIP3   OH235514   5.546   3.176   5.458 -0.1852  0.4615 -0.5555
 4700TIP3    H135515   5.599   3.176   5.379 -2.0490 -1.8584 -1.8936
 4700TIP3    H235516   5.606   3.149   5.528  0.6741 -1.0513 -1.8450
 4701TIP3   OH235517   1.201   0.950  16.072  0.3726 -0.3538 -0.0162
 4701TIP3    H135518   1.259   0.993  16.135 -0.1015 -0.5228  0.5358
 4701TIP3    H235519   1.128   0.918  16.125 -0.5675  0.4535 -0.8130
 4702TIP3   OH235520   5.354   0.857  12.842 -0.1456  0.0250  0.0848
 4702TIP3    H135521   5.350   0.952  12.849  1.7918  0.3021 -1.9515
 4702TIP3    H235522   5.351   0.840  12.747  1.3180 -1.8282  0.3352
 4703TIP3   OH235523   5.031   1.282  12.070  0.0646  0.8195  0.0439
 4703TIP3    H135524   5.060   1.224  12.140 -0.1603 -0.0967 -0.6084
 4703TIP3    H235525   5.112   1.314  12.030  0.2617 -2.1091 -2.0817
 4704TIP3   OH235526   5.333   0.912  13.429  0.9702 -0.8673  0.1844
 4704TIP3    H135527   5.337   0.978  13.360  0.7392 -2.2651 -1.2017
 4704TIP3    H235528   5.326   0.829  13.382  2.7808 -2.0180  1.8477
 4705TIP3   OH235529   6.320   4.399  12.791 -0.0997  0.4106 -0.4791
 4705TIP3    H135530   6.371   4.322  12.763  1.5576  1.6414 -0.8804
 4705TIP3    H235531   6.234   4.362  12.816  1.3498 -1.8511  1.4213
 4706TIP3   OH235532   3.761   1.752   0.999 -0.8719 -0.2091  0.1688
 4706TIP3    H135533   3.806   1.752   0.915 -2.4633  0.0642 -0.6848
 4706TIP3    H235534   3.711   1.834   1.000 -1.3239 -0.4859  1.1419
 4707TIP3   OH235535   4.638   6.514  12.083 -0.1350  0.2599  0.2494
 4707TIP3    H135536   4.683   6.556  12.157  1.3497 -1.3081  0.2753
 4707TIP3    H235537   4.561   6.473  12.122 -0.4872  1.2131  0.5651
 4708TIP3   OH235538   0.358   5.205   4.754 -0.2664 -0.4203 -0.5621
 4708TIP3    H135539   0.292   5.264   4.791 -1.6445 -0.6929 -2.4986
 4708TIP3    H235540   0.419   5.264   4.709 -1.7714 -0.4079 -2.6963
 4709TIP3   OH235541   3.124   3.255   6.699 -0.3241  0.5775  0.2490
 4709TIP3    H135542   3.150   3.231   6.609  3.8423 -0.7209  1.6980
 4709TIP3    H235543   3.121   3.172   6.746 -2.6036  1.2372  1.3497
 4710TIP3   OH235544   0.358   4.067   5.733 -0.5386 -0.0971 -0.1557
 4710TIP3    H135545   0.345   4.156   5.765  2.0021  0.2472 -0.0064
 4710TIP3    H235546   0.342   4.011   5.809  0.0454  0.3751  0.3163
 4711TIP3   OH235547   4.940   2.312   5.682  0.5939 -0.0894  0.6564
 4711TIP3    H135548   4.936   2.241   5.618 -1.6042  0.0053  0.6542
 4711TIP3    H235549   5.032   2.339   5.682  1.3461 -2.5670  0.2724
 4712TIP3   OH235550   3.098   2.183  15.176  0.0719 -0.6287 -0.1292
 4712TIP3    H135551   3.074   2.246  15.244  1.8664  1.1447 -1.0912
 4712TIP3    H235552   3.070   2.223  15.094  0.5164 -1.4314 -0.6843
 4713TIP3   OH235553   4.065   1.504  15.210 -0.0733  0.2282 -0.3298
 4713TIP3    H135554   3.989   1.469  15.256  1.1966  1.1133  2.5799
 4713TIP3    H235555   4.135   1.441  15.228  0.4160  0.5492 -1.1228
 4714TIP3   OH235556   2.087   1.382   1.124 -0.3379 -0.1635  0.0377
 4714TIP3    H135557   2.172   1.344   1.145 -1.1013 -0.8708  1.9437
 4714TIP3    H235558   2.051   1.326   1.055  0.0005 -0.8946  0.4577
 4715TIP3   OH235559   1.839   0.350  16.862 -0.2151  0.6987  0.5807
 4715TIP3    H135560   1.845   0.261  16.898  1.2896  0.7068  0.3826
 4715TIP3    H235561   1.910   0.355  16.799 -1.0451  1.6584 -0.2918
 4716TIP3   OH235562   0.061   0.641  17.107 -0.1055  0.1527 -0.4063
 4716TIP3    H135563   0.013   0.617  17.186  0.4398 -0.2481 -0.1953
 4716TIP3    H235564   0.095   0.729  17.126  2.6579 -1.1706  1.0613
 4717TIP3   OH235565   2.441   4.249  15.602  0.2230  0.1580  0.3247
 4717TIP3    H135566   2.455   4.287  15.515 -2.5736  1.2486  0.3007
 4717TIP3    H235567   2.523   4.264  15.648  1.0196  1.4421 -1.4686
 4718TIP3   OH235568   6.707   1.440  15.832 -0.7801  0.4955 -0.1479
 4718TIP3    H135569   6.630   1.405  15.788 -0.7513  1.1011 -0.6829
 4718TIP3    H235570   6.762   1.363  15.850 -0.9273  0.2147 -0.9022
 4719TIP3   OH235571   5.211   2.222  14.397 -0.0931 -0.2753  0.1483
 4719TIP3    H135572   5.173   2.136  14.381 -2.4824  0.4325  1.6973
 4719TIP3    H235573   5.161   2.281  14.341 -1.9522  0.7783  2.7759
 4720TIP3   OH235574   5.322   5.076  12.439 -0.5080  0.7640 -0.3916
 4720TIP3    H135575   5.323   4.986  12.470 -1.7054  0.6911 -0.5627
 4720TIP3    H235576   5.290   5.127  12.514  0.9506  1.1625 -0.0176
 4721TIP3   OH235577   4.364   3.515   2.132  0.4147 -0.1834  0.0011
 4721TIP3    H135578   4.404   3.592   2.172 -0.0851  0.1624 -0.1576
 4721TIP3    H235579   4.288   3.497   2.187  0.7253 -0.7743  0.2401
 4722TIP3   OH235580   4.956   0.789  12.865 -0.5823  0.5520 -0.6056
 4722TIP3    H135581   4.860   0.794  12.864 -0.6193  0.0066  0.0497
 4722TIP3    H235582   4.983   0.874  12.900 -0.8890  0.0570  0.8726
 4723TIP3   OH235583   0.664   0.230   4.004  0.6761  0.5241  0.3998
 4723TIP3    H135584   0.588   0.227   4.063  0.6945 -0.4223  0.3934
 4723TIP3    H235585   0.697   0.140   4.005  1.8842  0.9639  0.5176
 4724TIP3   OH235586   3.234   6.723   5.086 -0.5825 -0.1769 -0.0549
 4724TIP3    H135587   3.250   6.683   5.171  0.7709  0.0251 -0.2112
 4724TIP3    H235588   3.227   6.817   5.104 -0.6535 -0.1707 -0.1152
 4725TIP3   OH235589   3.700   1.293   0.042  0.9368  0.2487 -0.4590
 4725TIP3    H135590   3.727   1.342  -0.036  0.2954 -1.3085 -1.6894
 4725TIP3    H235591   3.780   1.281   0.093  1.4553  0.8054 -1.1404
 4726TIP3   OH235592   5.556   0.836  13.034 -0.1643 -0.2172  0.3974
 4726TIP3    H135593   5.481   0.838  12.974  0.2432 -0.4071 -0.1274
 4726TIP3    H235594   5.629   0.807  12.979  0.2742 -0.1099  0.9246
 4727TIP3   OH235595   3.513   6.202  14.229  0.4821 -0.3364 -0.4773
 4727TIP3    H135596   3.495   6.268  14.296 -2.9149 -1.0854 -0.5151
 4727TIP3    H235597   3.498   6.248  14.146  2.2415 -0.0750 -0.6679
 4728TIP3   OH235598   4.403   0.241   5.606 -0.6879  0.3661  0.7894
 4728TIP3    H135599   4.365   0.169   5.555  1.2218 -0.2904  0.2393
 4728TIP3    H235600   4.334   0.307   5.609 -0.5462  0.8645 -3.5519
 4729TIP3   OH235601   3.876   1.047   4.309  0.1013 -0.1998  0.8675
 4729TIP3    H135602   3.822   0.993   4.252  2.8602 -1.6402 -0.4698
 4729TIP3    H235603   3.878   0.998   4.392 -0.7771 -0.0192  1.0092
 4730TIP3   OH235604   1.806   2.217   1.445 -0.7803  0.1026  0.7773
 4730TIP3    H135605   1.791   2.125   1.425  0.7644 -0.1788  0.8790
 4730TIP3    H235606   1.765   2.264   1.373  1.4585 -0.7704 -1.1281
 4731TIP3   OH235607   4.614   3.069  11.507 -0.4140  0.3100  1.0538
 4731TIP3    H135608   4.673   3.017  11.561  0.9769  0.5591 -0.1830
 4731TIP3    H235609   4.618   3.157  11.544  0.0528  0.3415  0.9284
 4732TIP3   OH235610   0.219   0.106  13.385 -0.2069  0.2758  0.1485
 4732TIP3    H135611   0.192   0.198  13.387  0.0372  0.3405  0.4922
 4732TIP3    H235612   0.300   0.107  13.332  0.5008  0.4484  1.2127
 4733TIP3   OH235613   1.558   4.283  13.545  0.2954 -0.2161  0.3992
 4733TIP3    H135614   1.570   4.199  13.502  0.6002 -1.5132  2.9426
 4733TIP3    H235615   1.468   4.308  13.525  0.1623 -1.2206 -0.2566
 4734TIP3   OH235616   2.676   3.690   3.262  0.6234 -0.2908 -0.2255
 4734TIP3    H135617   2.676   3.775   3.220  0.7748 -0.6913 -1.0497
 4734TIP3    H235618   2.733   3.700   3.338  3.3704 -0.5620 -2.1810
 4735TIP3   OH235619   5.823   1.110   1.556  0.0183 -0.0591  0.5229
 4735TIP3    H135620   5.745   1.105   1.501 -0.1505 -0.0340  0.7582
 4735TIP3    H235621   5.896   1.089   1.497 -0.3210 -1.7727  0.6686
 4736TIP3   OH235622   5.916   2.105   3.635  0.7742 -0.1471 -0.0840
 4736TIP3    H135623   5.967   2.142   3.706  0.0081  1.1545 -0.1897
 4736TIP3    H235624   5.937   2.011   3.635  0.6035 -0.1869  1.9751
 4737TIP3   OH235625   2.854   5.216   1.815 -0.1239 -0.3311 -0.0838
 4737TIP3    H135626   2.867   5.123   1.797  0.8928 -0.3373  0.7089
 4737TIP3    H235627   2.832   5.221   1.908 -1.5763  0.0940 -0.4244
 4738TIP3   OH235628   2.094   5.192  13.331  0.1334  0.6261 -0.0552
 4738TIP3    H135629   2.062   5.205  13.242  0.6933 -0.0352 -0.3581
 4738TIP3    H235630   2.172   5.137  13.321  0.5270  1.0200  0.7923
 4739TIP3   OH235631   6.403   6.241   4.885  0.4885 -0.3244  0.0702
 4739TIP3    H135632   6.479   6.289   4.853 -0.5895  1.2746 -0.1621
 4739TIP3    H235633   6.380   6.284   4.967  0.1093 -1.0998  0.3804
 4740TIP3   OH235634   0.728   0.929  13.321 -0.1107  0.3508  0.2971
 4740TIP3    H135635   0.741   1.021  13.345 -1.3990  0.5427  0.3074
 4740TIP3    H235636   0.779   0.918  13.241 -0.1668  1.1448  0.1460
 4741TIP3   OH235637   4.933   2.813   5.769 -0.3765  0.4107  1.0014
 4741TIP3    H135638   4.987   2.829   5.846  1.7340  1.0838 -0.5846
 4741TIP3    H235639   4.915   2.900   5.734 -0.7462  0.0742  0.3439
 4742TIP3   OH235640   4.923   0.192  14.702 -0.2203 -0.3179  0.0767
 4742TIP3    H135641   4.863   0.192  14.627 -0.4246 -0.3005  0.2373
 4742TIP3    H235642   4.982   0.119  14.685  1.1846  1.1007 -1.2320
 4743TIP3   OH235643   6.639   5.785  11.789 -0.2582 -0.3771  0.2811
 4743TIP3    H135644   6.634   5.771  11.694 -1.4572 -0.2236  0.3194
 4743TIP3    H235645   6.555   5.755  11.822 -1.0731  2.5374  0.9378
 4744TIP3   OH235646   2.176   4.781  13.189 -0.0678  0.2550  0.2511
 4744TIP3    H135647   2.172   4.769  13.094  0.8560 -0.5760  0.3139
 4744TIP3    H235648   2.094   4.743  13.221  1.0160 -2.3984  0.0639
 4745TIP3   OH235649   0.351   5.829  10.668  0.0842 -0.5211  0.2554
 4745TIP3    H135650   0.279   5.866  10.719  0.1779  0.5989 -0.4072
 4745TIP3    H235651   0.308   5.771  10.605 -0.2826  0.4653 -0.4139
 4746TIP3   OH235652   4.642   3.861   5.864 -0.0602 -0.3850 -0.1041
 4746TIP3    H135653   4.714   3.831   5.808 -0.3494 -1.4733  0.0849
 4746TIP3    H235654   4.680   3.866   5.951  0.1162  0.2802 -0.2194
 4747TIP3   OH235655   0.889   3.135  11.314  0.1049 -0.2262 -0.1893
 4747TIP3    H135656   0.956   3.148  11.380  1.4994 -0.4307 -1.5409
 4747TIP3    H235657   0.819   3.196  11.339  1.3270  0.9041  0.5168
 4748TIP3   OH235658   3.658   5.268  11.069  0.1120 -0.0882  0.6035
 4748TIP3    H135659   3.710   5.234  11.142  1.1057  1.4149  0.6115
 4748TIP3    H235660   3.606   5.338  11.107 -2.3558 -1.9196  0.7070
 4749TIP3   OH235661   6.339   1.655  11.607  0.2113 -0.0955  0.3804
 4749TIP3    H135662   6.403   1.633  11.540  0.8522  0.8535  0.6749
 4749TIP3    H235663   6.288   1.726  11.568  0.9191  0.8121  1.0867
 4750TIP3   OH235664   0.622   4.728   5.774 -0.1450  0.0958  0.1452
 4750TIP3    H135665   0.631   4.654   5.713 -0.4070 -0.1229  0.3662
 4750TIP3    H235666   0.653   4.694   5.858 -1.2112 -0.0851  0.4770
 4751TIP3   OH235667   3.208   4.905  14.530 -0.5153  0.2866  0.6313
 4751TIP3    H135668   3.128   4.855  14.541 -1.0593  1.2752  1.1779
 4751TIP3    H235669   3.266   4.846  14.481 -1.6125 -0.3719  0.1083
 4752TIP3   OH235670   3.151   3.853  14.476 -0.7889  0.5901  0.0303
 4752TIP3    H135671   3.127   3.938  14.438  0.6541  0.9041 -0.2000
 4752TIP3    H235672   3.108   3.789  14.419 -2.5104  1.1761  0.6475
 4753TIP3   OH235673   3.979   0.096   0.001 -0.4584  0.7023  0.8644
 4753TIP3    H135674   3.990   0.153   0.077  0.8881  0.4588  0.8741
 4753TIP3    H235675   4.003   0.151  -0.074  1.4667  0.0138  0.9268
 4754TIP3   OH235676   5.557   2.186   3.632  0.4136  0.3988  0.1445
 4754TIP3    H135677   5.575   2.242   3.556  0.7535  0.5654  0.3451
 4754TIP3    H235678   5.549   2.248   3.705 -0.5085  0.2899  0.1450
 4755TIP3   OH235679   0.770   4.765  12.000  0.3565  0.1230 -0.3742
 4755TIP3    H135680   0.723   4.771  11.917 -0.4559  0.5186  0.0940
 4755TIP3    H235681   0.801   4.675  12.004 -3.0216 -1.0886  0.6671
 4756TIP3   OH235682   3.545   4.768   1.057 -0.0655  0.3655  0.0842
 4756TIP3    H135683   3.536   4.710   1.133  1.6459 -0.3635 -0.2315
 4756TIP3    H235684   3.586   4.713   0.990  0.4247  1.6047 -0.6415
 4757TIP3   OH235685   3.001   5.892   1.091  0.7326 -0.3087  0.5366
 4757TIP3    H135686   2.954   5.926   1.167  0.7201  2.5571 -0.6918
 4757TIP3    H235687   3.009   5.967   1.032  2.0783 -2.0965 -1.6395
 4758TIP3   OH235688   2.242   2.803   2.218  0.0747 -0.0286  0.2952
 4758TIP3    H135689   2.299   2.878   2.205  2.0894 -1.5542  0.0928
 4758TIP3    H235690   2.176   2.834   2.280  0.7675  1.9337  0.0944
 4759TIP3   OH235691   6.645   1.962  16.821  0.7413  0.0386 -0.1448
 4759TIP3    H135692   6.644   2.042  16.770 -0.5668 -0.0903 -0.3204
 4759TIP3    H235693   6.655   1.892  16.756  2.8145  0.1002  0.0786
 4760TIP3   OH235694   5.057   2.542  14.559 -0.0348 -0.1377 -0.4411
 4760TIP3    H135695   5.147   2.565  14.578 -0.5508  1.1143  0.5665
 4760TIP3    H235696   5.056   2.446  14.557  1.7248 -0.1347 -2.6352
 4761TIP3   OH235697   5.586   1.876   0.573 -0.0465 -0.1241 -0.3507
 4761TIP3    H135698   5.547   1.946   0.625 -1.5512 -2.3986  1.7391
 4761TIP3    H235699   5.674   1.864   0.611 -0.5824 -0.7652  0.7242
 4762TIP3   OH235700   1.687   0.230   2.523 -0.1121  0.2262  0.3372
 4762TIP3    H135701   1.776   0.259   2.541  0.5331 -0.2066 -1.9321
 4762TIP3    H235702   1.698   0.155   2.464 -1.9770  0.5891 -0.5152
 4763TIP3   OH235703   0.318   5.958  12.678 -0.1832 -0.1329  0.2468
 4763TIP3    H135704   0.312   5.908  12.759 -0.2508 -2.2869 -1.0375
 4763TIP3    H235705   0.335   5.892  12.610  3.8099  1.9895 -0.9978
 4764TIP3   OH235706   0.667   1.341   3.004 -0.7428 -0.3622 -0.1658
 4764TIP3    H135707   0.615   1.413   3.040  0.5575  0.6016 -0.1557
 4764TIP3    H235708   0.608   1.296   2.944 -2.3808 -0.8709  1.7674
 4765TIP3   OH235709   2.731   4.953  16.676 -0.3038 -0.3686 -0.0524
 4765TIP3    H135710   2.819   4.938  16.640 -0.1779  0.9768 -0.3315
 4765TIP3    H235711   2.728   4.899  16.755  0.5220 -0.9536 -0.4094
 4766TIP3   OH235712   2.312   1.684  11.916  0.1010 -0.0390 -0.3780
 4766TIP3    H135713   2.371   1.732  11.857 -0.2934  0.6111 -0.2438
 4766TIP3    H235714   2.350   1.596  11.920  1.6100  0.6366  0.4598
 4767TIP3   OH235715   4.183   0.589   4.533 -0.3428  0.1435  0.2280
 4767TIP3    H135716   4.153   0.581   4.443 -1.8682  1.3981  0.5932
 4767TIP3    H235717   4.154   0.508   4.575 -0.1202 -0.1949 -0.2641
 4768TIP3   OH235718   4.735   6.438   4.613 -0.6148 -0.5186 -0.1341
 4768TIP3    H135719   4.679   6.401   4.546  1.6342 -3.3442 -0.5841
 4768TIP3    H235720   4.693   6.414   4.696 -2.7440  1.9107 -0.4585
 4769TIP3   OH235721   4.503   5.880  11.935 -0.1138 -0.1707  0.5183
 4769TIP3    H135722   4.451   5.862  11.857 -0.6184 -2.1130  1.2608
 4769TIP3    H235723   4.594   5.872  11.906 -0.2791  0.1821 -0.0987
 4770TIP3   OH235724   3.579   3.281   5.482 -0.3041 -0.0255  0.2438
 4770TIP3    H135725   3.608   3.303   5.570 -0.7793  0.7975  0.1910
 4770TIP3    H235726   3.648   3.223   5.448 -0.5376 -1.0408  1.4557
 4771TIP3   OH235727   3.463   4.305   0.231  0.0328 -0.4405 -0.1247
 4771TIP3    H135728   3.532   4.310   0.297 -1.6338 -0.0431  1.6110
 4771TIP3    H235729   3.393   4.255   0.272 -0.3665 -1.6976 -2.2243
 4772TIP3   OH235730   5.249   2.015  13.209  0.3180  0.1097  0.5277
 4772TIP3    H135731   5.289   1.965  13.280 -0.9011  0.2868  1.3692
 4772TIP3    H235732   5.224   1.949  13.144 -2.7303 -0.6541  2.3304
 4773TIP3   OH235733   1.563   4.921  11.631 -0.5670  0.6594  0.0048
 4773TIP3    H135734   1.608   4.997  11.667 -2.1946  2.2407 -1.1971
 4773TIP3    H235735   1.486   4.910  11.687 -0.7239  0.3396 -0.2732
 4774TIP3   OH235736   5.635   4.466  15.620 -0.2425  0.8654 -0.0111
 4774TIP3    H135737   5.598   4.442  15.536  0.2656  1.4413 -0.4058
 4774TIP3    H235738   5.727   4.487  15.601  0.6175 -1.6450  1.1195
 4775TIP3   OH235739   6.643   2.962  13.396  0.0339 -0.6901 -0.5564
 4775TIP3    H135740   6.722   2.924  13.433  0.5209  1.0403  0.2215
 4775TIP3    H235741   6.647   2.940  13.303  1.6066 -0.3365 -0.5850
 4776TIP3   OH235742   1.015   1.529  13.380 -0.3013 -0.1241  0.6447
 4776TIP3    H135743   1.053   1.449  13.344  1.0848  1.6931 -2.1123
 4776TIP3    H235744   0.929   1.536  13.339 -0.5423 -0.3439  1.1086
 4777TIP3   OH235745   5.697   5.714  15.623 -0.2999 -0.2447  0.1825
 4777TIP3    H135746   5.713   5.791  15.678 -0.4627 -0.2594  0.2517
 4777TIP3    H235747   5.634   5.661  15.672 -1.0246  0.1027 -0.3523
 4778TIP3   OH235748   1.922   4.909   1.095  0.2525  0.8492 -0.1224
 4778TIP3    H135749   1.932   4.829   1.148 -0.0888  0.8854  0.0004
 4778TIP3    H235750   1.923   4.878   1.005  0.8088  0.7829 -0.0938
 4779TIP3   OH235751   0.862   2.407  14.245 -0.0880  0.4488  0.2264
 4779TIP3    H135752   0.773   2.380  14.268 -0.2875 -0.1345 -1.2099
 4779TIP3    H235753   0.907   2.416  14.330 -0.5120 -2.6885  0.8298
 4780TIP3   OH235754   2.760   2.799  14.850  0.2863 -0.3987  0.2547
 4780TIP3    H135755   2.796   2.871  14.901  0.3781 -0.2867  0.0321
 4780TIP3    H235756   2.685   2.836  14.804 -1.1755 -1.0601  2.0475
 4781TIP3   OH235757   4.301   2.293   0.080  0.4507  0.0744 -0.2559
 4781TIP3    H135758   4.233   2.361   0.080 -0.7763 -1.1055  0.5066
 4781TIP3    H235759   4.326   2.284  -0.011  0.4998  1.4280 -0.3860
 4782TIP3   OH235760   6.441   4.404  11.702  0.0205  0.4914  0.6350
 4782TIP3    H135761   6.497   4.478  11.679 -3.3791  2.9736  0.0079
 4782TIP3    H235762   6.395   4.432  11.781 -0.1396 -1.6353  1.3289
 4783TIP3   OH235763   5.458   5.408  12.245  0.1041 -0.6232  0.3935
 4783TIP3    H135764   5.431   5.417  12.336 -0.3919  0.1663  0.1754
 4783TIP3    H235765   5.511   5.487  12.228  2.9778 -2.3415  0.9488
 4784TIP3   OH235766   4.426   1.390   5.751  0.3491  0.4415 -0.3100
 4784TIP3    H135767   4.473   1.403   5.833  1.0149  0.2164 -0.6465
 4784TIP3    H235768   4.409   1.479   5.719 -0.4459  0.5404  0.3594
 4785TIP3   OH235769   0.252   5.792  12.865  0.2434 -0.0406 -0.2200
 4785TIP3    H135770   0.220   5.704  12.847 -2.6684  0.9951 -0.4406
 4785TIP3    H235771   0.188   5.828  12.927  1.1733  2.0477 -0.4341
 4786TIP3   OH235772   0.426   1.827  14.905 -0.1898  0.4054  0.4374
 4786TIP3    H135773   0.408   1.750  14.851 -0.7897  1.2338 -0.5381
 4786TIP3    H235774   0.352   1.886  14.890  0.5450  1.4235  0.7448
 4787TIP3   OH235775   5.431   6.573  16.074 -0.2304  0.5125 -0.3525
 4787TIP3    H135776   5.454   6.486  16.040  1.3054  0.3315  1.1073
 4787TIP3    H235777   5.335   6.572  16.076 -0.2533 -0.9423 -0.8715
 4788TIP3   OH235778   1.832   4.181  14.599  0.6068 -0.5428  0.2039
 4788TIP3    H135779   1.895   4.200  14.668 -0.4382  0.3012  0.9341
 4788TIP3    H235780   1.838   4.086  14.587  2.3813 -0.4044 -0.1085
 4789TIP3   OH235781   3.004   6.143   5.111 -0.6283  0.1504  0.5057
 4789TIP3    H135782   2.927   6.111   5.065 -0.5323  0.7826 -0.0911
 4789TIP3    H235783   2.973   6.217   5.162 -0.0217  1.6602 -1.2763
 4790TIP3   OH235784   5.301   4.399  12.033 -0.1376  0.2419 -0.2159
 4790TIP3    H135785   5.297   4.321  11.978 -2.1565 -0.7830  1.3181
 4790TIP3    H235786   5.210   4.430  12.037  0.3627  1.6437  0.6675
 4791TIP3   OH235787   2.650   1.358   3.221  0.4741 -0.4403 -0.5650
 4791TIP3    H135788   2.675   1.388   3.134 -1.0445  1.1680 -0.4737
 4791TIP3    H235789   2.671   1.432   3.279 -1.4428 -0.2842 -0.0364
 4792TIP3   OH235790   6.500   3.055  16.455  1.1030 -0.9358  0.1588
 4792TIP3    H135791   6.548   3.037  16.374  0.2314 -1.1430 -0.3074
 4792TIP3    H235792   6.463   2.970  16.479  0.8668 -0.7448  0.4597
 4793TIP3   OH235793   0.045   5.781  11.320 -0.0142 -0.1118 -0.2850
 4793TIP3    H135794   0.117   5.719  11.312  1.3692  0.8726  3.6670
 4793TIP3    H235795   0.084   5.866  11.304 -0.6477  0.2701  0.1778
 4794TIP3   OH235796   3.781   5.452   5.571  0.6124 -0.3537 -0.2581
 4794TIP3    H135797   3.745   5.473   5.657  0.8382 -0.3539 -0.1612
 4794TIP3    H235798   3.705   5.444   5.514  0.3876 -1.2858  0.1470
 4795TIP3   OH235799   1.219   3.694   1.180  0.0614  0.3823 -0.1815
 4795TIP3    H135800   1.238   3.703   1.273 -1.5017 -1.9496  0.3756
 4795TIP3    H235801   1.301   3.661   1.142  0.2289 -0.0978  0.5977
 4796TIP3   OH235802   2.040   3.672   4.819 -0.1268  0.0728 -0.0307
 4796TIP3    H135803   2.044   3.577   4.821 -0.5392  0.0493 -0.1833
 4796TIP3    H235804   2.048   3.695   4.727 -1.0743  0.1282 -0.1085
 4797TIP3   OH235805   2.863   6.611  14.825  0.3160  0.2584  0.0966
 4797TIP3    H135806   2.809   6.574  14.894  1.5070 -0.8311  0.4625
 4797TIP3    H235807   2.945   6.636  14.869  0.7592  0.3439 -0.7551
 4798TIP3   OH235808   2.644   2.348  11.720  0.0066  0.0273 -0.0528
 4798TIP3    H135809   2.578   2.293  11.762 -0.4185  0.3084 -0.3504
 4798TIP3    H235810   2.622   2.437  11.749  0.0112  0.1671 -0.4814
 4799TIP3   OH235811   3.371   3.812  14.134 -0.5453 -0.0732  0.0909
 4799TIP3    H135812   3.310   3.883  14.113  1.3502  1.1372 -1.5107
 4799TIP3    H235813   3.449   3.856  14.169 -0.4379 -1.5796  1.8446
 4800TIP3   OH235814   3.747   3.269   4.693 -0.2734 -0.2961  0.0987
 4800TIP3    H135815   3.819   3.295   4.635 -0.8445  3.2936  0.8479
 4800TIP3    H235816   3.791   3.236   4.771  0.6177  1.4975  0.3947
 4801TIP3   OH235817   4.049   6.401   0.409 -0.1993 -0.3083 -0.9757
 4801TIP3    H135818   3.954   6.393   0.406 -0.4465  1.5278  1.1545
 4801TIP3    H235819   4.066   6.495   0.408  1.7056 -0.6088 -3.2762
 4802TIP3   OH235820   5.676   3.029  15.369  0.2134 -0.5009  0.2726
 4802TIP3    H135821   5.765   3.032  15.405 -0.0658  0.0991  0.9067
 4802TIP3    H235822   5.687   2.990  15.282  1.3037  0.9334 -0.2555
 4803TIP3   OH235823   1.177   0.686   5.313  0.0664  0.1079 -0.2141
 4803TIP3    H135824   1.107   0.649   5.368  0.8538 -0.1403  0.6311
 4803TIP3    H235825   1.231   0.736   5.374 -0.0175  1.2323 -1.0720
 4804TIP3   OH235826   6.276   2.728  16.100  0.0016 -0.5759  0.1106
 4804TIP3    H135827   6.200   2.701  16.049 -0.3822 -1.5062  1.1570
 4804TIP3    H235828   6.327   2.648  16.112  1.1441  0.0350 -0.5660
 4805TIP3   OH235829   2.571   1.159   4.972 -0.4031 -0.2486 -0.5039
 4805TIP3    H135830   2.549   1.219   5.044  0.1015 -1.1854  0.4476
 4805TIP3    H235831   2.487   1.135   4.934 -0.6627  0.4044 -0.3544
 4806TIP3   OH235832   0.833   0.831   3.394  0.1925 -0.1217  0.1488
 4806TIP3    H135833   0.833   0.863   3.484 -4.0137  0.7909 -0.0650
 4806TIP3    H235834   0.753   0.778   3.388  0.0533  0.3777 -3.1900
 4807TIP3   OH235835   5.764   4.074   5.744 -0.0775  0.0671 -0.0327
 4807TIP3    H135836   5.852   4.074   5.708  0.1407 -0.5614  0.4945
 4807TIP3    H235837   5.710   4.117   5.677  0.4445 -0.4773 -0.8045
 4808TIP3   OH235838   0.504   0.924   2.538  0.2204  0.0606 -0.3221
 4808TIP3    H135839   0.587   0.955   2.573  0.5450 -0.0365 -1.0019
 4808TIP3    H235840   0.480   0.990   2.472 -1.0299  0.9357  0.9726
 4809TIP3   OH235841   1.248   4.364  14.230  0.7503  0.3422 -0.3960
 4809TIP3    H135842   1.335   4.333  14.205 -0.1231 -0.5016 -2.5661
 4809TIP3    H235843   1.244   4.454  14.198  0.4020 -0.0278 -1.4151
 4810TIP3   OH235844   0.049   2.657   1.249 -0.4932  0.4666 -0.4573
 4810TIP3    H135845   0.033   2.578   1.301 -0.4074  0.0263 -1.1008
 4810TIP3    H235846   0.071   2.724   1.314  0.3743 -0.2731  0.0225
 4811TIP3   OH235847   4.994   6.068  16.562  0.3763 -0.2899  0.1397
 4811TIP3    H135848   4.948   6.149  16.536 -1.1674 -1.2960 -0.3480
 4811TIP3    H235849   4.929   6.019  16.612  1.2379 -1.3165  0.2565
 4812TIP3   OH235850   6.365   1.142   3.589  0.3182 -0.2375  0.0047
 4812TIP3    H135851   6.451   1.105   3.571  0.8773  0.8155  0.4416
 4812TIP3    H235852   6.339   1.102   3.673 -0.3943 -1.8717 -0.9784
 4813TIP3   OH235853   3.702   3.472   0.400 -0.1642  0.5090  0.1349
 4813TIP3    H135854   3.653   3.554   0.409 -1.3582 -0.0088 -1.5626
 4813TIP3    H235855   3.775   3.494   0.342 -0.6783  0.3080 -0.6010
 4814TIP3   OH235856   1.655   4.255   3.392  0.6603 -0.0592  0.5395
 4814TIP3    H135857   1.625   4.246   3.301 -0.4446 -1.4692  1.0147
 4814TIP3    H235858   1.652   4.349   3.410  0.9232  0.2364 -0.8795
 4815TIP3   OH235859   3.663   6.114  13.387  0.2752 -1.1880  0.0429
 4815TIP3    H135860   3.688   6.028  13.351  1.6200 -1.4116  1.4716
 4815TIP3    H235861   3.568   6.112  13.388  0.2535 -1.9769 -1.6033
 4816TIP3   OH235862   4.111   0.018   3.491 -0.4097  0.2031  0.4174
 4816TIP3    H135863   4.163   0.005   3.570 -3.2497  0.3551  2.3774
 4816TIP3    H235864   4.156   0.088   3.444  0.7176  0.8596  2.4200
 4817TIP3   OH235865   0.407   2.474  11.602  0.2423 -0.9152 -0.6135
 4817TIP3    H135866   0.403   2.569  11.612 -0.0420 -1.1111  1.3877
 4817TIP3    H235867   0.411   2.460  11.507 -2.1899  1.0155 -1.0757
 4818TIP3   OH235868   1.600   3.323   0.002  0.2626  0.4600  0.3117
 4818TIP3    H135869   1.645   3.240  -0.012  0.6603  0.7045  0.1208
 4818TIP3    H235870   1.612   3.342   0.095  0.5359  0.5143  0.2656
 4819TIP3   OH235871   0.175   6.350   1.691 -0.1922 -0.3256  0.1899
 4819TIP3    H135872   0.237   6.321   1.758 -0.5346  2.8621  2.0210
 4819TIP3    H235873   0.224   6.415   1.640 -1.7666  1.8191  1.3174
 4820TIP3   OH235874   3.291   4.045   3.841  0.0286 -0.0061  0.0753
 4820TIP3    H135875   3.233   4.083   3.908 -0.0916 -3.4893  2.0838
 4820TIP3    H235876   3.377   4.081   3.861 -0.4230  0.7156  0.7442
 4821TIP3   OH235877   1.222   1.598   2.025  0.7827 -0.0524 -0.2727
 4821TIP3    H135878   1.239   1.685   1.988  0.9838 -0.3793 -0.9504
 4821TIP3    H235879   1.218   1.540   1.949 -1.7005 -0.2616 -0.0383
 4822TIP3   OH235880   4.431   5.744  13.472 -0.6623  0.4740  0.1488
 4822TIP3    H135881   4.494   5.673  13.462 -1.5328 -0.3628  0.5026
 4822TIP3    H235882   4.483   5.824  13.463  0.4050 -0.2011  0.2357
 4823TIP3   OH235883   6.176   4.226  14.162 -0.1839  0.3371 -0.4544
 4823TIP3    H135884   6.157   4.239  14.069 -1.0355 -0.0168 -0.3356
 4823TIP3    H235885   6.174   4.315  14.199 -2.8174  0.2400 -0.2355
 4824TIP3   OH235886   4.331   4.212   4.846  0.4043  0.2476  0.4053
 4824TIP3    H135887   4.248   4.200   4.800  0.1951 -1.0661  1.1252
 4824TIP3    H235888   4.361   4.124   4.867  0.4820  0.7937  2.8149
 4825TIP3   OH235889   6.397   6.118  17.012  0.2051  0.6776 -0.4645
 4825TIP3    H135890   6.491   6.134  17.021  0.1254  0.5780  0.7525
 4825TIP3    H235891   6.387   6.074  16.928  1.3188  0.1260 -0.3180
 4826TIP3   OH235892   4.172   1.213   1.661  0.3376  0.1675 -0.2988
 4826TIP3    H135893   4.244   1.274   1.675 -0.0557  0.5085  0.2586
 4826TIP3    H235894   4.194   1.168   1.579  0.8142  0.7829 -0.5122
 4827TIP3   OH235895   4.729   4.216   0.049 -0.6170 -0.3888  0.3695
 4827TIP3    H135896   4.683   4.202   0.132 -1.0900 -0.3411  0.1146
 4827TIP3    H235897   4.760   4.129   0.025  2.1591  0.0376  2.1224
 4828TIP3   OH235898   5.824   6.701  11.270  0.1771  0.3925  0.2518
 4828TIP3    H135899   5.755   6.748  11.223  0.4124  0.7017  0.2134
 4828TIP3    H235900   5.851   6.761  11.339 -0.9333 -0.4918  1.4854
 4829TIP3   OH235901   6.484   5.578  10.961  0.3724  0.2277 -0.2131
 4829TIP3    H135902   6.391   5.587  10.942  0.3048  0.8098  0.3960
 4829TIP3    H235903   6.520   5.532  10.884  0.0411  2.1750 -1.5838
 4830TIP3   OH235904   5.165   1.847   2.446 -0.0181 -0.3013  0.2915
 4830TIP3    H135905   5.213   1.867   2.526  0.0562 -1.0692  0.4416
 4830TIP3    H235906   5.073   1.860   2.470  0.0624  0.4429  0.2141
 4831TIP3   OH235907   6.676   4.084   6.323  0.3142 -0.3171 -0.3161
 4831TIP3    H135908   6.769   4.064   6.310  0.2302 -0.4907 -0.6440
 4831TIP3    H235909   6.676   4.159   6.382  0.7006  0.9720 -1.9301
 4832TIP3   OH235910   6.633   5.496  14.817  0.6311  0.4081  0.0443
 4832TIP3    H135911   6.574   5.425  14.792 -2.5342  2.6777  0.6737
 4832TIP3    H235912   6.654   5.540  14.735 -0.8136  1.2360  0.1051
 4833TIP3   OH235913   6.541   3.058  13.913 -0.2478  0.4000  0.1361
 4833TIP3    H135914   6.569   3.043  14.003 -2.0824 -1.3737  0.4252
 4833TIP3    H235915   6.611   3.113  13.876  1.8252 -0.9819  1.8624
 4834TIP3   OH235916   5.622   5.411   4.130 -0.3068  0.0849 -0.4533
 4834TIP3    H135917   5.714   5.420   4.103 -0.6848  0.4772 -1.6275
 4834TIP3    H235918   5.578   5.371   4.055 -1.2345  0.5229 -0.1514
 4835TIP3   OH235919   4.990   1.561   3.122  0.7460  0.7893 -0.1860
 4835TIP3    H135920   5.073   1.584   3.164  1.1452  2.2565 -1.7046
 4835TIP3    H235921   4.979   1.626   3.053 -1.3163  0.1696 -0.4961
 4836TIP3   OH235922   6.387   2.408   1.180  0.2779 -0.1212  0.4605
 4836TIP3    H135923   6.359   2.484   1.231 -0.0737 -0.7867  1.2626
 4836TIP3    H235924   6.305   2.370   1.147  0.4077 -0.5435  0.6249
 4837TIP3   OH235925   4.938   5.249  13.065  0.5843  0.1956  0.1058
 4837TIP3    H135926   4.972   5.293  12.987 -1.1632  0.2296 -0.6505
 4837TIP3    H235927   4.886   5.316  13.110  1.1034  0.0052  1.0104
 4838TIP3   OH235928   5.554   1.906   2.238  0.5070 -0.3358 -0.1714
 4838TIP3    H135929   5.598   1.868   2.162  0.0792 -0.3325 -0.4224
 4838TIP3    H235930   5.531   1.831   2.292 -1.0491 -0.5217 -1.0473
 4839TIP3   OH235931   6.576   3.738  13.279  0.1893  0.2386  0.1910
 4839TIP3    H135932   6.496   3.779  13.313 -0.7092 -1.7616  0.5678
 4839TIP3    H235933   6.606   3.797  13.210 -1.1509  1.4350  0.6105
 4840TIP3   OH235934   2.628   0.378   2.374 -0.2175  0.3469 -0.3687
 4840TIP3    H135935   2.577   0.459   2.366 -0.4564  0.0749 -1.6780
 4840TIP3    H235936   2.577   0.323   2.434 -0.4169  0.8726 -0.0512
 4841TIP3   OH235937   0.866   5.086   2.154 -0.0215 -0.5177 -0.3798
 4841TIP3    H135938   0.791   5.136   2.120  0.4009  0.4347  0.0565
 4841TIP3    H235939   0.942   5.143   2.137  0.5425 -1.2527 -0.3587
 4842TIP3   OH235940   3.866   0.809  11.241  0.5539  0.2076 -0.2628
 4842TIP3    H135941   3.858   0.765  11.325 -1.8802 -0.7754 -0.9781
 4842TIP3    H235942   3.856   0.739  11.176 -1.0437  1.4519 -1.3926
 4843TIP3   OH235943   5.867   1.061   0.271  0.2941  0.2241 -0.0538
 4843TIP3    H135944   5.779   1.055   0.235  0.3915  0.3380 -0.3144
 4843TIP3    H235945   5.855   1.067   0.366  0.0504 -0.5250 -0.0303
 4844TIP3   OH235946   3.728   1.735  16.351  0.0956  0.3084  0.3429
 4844TIP3    H135947   3.645   1.768  16.386 -0.7444 -2.5114  1.1567
 4844TIP3    H235948   3.736   1.774  16.265 -0.5353  3.0509  1.4775
 4845TIP3   OH235949   2.478   5.003  15.535  0.2068  0.4564  0.0638
 4845TIP3    H135950   2.507   5.079  15.586 -2.2481 -0.1785  2.5582
 4845TIP3    H235951   2.415   5.039  15.473  1.4054  0.8818 -0.9322
 4846TIP3   OH235952   4.688   2.645   0.675 -0.2710  0.2654  0.5099
 4846TIP3    H135953   4.645   2.710   0.730 -0.1104  0.6242  0.2170
 4846TIP3    H235954   4.630   2.637   0.599  0.7535  1.6119 -0.4342
 4847TIP3   OH235955   1.544   3.623  13.212 -0.0495  0.1126  0.0016
 4847TIP3    H135956   1.535   3.654  13.121  1.0305  0.3876 -0.0181
 4847TIP3    H235957   1.613   3.678  13.249  0.5820 -1.0183  0.5264
 4848TIP3   OH235958   1.929   3.152  14.993 -0.4188 -0.3625  0.0998
 4848TIP3    H135959   1.854   3.127  14.939  1.2967 -0.9145 -2.1271
 4848TIP3    H235960   1.988   3.077  14.990  1.4451  1.0536 -0.5170
 4849TIP3   OH235961   2.270   2.415   3.105 -0.0194 -0.0431 -0.1467
 4849TIP3    H135962   2.273   2.327   3.066 -1.8333 -0.4391  0.5934
 4849TIP3    H235963   2.293   2.473   3.033  2.2610 -1.1865 -0.3977
 4850TIP3   OH235964   4.708   4.681  16.423 -0.3759  0.0771 -0.1314
 4850TIP3    H135965   4.701   4.736  16.345 -1.9894  0.9233  0.5843
 4850TIP3    H235966   4.684   4.594  16.393  2.7519 -0.4101 -1.3985
 4851TIP3   OH235967   6.337   3.162   0.875 -0.1890  0.1595  0.1105
 4851TIP3    H135968   6.336   3.145   0.969  0.3607 -0.4506  0.0079
 4851TIP3    H235969   6.362   3.254   0.867 -0.7253  0.3475  0.5764
 4852TIP3   OH235970   5.054   2.187   3.644 -0.4518  0.4451  0.5832
 4852TIP3    H135971   5.010   2.240   3.710 -0.5894 -0.6779  1.4128
 4852TIP3    H235972   5.045   2.097   3.676  1.3151  0.0811  0.1208
 4853TIP3   OH235973   0.132   4.764   4.410  0.2958 -0.3958  0.2270
 4853TIP3    H135974   0.196   4.723   4.468  0.7157  0.2232  0.2028
 4853TIP3    H235975   0.077   4.816   4.468  0.2818 -0.3288  0.1541
 4854TIP3   OH235976   5.439   5.094  15.251  0.4487 -0.1296 -0.4088
 4854TIP3    H135977   5.421   5.041  15.328  0.3750  0.2662 -0.1517
 4854TIP3    H235978   5.446   5.031  15.179  0.6337 -0.5069 -0.0603
 4855TIP3   OH235979   4.582   1.105   0.775 -0.6362 -0.2457 -0.6897
 4855TIP3    H135980   4.533   1.053   0.712 -0.6559  0.5631 -1.3657
 4855TIP3    H235981   4.627   1.171   0.721  0.4748 -0.4266  0.0072
 4856TIP3   OH235982   6.655   0.423   0.576 -0.0479  0.2785  0.2801
 4856TIP3    H135983   6.694   0.508   0.598  1.5002 -0.4968  0.6160
 4856TIP3    H235984   6.669   0.414   0.482 -1.0406  0.8058  0.0817
 4857TIP3   OH235985   6.541   3.463  11.542  0.1668  0.1668 -0.0987
 4857TIP3    H135986   6.450   3.490  11.540 -0.1120 -0.6482  0.8814
 4857TIP3    H235987   6.541   3.383  11.595  1.3319 -0.2665 -0.7330
 4858TIP3   OH235988   2.075   1.351  12.477 -0.1207 -0.0285  0.6380
 4858TIP3    H135989   2.025   1.375  12.555 -1.0155 -0.6272  0.2577
 4858TIP3    H235990   2.059   1.422  12.416  0.3127  0.2771  0.8778
 4859TIP3   OH235991   6.616   1.915   3.608 -0.5239  0.5540  0.0501
 4859TIP3    H135992   6.668   1.982   3.652 -0.1652  0.2915  0.0249
 4859TIP3    H235993   6.597   1.850   3.675  1.3195 -0.6173 -0.5269
 4860TIP3   OH235994   3.905   2.735   5.502 -0.2534  0.4081 -0.2259
 4860TIP3    H135995   3.850   2.791   5.557  0.2282  0.1132  0.5620
 4860TIP3    H235996   3.885   2.646   5.530 -0.6391  0.2019 -1.1272
 4861TIP3   OH235997   4.004   1.561   5.995 -0.6493 -0.1214  0.0108
 4861TIP3    H135998   4.024   1.650   5.966 -0.5500  0.0753  0.6677
 4861TIP3    H235999   3.917   1.567   6.035 -0.5110 -0.2492  0.3381
 4862TIP3   OH236000   1.956   3.115  12.163  0.3805 -0.2203  0.4356
 4862TIP3    H136001   1.933   3.031  12.203  0.4683 -0.2167  0.4937
 4862TIP3    H236002   1.904   3.117  12.082  0.5112 -0.4097  0.3457
 4863TIP3   OH236003   0.078   6.508  16.937 -0.1699 -0.0830 -0.0766
 4863TIP3    H136004  -0.017   6.502  16.943 -0.1798  1.6726  2.0017
 4863TIP3    H236005   0.102   6.575  17.000  2.5995 -1.7373  0.7288
 4864TIP3   OH236006   3.116   5.391  15.805  0.4390 -0.7881 -0.0331
 4864TIP3    H136007   3.195   5.340  15.823  0.6481 -0.4731 -0.0493
 4864TIP3    H236008   3.144   5.456  15.740  0.4301 -0.0053  0.7315
 4865TIP3   OH236009   1.976   2.544   4.140  0.3875 -0.3357  0.2665
 4865TIP3    H136010   2.039   2.521   4.209 -1.2145 -1.3050  1.4539
 4865TIP3    H236011   2.003   2.632   4.112  3.7043 -1.6513 -0.9738
 4866TIP3   OH236012   2.018   1.578   6.191  0.4729  0.1294  0.4587
 4866TIP3    H136013   1.923   1.578   6.180  0.6168  3.0078 -1.1361
 4866TIP3    H236014   2.046   1.492   6.161 -1.7178 -1.2013  2.0640
 4867TIP3   OH236015   2.214   2.658  11.455 -0.1981  0.1377  0.2513
 4867TIP3    H136016   2.213   2.746  11.494  2.0748 -1.5331  4.4759
 4867TIP3    H236017   2.305   2.647  11.425 -0.5292 -0.7127 -0.4312
 4868TIP3   OH236018   2.556   5.151  12.912  0.3535  0.7173  0.3416
 4868TIP3    H136019   2.592   5.229  12.955 -0.7384  0.9679  0.8138
 4868TIP3    H236020   2.630   5.114  12.864  0.9684  1.8514  0.3998
 4869TIP3   OH236021   2.616   1.077  15.087 -0.1746  0.1003 -0.0412
 4869TIP3    H136022   2.690   1.080  15.147  0.3880 -1.3008 -0.6397
 4869TIP3    H236023   2.657   1.075  15.000 -0.9512  0.6582 -0.4226
 4870TIP3   OH236024   4.802   6.061   2.803  0.1805 -0.2156 -0.3401
 4870TIP3    H136025   4.750   6.109   2.739  0.6771 -0.4526 -0.9353
 4870TIP3    H236026   4.759   5.975   2.810  0.1857 -0.2261 -0.4355
 4871TIP3   OH236027   4.428   2.467   0.631  0.1134  0.5553 -0.2008
 4871TIP3    H136028   4.375   2.547   0.622  0.1703  0.5251 -0.8416
 4871TIP3    H236029   4.376   2.399   0.589  0.7955  0.5916 -1.1309
 4872TIP3   OH236030   4.949   4.568   1.844  0.2977 -0.1824 -0.1736
 4872TIP3    H136031   4.908   4.547   1.760 -0.1094 -1.7702  0.3992
 4872TIP3    H236032   5.041   4.546   1.832  0.1603 -0.8151 -0.0692
 4873TIP3   OH236033   5.187   3.970  15.036 -0.8972  0.2642  0.1209
 4873TIP3    H136034   5.275   3.957  15.070 -0.8595 -0.2346 -0.1650
 4873TIP3    H236035   5.177   3.903  14.968 -1.8238 -0.2946  0.7935
 4874TIP3   OH236036   5.425   5.555  13.981 -0.3661  0.3439  0.4298
 4874TIP3    H136037   5.435   5.512  13.896  1.1022 -1.1757  1.3597
 4874TIP3    H236038   5.338   5.595  13.977 -1.3862 -1.9307 -0.7972
 4875TIP3   OH236039   6.257   2.373   5.809  0.4487 -0.4803  0.1695
 4875TIP3    H136040   6.244   2.303   5.744 -0.8467  0.6850 -0.8683
 4875TIP3    H236041   6.176   2.373   5.860 -0.3398  1.4006 -0.9989
 4876TIP3   OH236042   0.642   0.416   1.779 -0.2163 -0.4240  0.0876
 4876TIP3    H136043   0.559   0.463   1.768  1.0982  1.9291 -0.0723
 4876TIP3    H236044   0.702   0.459   1.718  2.3575  1.0132  3.5016
 4877TIP3   OH236045   5.648   4.537  13.593  0.6904 -0.5679  0.0566
 4877TIP3    H136046   5.679   4.525  13.683  0.4283  1.1291  0.3743
 4877TIP3    H236047   5.685   4.462  13.545  1.2060 -1.2340  1.4643
 4878TIP3   OH236048   0.922   3.089   0.260 -0.3242  0.5565  0.8774
 4878TIP3    H136049   0.856   3.106   0.328 -0.1608 -0.2750  1.2469
 4878TIP3    H236050   0.972   3.170   0.255  1.4142 -0.2755  3.6763
 4879TIP3   OH236051   1.312   5.495  14.311 -0.2852  0.2472  0.3969
 4879TIP3    H136052   1.297   5.532  14.398  0.7016 -0.4369  0.8618
 4879TIP3    H236053   1.224   5.475  14.278 -0.8913  3.2708  0.0011
 4880TIP3   OH236054   0.776   1.207   3.476  0.0143  0.0620  0.4241
 4880TIP3    H136055   0.743   1.268   3.410  0.3204  1.1907  1.2958
 4880TIP3    H236056   0.818   1.263   3.541 -0.5480 -1.0136  1.7279
 4881TIP3   OH236057   5.550   0.125  11.206 -0.3831  0.3330  0.0058
 4881TIP3    H136058   5.621   0.187  11.188 -0.5810  0.9403  1.2442
 4881TIP3    H236059   5.499   0.166  11.276 -2.7066  0.4937 -1.7137
 4882TIP3   OH236060   2.673   3.424   2.049  0.4339  0.0439  0.3507
 4882TIP3    H136061   2.734   3.358   2.081 -0.4676 -0.5555  0.8607
 4882TIP3    H236062   2.702   3.443   1.960 -1.6859 -4.0177 -1.3465
 4883TIP3   OH236063   0.438   5.679  13.093  0.3405 -0.2729 -0.0184
 4883TIP3    H136064   0.415   5.664  13.002  0.6173 -2.2395  0.2024
 4883TIP3    H236065   0.407   5.767  13.112  0.4531  0.2327 -2.0593
 4884TIP3   OH236066   2.342   2.817  15.335  0.0678  0.2455  0.3225
 4884TIP3    H136067   2.289   2.826  15.255 -2.0372 -0.5346  1.5837
 4884TIP3    H236068   2.409   2.753  15.312 -0.5819 -0.0507 -0.7952
 4885TIP3   OH236069   1.980   2.556  15.703 -0.1783  0.3509  0.1814
 4885TIP3    H136070   1.934   2.475  15.727  0.7851  0.1978  1.5206
 4885TIP3    H236071   2.018   2.588  15.784  0.2644  1.6448 -0.5208
 4886TIP3   OH236072   2.989   6.097  12.602 -0.1064  0.1952  0.2983
 4886TIP3    H136073   3.013   6.076  12.693  2.5547 -2.4700 -0.9542
 4886TIP3    H236074   2.962   6.013  12.565  0.8601  0.8720 -1.9843
 4887TIP3   OH236075   0.948   3.677  14.071  0.8490  0.1328 -0.0132
 4887TIP3    H136076   0.925   3.745  14.008  0.4443  0.7997  0.8462
 4887TIP3    H236077   0.937   3.595  14.023 -2.5032  0.4655  0.0736
 4888TIP3   OH236078   1.864   3.286   2.898 -0.9468  0.0045 -0.0321
 4888TIP3    H136079   1.959   3.296   2.907 -0.6797 -2.5642  0.4131
 4888TIP3    H236080   1.829   3.320   2.981 -0.4008  0.5327 -0.0101
 4889TIP3   OH236081   0.225   5.115  14.429 -0.2429 -0.5418  0.1953
 4889TIP3    H136082   0.150   5.165  14.398  0.1443  0.6847  1.1872
 4889TIP3    H236083   0.283   5.109  14.354 -0.4113  0.2928 -0.0049
 4890TIP3   OH236084   2.720   3.904   1.999 -0.5343 -0.7804 -0.1189
 4890TIP3    H136085   2.732   3.988   1.953  2.7963 -0.3203  1.4099
 4890TIP3    H236086   2.695   3.930   2.088  1.6363 -1.3112  0.6781
 4891TIP3   OH236087   2.006   6.262  12.047 -0.3969 -0.5123  0.6768
 4891TIP3    H136088   1.936   6.327  12.040 -0.2304 -0.1691  2.2228
 4891TIP3    H236089   2.084   6.307  12.015 -0.7536 -0.7376 -0.5670
 4892TIP3   OH236090   5.370   3.848  13.476 -0.5341 -0.1484  0.3920
 4892TIP3    H136091   5.405   3.932  13.446  0.2329 -0.2896  0.8752
 4892TIP3    H236092   5.322   3.869  13.556 -0.0803 -0.2192  0.6813
 4893TIP3   OH236093   0.734   6.352  14.391  0.2146  0.2942  0.0834
 4893TIP3    H136094   0.706   6.260  14.400  1.7362 -0.2583 -0.6522
 4893TIP3    H236095   0.721   6.371  14.298  0.3362  0.6966  0.1492
 4894TIP3   OH236096   4.100   3.118  12.052  0.2778  0.4086 -0.0640
 4894TIP3    H136097   4.069   3.072  11.974 -1.8824 -1.9439  2.1217
 4894TIP3    H236098   4.190   3.142  12.031 -0.2195 -0.2748 -3.2289
 4895TIP3   OH236099   1.390   5.721   2.886 -0.0898 -0.2490 -0.2111
 4895TIP3    H136100   1.357   5.797   2.935 -3.2312 -0.6913 -1.5651
 4895TIP3    H236101   1.421   5.758   2.803 -0.1150 -0.2342 -0.2139
 4896TIP3   OH236102   6.494   3.124  12.221  0.1535  0.4398  0.1945
 4896TIP3    H136103   6.552   3.135  12.297  0.9984 -0.0406 -0.3734
 4896TIP3    H236104   6.406   3.131  12.257  0.4374 -3.1822  1.8064
 4897TIP3   OH236105   1.868   4.735   4.383 -0.2562 -0.2085 -0.7319
 4897TIP3    H136106   1.867   4.830   4.380 -3.2935 -0.1885 -1.4086
 4897TIP3    H236107   1.810   4.713   4.456 -0.8192 -1.5133 -1.5443
 4898TIP3   OH236108   2.967   4.071   0.625 -0.8732 -0.1829 -0.0693
 4898TIP3    H136109   2.999   4.153   0.588  0.8673 -0.7616  0.1550
 4898TIP3    H236110   2.930   4.024   0.551 -1.5507  0.6154 -0.2624
 4899TIP3   OH236111   0.242   0.969  15.371 -0.0404  0.0537  0.4015
 4899TIP3    H136112   0.211   1.008  15.289 -0.9412 -1.1717  0.1349
 4899TIP3    H236113   0.333   0.998  15.380  0.0393  0.2395 -0.9989
 4900TIP3   OH236114   0.347   6.329   3.330  0.2197 -0.0446 -0.2815
 4900TIP3    H136115   0.255   6.356   3.322  0.1143 -0.7805 -1.7394
 4900TIP3    H236116   0.393   6.387   3.269  0.2987 -1.6391 -1.7639
 4901TIP3   OH236117   0.419   3.951   2.007  0.2748 -0.1471 -0.0226
 4901TIP3    H136118   0.380   4.000   1.935  1.9561  0.4322 -0.5567
 4901TIP3    H236119   0.406   3.859   1.983  0.5607  0.0404 -0.9172
 4902TIP3   OH236120   3.914   4.740   5.136  0.3278  0.1923 -0.5345
 4902TIP3    H136121   3.843   4.720   5.196 -0.7073  2.3259 -1.0019
 4902TIP3    H236122   3.928   4.660   5.086  0.6978 -1.3625  2.0190
 4903TIP3   OH236123   6.678   2.081  12.435  0.1289 -0.2188 -0.0851
 4903TIP3    H136124   6.755   2.109  12.385 -1.2949  2.2523 -0.9944
 4903TIP3    H236125   6.678   2.138  12.512 -1.2612  0.4214 -0.5436
 4904TIP3   OH236126   5.874   5.539  13.314 -0.4547  0.4356  0.3126
 4904TIP3    H136127   5.880   5.599  13.388 -1.2215 -0.9829  1.5502
 4904TIP3    H236128   5.920   5.584  13.243  0.9093  1.5127  1.8397
 4905TIP3   OH236129   1.948   3.338   0.111 -0.2647  0.1962 -0.1793
 4905TIP3    H136130   2.019   3.301   0.163 -0.5940 -1.7904 -1.0887
 4905TIP3    H236131   1.873   3.339   0.170  0.2501  1.3724  0.4766
 4906TIP3   OH236132   5.882   3.104  15.106 -0.0531  0.0113  0.1290
 4906TIP3    H136133   5.882   3.112  15.202  0.2313  0.1300  0.1175
 4906TIP3    H236134   5.911   3.014  15.090  2.0611  0.6969  0.0857
 4907TIP3   OH236135   0.834   4.370  11.619 -0.5745 -0.1431 -0.1129
 4907TIP3    H136136   0.811   4.379  11.712  0.8784 -1.3358  0.3701
 4907TIP3    H236137   0.892   4.444  11.602 -0.4167 -0.2286  0.0560
 4908TIP3   OH236138   6.263   5.164   3.755  0.0179 -0.2554  0.2500
 4908TIP3    H136139   6.321   5.100   3.713  0.1907 -0.4636  0.8022
 4908TIP3    H236140   6.181   5.117   3.768  0.6370 -0.8769  2.0905
 4909TIP3   OH236141   4.874   5.686  17.176 -0.1558 -0.0854  0.6384
 4909TIP3    H136142   4.784   5.715  17.157  0.7905  2.0238 -0.8366
 4909TIP3    H236143   4.906   5.748  17.240  0.6234 -0.1859  0.3487
 4910TIP3   OH236144   1.836   6.306  16.406 -0.1514  0.0760  0.0789
 4910TIP3    H136145   1.813   6.386  16.358 -0.6750  1.0658  1.9534
 4910TIP3    H236146   1.751   6.266  16.427  0.1054 -0.9325 -0.7256
 4911TIP3   OH236147   2.938   0.029  16.729  0.3298 -0.7337 -0.0743
 4911TIP3    H136148   2.932   0.108  16.783 -1.2250 -0.8805 -0.0107
 4911TIP3    H236149   2.990   0.056  16.653 -0.9506  0.6343 -0.5066
 4912TIP3   OH236150   3.628   5.406   1.513  0.1343 -0.1672  0.5121
 4912TIP3    H136151   3.683   5.362   1.448 -0.6473  0.7993 -0.8242
 4912TIP3    H236152   3.653   5.498   1.507 -0.3612  0.0116  1.1691
 4913TIP3   OH236153   5.113   3.563  13.762  0.0057  0.0138  0.2856
 4913TIP3    H136154   5.037   3.590  13.710 -0.2091  0.9108  1.0549
 4913TIP3    H236155   5.090   3.476  13.794 -0.4932  0.0802  0.1183
 4914TIP3   OH236156   6.310   3.469  13.941 -0.6143  0.7047  0.6011
 4914TIP3    H136157   6.335   3.509  13.858 -1.6733 -0.4073 -0.2826
 4914TIP3    H236158   6.383   3.488  14.000  1.8538 -1.5131 -1.5864
 4915TIP3   OH236159   4.028   6.496   3.645  0.7349 -0.1531  0.1983
 4915TIP3    H136160   4.079   6.512   3.725  0.8232  0.9099 -0.0652
 4915TIP3    H236161   4.091   6.457   3.584  0.6973 -0.8557  0.5966
 4916TIP3   OH236162   0.896   4.157  13.635  0.0992  0.3425 -0.0471
 4916TIP3    H136163   0.820   4.189  13.683  0.1273  0.9958 -0.4236
 4916TIP3    H236164   0.916   4.073  13.674  0.4561  1.1098  1.4621
 4917TIP3   OH236165   2.935   0.268   2.594  0.0991 -0.0301 -0.0532
 4917TIP3    H136166   3.015   0.225   2.562  0.6400  0.2407  0.9144
 4917TIP3    H236167   2.871   0.197   2.600  1.0500 -0.7868  1.7417
 4918TIP3   OH236168   2.546   4.270  12.527 -0.2143  0.5090 -0.1487
 4918TIP3    H136169   2.519   4.282  12.618 -0.1006 -1.0854  0.1172
 4918TIP3    H236170   2.478   4.213  12.490  0.6591 -0.2596 -0.5758
 4919TIP3   OH236171   2.827   1.305  13.086  0.2186  0.2720  0.4859
 4919TIP3    H136172   2.886   1.318  13.160  1.6784 -1.0521 -0.4341
 4919TIP3    H236173   2.861   1.362  13.017 -1.5010  1.9736  1.0092
 4920TIP3   OH236174   3.103   3.337  11.818 -0.2753  1.1783 -0.4906
 4920TIP3    H136175   3.054   3.323  11.899  0.6798 -1.6359 -0.3545
 4920TIP3    H236176   3.147   3.421  11.831 -0.9334  1.2480  1.5033
 4921TIP3   OH236177   2.296   3.434  17.134 -0.2108  0.1843  0.4065
 4921TIP3    H136178   2.310   3.341  17.116  0.6438  0.5790 -1.0641
 4921TIP3    H236179   2.243   3.465  17.061 -3.0295  0.2407  2.4052
 4922TIP3   OH236180   6.265   5.138   1.845  0.5023  0.3133 -0.5291
 4922TIP3    H136181   6.268   5.073   1.915  0.4272  1.6675  0.7540
 4922TIP3    H236182   6.297   5.218   1.886 -2.4444  1.9025 -1.2004
 4923TIP3   OH236183   3.991   4.363  16.756  0.3468  0.1491  0.6839
 4923TIP3    H136184   4.043   4.283  16.743 -0.5723  0.1705 -4.3472
 4923TIP3    H236185   4.049   4.422  16.803  2.4070 -2.1711  1.1864
 4924TIP3   OH236186   4.449   6.358   0.572 -0.0016 -0.0933 -0.0384
 4924TIP3    H136187   4.444   6.408   0.653  1.3541  2.1696 -1.3120
 4924TIP3    H236188   4.484   6.273   0.599  0.7691  0.7585  1.7141
 4925TIP3   OH236189   0.765   3.463   1.031  0.1370  0.0124 -0.0182
 4925TIP3    H136190   0.848   3.416   1.022  0.8072  0.8687  1.5612
 4925TIP3    H236191   0.751   3.504   0.946  1.3937 -0.0359 -0.2502
 4926TIP3   OH236192   3.565   5.886   2.978  0.2402  0.2571  0.1538
 4926TIP3    H136193   3.494   5.926   3.028 -0.6625 -1.7427  0.5589
 4926TIP3    H236194   3.528   5.873   2.890  1.0321  1.6455 -0.3988
 4927TIP3   OH236195   2.111   5.869   5.850 -0.1844 -0.3542 -0.1105
 4927TIP3    H136196   2.060   5.790   5.832 -0.3629 -0.7222  1.8975
 4927TIP3    H236197   2.078   5.901   5.933  0.7232  1.1651 -0.3159
 4928TIP3   OH236198   2.623   1.128  14.522 -0.2691  0.1981  0.2854
 4928TIP3    H136199   2.543   1.111  14.472 -0.2034  2.9765 -0.8351
 4928TIP3    H236200   2.597   1.190  14.590  0.6671  0.1165  0.7277
 4929TIP3   OH236201   3.031   2.141  11.966  0.3968  0.0345 -0.1134
 4929TIP3    H136202   3.115   2.187  11.966  0.0707  0.6567  0.5846
 4929TIP3    H236203   3.000   2.148  11.875  2.0165 -1.9628 -0.8526
 4930TIP3   OH236204   2.547   3.124  15.728 -0.4585  0.4777 -0.3670
 4930TIP3    H136205   2.554   3.141  15.822 -1.8736  1.2961 -0.4063
 4930TIP3    H236206   2.540   3.029  15.721  0.1152  0.3793  0.3199
 4931TIP3   OH236207   3.642   1.813  12.506 -0.2190 -0.0360  0.3366
 4931TIP3    H136208   3.636   1.743  12.571 -2.8893  0.5922  0.8261
 4931TIP3    H236209   3.573   1.793  12.442 -0.4741  1.7018  0.0459
 4932TIP3   OH236210   3.643   3.127  17.210  0.3520 -0.3842  0.1777
 4932TIP3    H136211   3.676   3.204  17.257  0.5056 -1.2581  1.5344
 4932TIP3    H236212   3.548   3.138  17.211  0.4678  1.4556 -2.5592
 4933TIP3   OH236213   6.101   2.990  15.587  0.1399  0.6176 -0.3653
 4933TIP3    H136214   6.182   2.939  15.584 -0.2453 -0.0370  0.1768
 4933TIP3    H236215   6.083   3.001  15.680 -1.2021 -0.5535 -0.4638
 4934TIP3   OH236216   6.725   6.562   1.738  0.4392  0.5586 -0.0361
 4934TIP3    H136217   6.771   6.587   1.818  1.5178 -0.7437 -0.2268
 4934TIP3    H236218   6.738   6.467   1.733  0.0159  0.5823 -1.5248
 4935TIP3   OH236219   2.194   2.501   1.114  0.0191 -0.1543  0.1997
 4935TIP3    H136220   2.244   2.419   1.116 -0.0440 -0.1685  1.3429
 4935TIP3    H236221   2.177   2.516   1.021 -0.6656 -1.8681  0.0341
 4936TIP3   OH236222   6.165   6.194  12.846 -0.0339  0.5106  0.2177
 4936TIP3    H136223   6.186   6.102  12.862  0.4257  0.7813  1.2169
 4936TIP3    H236224   6.077   6.206  12.881 -0.1809  0.4046 -0.1107
 4937TIP3   OH236225   5.980   3.403   3.471 -0.5320 -0.0247  0.5472
 4937TIP3    H136226   6.024   3.484   3.445 -0.2273 -0.5611 -0.6476
 4937TIP3    H236227   6.034   3.333   3.433 -1.6331 -0.7343  0.2603
 4938TIP3   OH236228   6.089   0.155   3.995  0.1125  0.6029 -0.5298
 4938TIP3    H136229   6.124   0.067   4.008 -0.6585  0.4687  0.7669
 4938TIP3    H236230   6.030   0.147   3.920 -0.3296 -0.1047 -0.1172
 4939TIP3   OH236231   3.322   5.059   0.790 -0.0127 -0.2720  0.2622
 4939TIP3    H136232   3.338   5.108   0.709 -0.2365 -2.0927 -0.9142
 4939TIP3    H236233   3.376   4.981   0.781  0.5854 -0.1052  2.2561
 4940TIP3   OH236234   2.041   5.441  17.076  0.5608 -0.1751 -0.2681
 4940TIP3    H136235   1.980   5.471  17.143  0.2613  0.8253 -0.9748
 4940TIP3    H236236   2.084   5.522  17.045  0.0150 -0.5002 -1.9400
 4941TIP3   OH236237   5.976   5.168  13.961 -0.1865 -0.9570  0.3738
 4941TIP3    H136238   5.925   5.135  14.035 -1.1268 -1.8288 -0.6313
 4941TIP3    H236239   6.026   5.092  13.931  0.3928 -0.5365  0.2908
 4942TIP3   OH236240   3.106   2.452   0.057  0.3368 -0.3264 -0.3446
 4942TIP3    H136241   3.177   2.509   0.030 -1.4132  2.0261 -0.1711
 4942TIP3    H236242   3.097   2.468   0.151 -1.0268  0.1159 -0.5392
 4943TIP3   OH236243   4.679   3.677  13.294  0.5597 -0.0634 -0.3176
 4943TIP3    H136244   4.769   3.680  13.263  0.6738 -2.3865 -0.3506
 4943TIP3    H236245   4.628   3.721  13.226  1.5731  0.4841 -0.7238
 4944TIP3   OH236246   6.213   2.896  11.343 -0.3361 -0.0106  0.0017
 4944TIP3    H136247   6.217   2.901  11.439  2.1377  1.8848 -0.1454
 4944TIP3    H236248   6.128   2.933  11.321 -1.0403 -0.6833  1.4642
 4945TIP3   OH236249   6.222   1.750   6.478 -0.8320  0.0499  0.3641
 4945TIP3    H136250   6.167   1.809   6.427  0.1357  0.7220  0.0913
 4945TIP3    H236251   6.160   1.699   6.531 -1.7188  0.6982 -0.0449
 4946TIP3   OH236252   2.717   5.882   1.568  0.0167  0.6566  0.2582
 4946TIP3    H136253   2.775   5.876   1.644  1.2973 -0.3871 -0.7713
 4946TIP3    H236254   2.658   5.955   1.589 -0.3503 -0.2875  2.6931
 4947TIP3   OH236255   4.398   6.658   6.117  0.0926  0.2217 -0.4527
 4947TIP3    H136256   4.467   6.594   6.132 -0.0692 -0.1678 -1.3409
 4947TIP3    H236257   4.389   6.704   6.201  0.5807 -0.5453  0.0270
 4948TIP3   OH236258   4.002   6.496  12.451 -0.1012  0.3566 -0.8072
 4948TIP3    H136259   4.019   6.590  12.441  0.0673  0.2180 -1.9304
 4948TIP3    H236260   3.995   6.482  12.545 -1.2610  1.6967 -0.6856
 4949TIP3   OH236261   3.845   5.700   3.578 -0.1210  0.3031 -0.1588
 4949TIP3    H136262   3.757   5.710   3.541 -0.3844 -1.2000  0.0478
 4949TIP3    H236263   3.862   5.606   3.575  1.5760  0.6074 -0.3852
 4950TIP3   OH236264   2.693   5.536  15.830 -0.0847  0.4334  0.3225
 4950TIP3    H136265   2.742   5.617  15.817  0.1940  0.1029 -0.7292
 4950TIP3    H236266   2.759   5.467  15.827 -0.5980 -0.0281 -1.2469
 4951TIP3   OH236267   0.396   6.136   2.509 -0.1332  0.0825 -0.0143
 4951TIP3    H136268   0.459   6.083   2.460  0.4079 -0.9843  1.7647
 4951TIP3    H236269   0.449   6.177   2.578 -1.0200  0.8740  0.2037
 4952TIP3   OH236270   2.213   4.512  15.947 -0.7701  0.1243 -0.4238
 4952TIP3    H136271   2.289   4.546  15.995 -0.5888 -2.4356  1.2679
 4952TIP3    H236272   2.242   4.506  15.856  1.7433 -2.5022  0.4841
 4953TIP3   OH236273   0.067   1.875   3.918  0.6465 -0.0331 -0.0136
 4953TIP3    H136274  -0.029   1.878   3.909  0.5950  1.1721  0.8151
 4953TIP3    H236275   0.082   1.881   4.012  1.6047  2.8030 -0.3022
 4954TIP3   OH236276   0.788   4.498  13.549 -0.1676 -0.1306  0.7089
 4954TIP3    H136277   0.698   4.525  13.567  0.0636  0.3364  1.1723
 4954TIP3    H236278   0.779   4.419  13.495 -0.8647  2.2427 -2.7802
 4955TIP3   OH236279   2.362   6.701   5.118 -0.2319  0.6324 -0.0608
 4955TIP3    H136280   2.427   6.633   5.134 -2.6921 -1.8307 -0.1735
 4955TIP3    H236281   2.349   6.699   5.023 -0.1136  1.4587 -0.0951
 4956TIP3   OH236282   0.181   6.736  15.577  0.0438 -0.0156  0.4196
 4956TIP3    H136283   0.102   6.750  15.525 -0.1160  1.0592  0.9406
 4956TIP3    H236284   0.249   6.719  15.512 -0.3784  0.2084 -0.0900
 4957TIP3   OH236285   6.530   6.745  11.913  0.3359  0.0393 -0.5162
 4957TIP3    H136286   6.601   6.809  11.910  0.3926  0.0013 -0.0435
 4957TIP3    H236287   6.534   6.709  12.002  0.2966 -0.6067 -0.7753
 4958TIP3   OH236288   5.511   0.024   0.148  0.0512 -0.5827 -0.5107
 4958TIP3    H136289   5.442  -0.007   0.208 -0.4020 -0.1366 -0.8028
 4958TIP3    H236290   5.465   0.081   0.087  0.9049  0.7653  0.0909
 4959TIP3   OH236291   2.320   0.632  11.084  0.4340 -0.4876 -0.7837
 4959TIP3    H136292   2.396   0.641  11.027  0.5058  0.0117 -0.6055
 4959TIP3    H236293   2.293   0.721  11.104  0.9694 -0.6428  0.7020
 4960TIP3   OH236294   2.089   3.422   2.395  0.3660 -0.2171 -0.3234
 4960TIP3    H136295   2.176   3.459   2.386 -0.4068  2.3886  2.2340
 4960TIP3    H236296   2.095   3.364   2.471 -0.1976  0.2321  0.0712
 4961TIP3   OH236297   2.638   4.730   3.028  0.0520  0.1165 -0.5822
 4961TIP3    H136298   2.602   4.645   3.001 -1.5553  0.1120  1.4162
 4961TIP3    H236299   2.570   4.793   3.004  0.5165  0.6355 -0.5379
 4962TIP3   OH236300   2.174   4.052   3.261  0.0404  0.2319  0.6450
 4962TIP3    H136301   2.211   4.111   3.196  0.8978  1.2085  1.9851
 4962TIP3    H236302   2.129   4.110   3.322 -2.7089 -0.8394 -0.2961
 4963TIP3   OH236303   1.281   2.045   5.215 -0.4533  0.4463  0.5661
 4963TIP3    H136304   1.294   2.074   5.305  1.2536  3.1847 -0.5136
 4963TIP3    H236305   1.362   1.999   5.193  0.1882  1.9951 -0.3699
 4964TIP3   OH236306   5.967   0.501  12.798  0.2034 -0.2854 -0.3943
 4964TIP3    H136307   5.956   0.528  12.889  1.1252  2.7270 -1.1179
 4964TIP3    H236308   5.878   0.499  12.762 -0.0244  0.0314  0.1580
 4965TIP3   OH236309   2.106   2.404   2.228  0.1549 -0.5456  0.1511
 4965TIP3    H136310   2.103   2.439   2.139  0.3119 -0.3374  0.2271
 4965TIP3    H236311   2.166   2.462   2.275 -0.6518 -0.0977  0.6369
 4966TIP3   OH236312   2.076   1.275  13.917  0.0447 -0.1509  0.3788
 4966TIP3    H136313   2.166   1.286  13.948 -0.5489  0.2260  2.0558
 4966TIP3    H236314   2.028   1.347  13.959 -0.5776  1.1280 -2.4498
 4967TIP3   OH236315   1.964   1.236   0.260  0.4928  0.2630  0.2627
 4967TIP3    H136316   2.037   1.281   0.303  0.1535  0.9298  0.1416
 4967TIP3    H236317   2.006   1.175   0.199  0.9899 -1.0136  1.8431
 4968TIP3   OH236318   4.621   4.732  12.390  0.0216  0.0503 -0.2936
 4968TIP3    H136319   4.674   4.653  12.376  0.1009  0.0943 -0.2402
 4968TIP3    H236320   4.682   4.795  12.427  0.1125  0.3559 -0.9572
 4969TIP3   OH236321   3.954   2.146  15.480 -0.1873  0.4356 -0.1843
 4969TIP3    H136322   3.950   2.240  15.466  0.4169  0.7815  1.8336
 4969TIP3    H236323   3.888   2.129  15.548 -0.8415 -0.7080 -1.0921
 4970TIP3   OH236324   6.076   4.112   0.152  0.0730 -0.2241 -0.4460
 4970TIP3    H136325   6.057   4.026   0.188  1.4044 -0.5314 -0.4775
 4970TIP3    H236326   6.067   4.172   0.226 -0.6052 -0.4193 -0.3704
 4971TIP3   OH236327   4.068   2.986   1.014 -0.6484 -0.1571  0.2884
 4971TIP3    H136328   3.990   3.017   0.966 -0.4554 -1.7746 -1.1032
 4971TIP3    H236329   4.052   2.893   1.029  1.3612 -0.7124 -0.7535
 4972TIP3   OH236330   2.121   4.906   4.567  0.1025  0.1049  0.1265
 4972TIP3    H136331   2.029   4.912   4.544  0.4080  0.4474 -1.0735
 4972TIP3    H236332   2.164   4.878   4.486  1.2379  1.4076  0.2512
 4973TIP3   OH236333   3.278   6.319  15.062 -0.1601  0.1271  0.3536
 4973TIP3    H136334   3.368   6.288  15.053 -0.3693 -0.5269  0.5463
 4973TIP3    H236335   3.247   6.282  15.145 -0.6290  0.2996  0.2591
 4974TIP3   OH236336   0.794   5.925  12.512 -0.6843  0.9430 -0.0266
 4974TIP3    H136337   0.871   5.957  12.560 -0.5139  2.9831 -1.6329
 4974TIP3    H236338   0.829   5.854  12.458 -0.3356  0.5001  0.7649
 4975TIP3   OH236339   5.793   2.098   1.237  0.6219  0.0994 -0.4206
 4975TIP3    H136340   5.853   2.048   1.291  0.6758  0.9444  0.3141
 4975TIP3    H236341   5.828   2.090   1.148  2.2497  1.2104  0.1041
 4976TIP3   OH236342   0.378   3.745   5.525 -0.2414  0.4207 -0.5624
 4976TIP3    H136343   0.314   3.681   5.554 -1.0009 -0.2139 -3.4830
 4976TIP3    H236344   0.328   3.810   5.476  1.2074  0.3409 -2.2183
 4977TIP3   OH236345   6.348   3.889  12.906  0.0450  0.3201 -0.2085
 4977TIP3    H136346   6.392   3.847  12.832  2.0249 -0.7037  1.4913
 4977TIP3    H236347   6.400   3.967  12.924 -1.6053  1.6648 -1.1475
 4978TIP3   OH236348   2.082   4.013   0.049 -0.6921 -1.0483 -0.8305
 4978TIP3    H136349   2.042   4.100   0.059  0.8381 -0.1729 -2.0914
 4978TIP3    H236350   2.175   4.030   0.041 -0.4329 -2.7622 -1.7556
 4979TIP3   OH236351   3.824   2.505  14.799 -0.0907 -0.3698 -0.2285
 4979TIP3    H136352   3.897   2.485  14.858 -1.8201 -3.2712  0.9931
 4979TIP3    H236353   3.854   2.582  14.750  1.6365  1.7919  3.9579
 4980TIP3   OH236354   2.343   4.448  14.405 -0.1345 -0.4384 -0.0931
 4980TIP3    H136355   2.295   4.471  14.326  0.3985 -1.8272 -0.8362
 4980TIP3    H236356   2.276   4.417  14.466 -0.5523  0.7103  0.0547
 4981TIP3   OH236357   4.806   1.483   2.820 -0.1060  0.1645 -0.1565
 4981TIP3    H136358   4.785   1.476   2.913  0.0200  0.9644 -0.0635
 4981TIP3    H236359   4.758   1.560   2.790 -0.3980 -0.2688 -0.8312
 4982TIP3   OH236360   3.040   1.528   1.658 -0.3037  0.1332 -0.3226
 4982TIP3    H136361   2.999   1.577   1.729 -1.7096 -0.3915 -0.7597
 4982TIP3    H236362   2.969   1.476   1.620  1.1141 -2.2546  0.1253
 4983TIP3   OH236363   0.441   6.186  14.861 -0.2631 -0.4117 -0.6932
 4983TIP3    H136364   0.428   6.188  14.767  1.7677 -0.2786 -1.0041
 4983TIP3    H236365   0.450   6.278  14.886 -0.3377 -0.4711 -0.4482
 4984TIP3   OH236366   5.118   0.494  16.437 -0.3907 -0.7375 -0.1679
 4984TIP3    H136367   5.044   0.530  16.389  0.6996  1.5485 -0.1515
 4984TIP3    H236368   5.123   0.403  16.408 -0.6086  0.2198 -3.3132
 4985TIP3   OH236369   3.758   3.670   5.976 -0.1593 -0.2737  0.0709
 4985TIP3    H136370   3.794   3.602   6.033  0.3376  0.4261  0.6113
 4985TIP3    H236371   3.749   3.746   6.033 -1.9949 -0.2618 -0.1774
 4986TIP3   OH236372   3.143   5.156   4.630 -0.0838  0.1308  0.4406
 4986TIP3    H136373   3.069   5.217   4.632 -0.7738 -0.6847  0.4843
 4986TIP3    H236374   3.110   5.078   4.676  0.2789 -0.8127 -0.8631
 4987TIP3   OH236375   0.461   3.006  13.592  0.0138 -0.1267  0.2947
 4987TIP3    H136376   0.516   3.035  13.665  1.8936 -1.8591 -0.3896
 4987TIP3    H236377   0.515   3.021  13.514 -0.7262 -1.2486 -0.4495
 4988TIP3   OH236378   1.321   2.140   2.076 -0.1219 -0.0434 -0.2263
 4988TIP3    H136379   1.311   2.170   1.986  0.7826  0.9870  0.0191
 4988TIP3    H236380   1.289   2.049   2.074  1.6588 -0.6796 -2.0023
 4989TIP3   OH236381   4.738   3.932   4.555 -0.3558  0.0080 -0.3546
 4989TIP3    H136382   4.796   3.911   4.628  0.7130  1.0680 -0.8935
 4989TIP3    H236383   4.790   3.989   4.498 -1.5086 -0.0214 -1.4553
 4990TIP3   OH236384   2.712   0.089   2.549  0.3707 -0.3410  0.0714
 4990TIP3    H136385   2.684   0.094   2.640  0.2773  0.0519  0.0256
 4990TIP3    H236386   2.635   0.119   2.499  0.7424  0.3909 -0.0754
 4991TIP3   OH236387   2.953   1.233   1.087 -0.4413  0.0130 -0.2400
 4991TIP3    H136388   2.880   1.208   1.144  0.8343 -0.5332  1.1831
 4991TIP3    H236389   2.995   1.306   1.132 -1.0095  1.3513 -1.8142
 4992TIP3   OH236390   5.174   2.867  13.714  0.4806 -0.5959 -0.0462
 4992TIP3    H136391   5.171   2.811  13.792 -1.4943 -2.4404 -1.3877
 4992TIP3    H236392   5.264   2.858  13.682  0.7368 -1.4261  0.8761
 4993TIP3   OH236393   1.424   5.716   4.735 -0.2671 -0.2039  0.4131
 4993TIP3    H136394   1.457   5.687   4.820  1.5698  0.3007 -0.1033
 4993TIP3    H236395   1.341   5.761   4.756  1.0334  1.4674  2.1634
 4994TIP3   OH236396   3.996   0.109  12.097  0.1590  0.3852  0.4339
 4994TIP3    H136397   4.030   0.183  12.046 -0.0354  1.2509  1.5305
 4994TIP3    H236398   3.971   0.044  12.031  0.1301  1.3846 -0.5665
 4995TIP3   OH236399   6.081   4.710  10.916 -0.2989 -0.1162 -0.0835
 4995TIP3    H136400   6.122   4.768  10.980 -1.2132  0.5682 -0.1121
 4995TIP3    H236401   6.146   4.642  10.901  1.0732  1.2789 -0.5865
 4996TIP3   OH236402   4.971   1.247   1.525  0.0830 -0.0454  0.2219
 4996TIP3    H136403   4.925   1.327   1.551  2.0108  0.9507  0.5977
 4996TIP3    H236404   5.024   1.272   1.449  0.4835 -1.0302  0.1674
 4997TIP3   OH236405   6.376   5.508  15.289 -0.2793 -0.4850 -0.1034
 4997TIP3    H136406   6.390   5.539  15.199 -0.5599 -1.7900 -0.6103
 4997TIP3    H236407   6.289   5.541  15.312 -0.4163 -0.5635 -0.4983
 4998TIP3   OH236408   6.283   0.419   2.113 -0.2151  0.1609  0.3553
 4998TIP3    H136409   6.284   0.444   2.205 -3.3438 -0.1632  0.5400
 4998TIP3    H236410   6.279   0.502   2.066 -1.5551  0.2718  0.6407
 4999TIP3   OH236411   3.860   4.282  13.937  0.3920  0.5561 -0.0919
 4999TIP3    H136412   3.809   4.241  14.006 -0.8597  0.6325 -0.9624
 4999TIP3    H236413   3.863   4.216  13.867  0.9470  0.7905 -0.2949
 5000TIP3   OH236414   3.650   1.870   4.352  0.1627  0.0912 -0.0329
 5000TIP3    H136415   3.717   1.803   4.367 -0.2758 -0.1808  0.7247
 5000TIP3    H236416   3.615   1.889   4.439 -0.3359  0.6591 -0.3542
 5001TIP3   OH236417   6.119   5.634  15.292 -0.1104  0.2965 -0.3367
 5001TIP3    H136418   6.030   5.644  15.326 -0.7815  0.0465 -1.9901
 5001TIP3    H236419   6.110   5.642  15.197  1.3888 -1.3528 -0.6426
 5002TIP3   OH236420   6.624   2.561   1.723  0.1981 -0.0352  0.3974
 5002TIP3    H136421   6.688   2.552   1.793  0.5876 -0.0562  0.0435
 5002TIP3    H236422   6.649   2.494   1.659 -0.3912 -0.2757  0.4202
 5003TIP3   OH236423   1.794   6.722   4.007 -0.3276 -0.0996 -0.2611
 5003TIP3    H136424   1.769   6.734   4.099  1.2145 -0.0719  0.1794
 5003TIP3    H236425   1.837   6.637   4.005 -0.1271  0.0137 -0.9115
 5004TIP3   OH236426   4.322   1.077  11.605 -0.0329 -0.2234 -0.7619
 5004TIP3    H136427   4.285   1.143  11.546  2.6694  3.0271  1.0100
 5004TIP3    H236428   4.413   1.068  11.578  0.7641 -0.0651  1.7177
 5005TIP3   OH236429   4.592   0.646  11.058 -0.4888 -0.3394  0.1713
 5005TIP3    H136430   4.588   0.740  11.074  1.1535 -0.0144 -1.2079
 5005TIP3    H236431   4.531   0.633  10.985 -0.5150 -0.2961  0.1853
 5006TIP3   OH236432   1.279   6.773   5.176 -0.0348  0.0973 -0.4770
 5006TIP3    H136433   1.288   6.715   5.252  2.2029  0.6971 -0.2632
 5006TIP3    H236434   1.207   6.832   5.199  1.1641  0.8118  1.5467
 5007TIP3   OH236435   2.327   0.634   3.540 -0.1615 -0.1186 -0.2328
 5007TIP3    H136436   2.380   0.561   3.571  2.5270  0.9066 -2.2979
 5007TIP3    H236437   2.336   0.700   3.609  0.9439 -0.1059 -0.3773
 5008TIP3   OH236438   3.271   1.563   1.051 -0.7083 -0.2221  0.2836
 5008TIP3    H136439   3.255   1.469   1.047 -0.5752 -0.2517  0.4390
 5008TIP3    H236440   3.238   1.590   1.137  0.0062 -0.2726  0.5808
 5009TIP3   OH236441   3.564   5.700   6.102  0.1724  0.3691  0.3257
 5009TIP3    H136442   3.494   5.636   6.118  0.7249 -0.5060 -0.7062
 5009TIP3    H236443   3.526   5.761   6.039 -0.3980  1.1333  1.4026
 5010TIP3   OH236444   4.232   4.866  16.584  0.5355 -0.0098 -0.3564
 5010TIP3    H136445   4.213   4.776  16.611 -0.4904  0.4573  0.4736
 5010TIP3    H236446   4.265   4.909  16.664 -0.3607  0.7528 -0.3957
 5011TIP3   OH236447   6.652   6.403  13.911  0.1208 -0.3218  0.1444
 5011TIP3    H136448   6.595   6.341  13.866 -3.1209  1.8224  1.1384
 5011TIP3    H236449   6.627   6.489  13.877 -0.3405  1.0604  3.6726
 5012TIP3   OH236450   6.235   6.453   3.365 -0.9651 -0.7200 -0.3917
 5012TIP3    H136451   6.198   6.522   3.420  1.4867  1.4165 -1.3091
 5012TIP3    H236452   6.166   6.432   3.303 -1.9174  0.5935  0.2048
 5013TIP3   OH236453   5.595   1.649  14.402  0.4243 -0.9104 -0.7520
 5013TIP3    H136454   5.599   1.559  14.434  0.4566 -0.2797  1.0736
 5013TIP3    H236455   5.685   1.670  14.378 -0.1039 -2.4394 -4.3295
 5014TIP3   OH236456   0.037   5.443  15.382  0.7353  0.1057 -0.0582
 5014TIP3    H136457  -0.021   5.435  15.306  0.0828 -0.8488  0.5310
 5014TIP3    H236458   0.002   5.518  15.431 -0.2087 -0.6550  0.4562
 5015TIP3   OH236459   5.409   2.721   0.999  0.5223  0.1392  0.3928
 5015TIP3    H136460   5.423   2.650   0.936 -2.3207  0.1379 -0.3190
 5015TIP3    H236461   5.398   2.677   1.083 -1.0486 -0.2558 -0.0148
 5016TIP3   OH236462   4.452   2.543  15.799  0.9356  0.0053  0.9424
 5016TIP3    H136463   4.468   2.494  15.718 -0.0106  0.1380  0.6675
 5016TIP3    H236464   4.365   2.514  15.828  0.1612  1.8619  0.5190
 5017TIP3   OH236465   3.285   4.943  14.209 -0.4957  0.1645  0.1570
 5017TIP3    H136466   3.263   4.936  14.116  1.2918  0.8747 -0.3308
 5017TIP3    H236467   3.377   4.917  14.214 -0.8962 -0.9822  1.9017
 5018TIP3   OH236468   3.644   5.343   2.386  0.1650 -0.1476 -0.1282
 5018TIP3    H136469   3.613   5.412   2.328 -1.3604  0.6469  1.6010
 5018TIP3    H236470   3.570   5.283   2.394  0.5804 -0.5914  0.4752
 5019TIP3   OH236471   1.432   1.805   0.081 -0.8485  0.1630 -0.5132
 5019TIP3    H136472   1.500   1.758   0.033  0.4440  0.5253  0.9148
 5019TIP3    H236473   1.442   1.896   0.054  0.3444  0.4833  0.9140
 5020TIP3   OH236474   0.265   1.793  11.794 -0.5608 -0.0683  0.0687
 5020TIP3    H136475   0.322   1.735  11.844 -1.2237 -0.3269  0.5395
 5020TIP3    H236476   0.254   1.749  11.710  0.3698  0.2524 -0.2261
 5021TIP3   OH236477   2.611   4.296  10.517  0.1948  0.7186  0.0865
 5021TIP3    H136478   2.650   4.209  10.513 -0.4743  0.2704  2.4696
 5021TIP3    H236479   2.542   4.295  10.451 -2.6133 -2.0737  2.9052
 5022TIP3   OH236480   3.604   0.713  11.908 -0.1394  0.0162 -0.5317
 5022TIP3    H136481   3.554   0.788  11.941  0.7969  0.8250 -0.9458
 5022TIP3    H236482   3.550   0.637  11.931 -1.8637  0.9168 -1.5300
 5023TIP3   OH236483   5.329   3.300   2.552  0.6674 -0.1851 -0.2788
 5023TIP3    H136484   5.284   3.221   2.522 -0.1392  0.5104 -0.9457
 5023TIP3    H236485   5.258   3.358   2.581  1.1676  0.6765 -0.7413
 5024TIP3   OH236486   1.371   5.339   5.616 -0.3920 -0.0777  0.1862
 5024TIP3    H136487   1.375   5.395   5.538 -1.9546  0.2489  0.3170
 5024TIP3    H236488   1.323   5.392   5.680  2.4866  0.3907  2.0147
 5025TIP3   OH236489   6.086   5.909  16.684 -0.2577  0.4080 -0.5800
 5025TIP3    H136490   6.061   5.827  16.642 -0.3105 -0.5072  1.2120
 5025TIP3    H236491   6.059   5.899  16.775  1.0069  1.8573 -0.0180
 5026TIP3   OH236492   5.985   6.305  17.119 -0.2542 -0.6290  0.4358
 5026TIP3    H136493   6.052   6.368  17.093 -1.9703  0.6581 -0.9512
 5026TIP3    H236494   5.996   6.296  17.214  0.8776  0.7419  0.4468
 5027TIP3   OH236495   1.070   6.501  17.062 -0.1482 -0.0516 -0.4269
 5027TIP3    H136496   1.064   6.438  16.990  1.3945  1.4091 -1.8821
 5027TIP3    H236497   1.152   6.479  17.106  0.9564  1.5817 -1.6111
 5028TIP3   OH236498   2.832   1.532  16.478 -0.2147  0.4563 -0.9977
 5028TIP3    H136499   2.837   1.551  16.384 -1.7105  1.1292 -0.9554
 5028TIP3    H236500   2.744   1.496  16.490 -0.0757  0.5132  0.1644
 5029TIP3   OH236501   5.336   4.522  16.398 -0.6887 -0.2145 -0.1306
 5029TIP3    H136502   5.400   4.573  16.447 -0.5524 -1.4215  0.9903
 5029TIP3    H236503   5.268   4.585  16.374  0.9764  1.1035 -1.4520
 5030TIP3   OH236504   1.831   1.055  11.689 -0.2365  0.0983  0.0026
 5030TIP3    H136505   1.899   1.114  11.656 -0.5909  1.1068  1.0368
 5030TIP3    H236506   1.758   1.113  11.712 -0.8215 -0.8088  0.4537
 5031TIP3   OH236507   0.923   5.940   3.760 -0.3815  0.4342  0.6766
 5031TIP3    H136508   0.944   5.917   3.851 -0.6240  1.1127  0.9085
 5031TIP3    H236509   0.894   5.858   3.721 -0.8079  0.2466  1.3732
 5032TIP3   OH236510   6.547   3.024  11.277 -0.1099 -0.2280 -0.0231
 5032TIP3    H136511   6.515   2.970  11.350 -0.3844  1.2790  1.0057
 5032TIP3    H236512   6.477   3.019  11.212 -1.0933  0.5547  0.9405
 5033TIP3   OH236513   4.786   1.252   5.869  0.2748 -0.4706  0.0002
 5033TIP3    H136514   4.857   1.275   5.928 -1.2262  2.4533  0.7740
 5033TIP3    H236515   4.761   1.163   5.895  0.5739  0.2221  2.8118
 5034TIP3   OH236516   5.422   2.182   0.953  0.2777 -0.0620  0.6424
 5034TIP3    H136517   5.410   2.103   1.005 -0.7845  0.6663  1.5308
 5034TIP3    H236518   5.401   2.254   1.013 -0.5499  0.8049 -0.6637
 5035TIP3   OH236519   0.354   0.635  15.701  0.1334 -0.3838 -0.1799
 5035TIP3    H136520   0.421   0.580  15.661  1.0902 -0.1462  1.0503
 5035TIP3    H236521   0.400   0.715  15.724 -1.0417  0.5696 -1.1157
 5036TIP3   OH236522   0.951   6.567  13.629  0.0167  0.1357  0.1335
 5036TIP3    H136523   1.029   6.540  13.582 -0.6992 -1.9786  0.1151
 5036TIP3    H236524   0.888   6.591  13.560 -0.3150 -0.9141  0.0719
 5037TIP3   OH236525   6.046   3.961  17.018 -0.1369 -0.0142  0.3395
 5037TIP3    H136526   6.015   3.904  17.088 -1.5749 -0.1984 -0.4161
 5037TIP3    H236527   5.979   3.953  16.950 -0.1469  2.1988  0.0387
 5038TIP3   OH236528   1.882   5.417  16.673 -0.3687 -0.4277  0.1998
 5038TIP3    H136529   1.931   5.378  16.600 -2.7578 -0.0322 -1.6947
 5038TIP3    H236530   1.936   5.490  16.702  0.1948 -0.0217 -1.8096
 5039TIP3   OH236531   0.981   3.953  11.916  0.2657 -0.4021 -0.2468
 5039TIP3    H136532   0.992   4.015  11.844 -1.1429  0.6719  0.4370
 5039TIP3    H236533   1.002   3.868  11.877 -1.7336 -0.0151 -2.3185
 5040TIP3   OH236534   4.967   0.781   4.549 -0.2563  0.2942 -0.2714
 5040TIP3    H136535   5.059   0.806   4.546 -0.3210  0.7281  0.9882
 5040TIP3    H236536   4.920   0.864   4.549 -0.7040  0.0503 -2.3259
 5041TIP3   OH236537   4.176   3.703   0.422 -0.1687 -0.1178  0.2076
 5041TIP3    H136538   4.260   3.721   0.465 -0.7675 -1.4945  2.0316
 5041TIP3    H236539   4.189   3.617   0.381 -0.1874  0.3791 -0.8534
 5042TIP3   OH236540   1.393   0.529   0.137  0.0532  0.2293 -0.1079
 5042TIP3    H136541   1.366   0.443   0.105 -0.7252  0.1813  0.6407
 5042TIP3    H236542   1.441   0.510   0.218 -1.2078  0.5670  0.7304
 5043TIP3   OH236543   4.195   2.698   6.217 -0.7393 -0.5589  0.3293
 5043TIP3    H136544   4.236   2.616   6.190 -2.9941 -1.2136 -1.2620
 5043TIP3    H236545   4.110   2.697   6.174 -0.8264  2.5938  0.3145
 5044TIP3   OH236546   1.042   0.568   1.886  0.2755  1.1272  0.1242
 5044TIP3    H136547   1.050   0.489   1.939  0.1321  1.7890  1.1444
 5044TIP3    H236548   0.979   0.545   1.818  2.7720 -0.7415 -1.6750
 5045TIP3   OH236549   5.261   6.395  16.396  0.0576  0.9716 -0.1580
 5045TIP3    H136550   5.215   6.311  16.392  1.7215  0.0116  0.4184
 5045TIP3    H236551   5.338   6.383  16.341  1.0513  1.6447  1.0530
 5046TIP3   OH236552   0.619   4.963   3.351  0.2697 -0.0646  0.2168
 5046TIP3    H136553   0.579   4.891   3.399 -1.3817  0.6920  0.0102
 5046TIP3    H236554   0.583   4.957   3.263  0.1812  0.9348  0.1754
 5047TIP3   OH236555   6.700   5.842  12.915  0.4655 -0.0267 -0.3516
 5047TIP3    H136556   6.714   5.845  12.821  0.4878  0.9082 -0.3138
 5047TIP3    H236557   6.739   5.922  12.949 -0.2263  0.0240  0.3589
 5048TIP3   OH236558   3.551   6.348  11.542  0.1030  0.4954 -0.0496
 5048TIP3    H136559   3.475   6.373  11.595  0.5345 -0.2246  0.9159
 5048TIP3    H236560   3.627   6.372  11.596  0.5480  0.0891 -0.4909
 5049TIP3   OH236561   6.145   5.865  14.484 -0.1589 -0.0504  0.5675
 5049TIP3    H136562   6.121   5.943  14.433 -0.3034 -1.0639 -0.9252
 5049TIP3    H236563   6.240   5.874  14.496  0.1460 -0.6269 -1.2979
 5050TIP3   OH236564   5.559   1.943   0.019 -0.0696 -0.0775 -0.4166
 5050TIP3    H136565   5.486   1.995  -0.016 -0.5339 -0.4081  0.0445
 5050TIP3    H236566   5.523   1.903   0.098  1.2583  1.3562  0.9268
 5051TIP3   OH236567   2.927   1.670   0.050 -0.2833 -0.2406 -0.6370
 5051TIP3    H136568   3.015   1.700   0.029 -0.1555  1.4638  2.1500
 5051TIP3    H236569   2.920   1.680   0.144 -3.0764 -1.4872 -0.6618
 5052TIP3   OH236570   1.169   6.031  11.375 -0.8591  0.1289  0.3202
 5052TIP3    H136571   1.076   6.022  11.396 -0.9041 -2.0120 -0.6068
 5052TIP3    H236572   1.170   6.058  11.283 -0.5706 -0.4057  0.1631
 5053TIP3   OH236573   2.438   6.510   2.921  0.0557  0.6982  0.0642
 5053TIP3    H136574   2.369   6.466   2.971  1.6305 -0.9901  0.8148
 5053TIP3    H236575   2.458   6.450   2.850 -0.1689  1.7965 -0.9432
 5054TIP3   OH236576   4.104   4.166   5.772  0.0470 -0.3799  0.0582
 5054TIP3    H136577   4.150   4.082   5.776 -1.8384 -1.3651  1.9128
 5054TIP3    H236578   4.157   4.225   5.826  1.2507 -0.4038 -1.0622
 5055TIP3   OH236579   2.519   4.788   5.670  0.4158  0.5983 -1.0951
 5055TIP3    H136580   2.549   4.863   5.722  1.5784  0.4031 -1.4706
 5055TIP3    H236581   2.493   4.825   5.587  1.0136  0.5942 -1.2888
 5056TIP3   OH236582   1.137   4.605  15.702  0.6455 -0.0537 -0.4325
 5056TIP3    H136583   1.120   4.659  15.779 -0.3427 -0.0114 -0.6758
 5056TIP3    H236584   1.064   4.544  15.699  2.0191 -1.7639  0.1407
 5057TIP3   OH236585   1.892   1.683   4.706 -0.1493  0.1367 -0.1561
 5057TIP3    H136586   1.799   1.674   4.727  0.2452 -1.9992  0.7505
 5057TIP3    H236587   1.896   1.673   4.611 -0.6368 -1.8084  0.0117
 5058TIP3   OH236588   1.542   5.320   2.696  0.0505 -0.0574  0.1669
 5058TIP3    H136589   1.482   5.265   2.746 -0.9408  0.9580  0.1072
 5058TIP3    H236590   1.598   5.258   2.650 -1.9980 -1.0599 -1.0518
 5059TIP3   OH236591   6.244   4.769  11.814  1.3404 -0.0789 -0.7184
 5059TIP3    H136592   6.278   4.837  11.872  1.4665 -0.5267 -0.2558
 5059TIP3    H236593   6.219   4.698  11.874  2.2921 -0.8949 -1.2762
 5060TIP3   OH236594   5.351   4.566  12.264 -0.6373 -0.4636  0.2444
 5060TIP3    H136595   5.391   4.510  12.198 -3.5477 -0.2099 -1.8617
 5060TIP3    H236596   5.307   4.505  12.324 -2.2721 -0.5510 -1.0087
 5061TIP3   OH236597   2.342   0.885   2.105  0.2533  0.3091 -0.3755
 5061TIP3    H136598   2.374   0.926   2.185  0.1915  0.7561 -0.5771
 5061TIP3    H236599   2.408   0.819   2.084  0.0653 -0.0936  0.2655
 5062TIP3   OH236600   4.309   6.454   5.265 -0.0700  0.6848 -0.1119
 5062TIP3    H136601   4.311   6.465   5.360  1.1487  2.7552 -0.3274
 5062TIP3    H236602   4.273   6.536   5.232  0.9452  0.6015 -1.4931
 5063TIP3   OH236603   5.212   3.585   4.416  0.6589 -0.1879 -0.1486
 5063TIP3    H136604   5.221   3.493   4.389  0.6483  0.3897 -2.1989
 5063TIP3    H236605   5.263   3.634   4.351  1.8143  1.1622  1.7304
 5064TIP3   OH236606   2.579   3.431   5.200  0.2072 -0.6118  0.2298
 5064TIP3    H136607   2.639   3.360   5.225  1.5576  0.6084  0.5328
 5064TIP3    H236608   2.563   3.417   5.107  1.9511 -0.2738 -0.1549
 5065TIP3   OH236609   2.645   4.805  15.681  0.8662 -0.4042 -0.2737
 5065TIP3    H136610   2.723   4.861  15.677  1.1689 -0.8734 -1.1299
 5065TIP3    H236611   2.577   4.855  15.637  0.3808  0.4749  1.4538
 5066TIP3   OH236612   3.764   2.082   3.727  0.1236 -0.4740  0.0523
 5066TIP3    H136613   3.732   2.090   3.817  0.3505 -1.1309  0.2005
 5066TIP3    H236614   3.753   2.169   3.689 -0.4858 -0.3325  0.5480
 5067TIP3   OH236615   3.773   0.995   0.546  0.4634  0.8609 -0.0447
 5067TIP3    H136616   3.793   0.902   0.537  1.2477  1.0027  0.2186
 5067TIP3    H236617   3.725   1.018   0.466  0.3649  0.2577 -0.1554
 5068TIP3   OH236618   2.314   3.876   5.921 -0.1613 -0.1344 -0.7230
 5068TIP3    H136619   2.380   3.874   5.990  0.1843  1.7482 -0.9663
 5068TIP3    H236620   2.231   3.868   5.968  0.1103  0.2560 -0.1650
 5069TIP3   OH236621   4.459   3.555  10.990  0.5730 -0.0140 -0.2278
 5069TIP3    H136622   4.527   3.615  10.961  1.2646 -0.1445  1.0739
 5069TIP3    H236623   4.485   3.530  11.079 -2.1134  1.3710  1.0094
 5070TIP3   OH236624   2.458   4.532  16.098  0.5270  0.7852  0.0932
 5070TIP3    H136625   2.500   4.590  16.034 -1.2136  1.5348 -0.4190
 5070TIP3    H236626   2.438   4.589  16.172  0.6956  0.3751  0.4532
 5071TIP3   OH236627   0.697   4.437  12.647  0.0564 -0.0153 -0.0985
 5071TIP3    H136628   0.704   4.513  12.589 -0.1079 -0.3838 -0.6101
 5071TIP3    H236629   0.723   4.363  12.592 -0.0206 -0.3556  0.3246
 5072TIP3   OH236630   5.667   5.043  12.765 -0.2927 -0.3039 -0.1226
 5072TIP3    H136631   5.675   4.961  12.717 -0.0493 -0.0909 -0.4532
 5072TIP3    H236632   5.684   5.021  12.856 -1.4041 -0.8336 -0.0375
 5073TIP3   OH236633   1.493   5.970   0.577  0.5391 -0.0988 -0.0217
 5073TIP3    H136634   1.518   6.014   0.659  2.0018  0.5899 -0.8189
 5073TIP3    H236635   1.443   5.893   0.606 -0.7896  1.2635  1.4520
 5074TIP3   OH236636   0.173   3.955   1.519  0.1408  0.5216 -0.2962
 5074TIP3    H136637   0.091   3.962   1.569 -0.7341  0.5615 -1.7121
 5074TIP3    H236638   0.153   3.892   1.450  1.5469 -0.0381 -0.2078
 5075TIP3   OH236639   4.974   4.895  15.037  0.0500  0.0096  0.0437
 5075TIP3    H136640   5.059   4.938  15.033  0.5479 -0.6821  2.1782
 5075TIP3    H236641   4.982   4.820  14.978  2.3282 -2.3204  3.1503
 5076TIP3   OH236642   5.281   5.504   3.270  0.5200 -0.3170 -0.3211
 5076TIP3    H136643   5.269   5.432   3.207 -2.7840 -0.4148  0.3335
 5076TIP3    H236644   5.277   5.461   3.355  0.0525  0.4748  0.0517
 5077TIP3   OH236645   5.460   6.592  15.315  0.2510 -0.5036  0.3189
 5077TIP3    H136646   5.528   6.537  15.277 -0.2004 -2.5266  2.2956
 5077TIP3    H236647   5.398   6.530  15.354 -1.8430  1.3400  0.0315
 5078TIP3   OH236648   5.554   5.348  11.500  0.7832  0.3467 -0.0940
 5078TIP3    H136649   5.536   5.254  11.510 -0.0412  0.6353  1.2160
 5078TIP3    H236650   5.571   5.379  11.589  1.0543  1.4415 -0.5192
 5079TIP3   OH236651   3.802   4.315  12.154  0.5804 -0.0221  0.1766
 5079TIP3    H136652   3.871   4.382  12.155 -1.1517  2.0007 -3.6563
 5079TIP3    H236653   3.836   4.247  12.096  0.4314 -0.2356  0.3432
 5080TIP3   OH236654   5.651   0.512  11.444 -0.2429 -0.2843 -0.0708
 5080TIP3    H136655   5.614   0.433  11.403 -0.9297  0.6329 -1.2628
 5080TIP3    H236656   5.575   0.567  11.464  0.1674 -0.3051  1.5876
 5081TIP3   OH236657   1.941   5.760  12.217 -0.3685 -0.5343 -0.3488
 5081TIP3    H136658   1.900   5.706  12.149  0.1254 -0.2460 -0.8819
 5081TIP3    H236659   1.906   5.847  12.202  2.3259  0.2801 -2.4349
 5082TIP3   OH236660   1.647   6.004   1.520 -0.5798  0.3280 -0.3924
 5082TIP3    H136661   1.679   6.031   1.434  0.7793  0.8486  0.2581
 5082TIP3    H236662   1.666   5.911   1.525  3.2973  1.1007  0.9836
 5083TIP3   OH236663   4.199   1.222   0.467  0.4220  0.0322  0.9852
 5083TIP3    H136664   4.176   1.277   0.542 -0.1914  1.6113 -0.3434
 5083TIP3    H236665   4.240   1.282   0.405  2.4620 -1.5824  0.7245
 5084TIP3   OH236666   5.423   3.689   0.227  0.2127  0.0523  0.3279
 5084TIP3    H136667   5.354   3.646   0.277  0.6895  0.4459  1.3343
 5084TIP3    H236668   5.493   3.706   0.290  0.5150  1.2500 -0.2912
 5085TIP3   OH236669   6.470   4.885  14.967 -0.9038  0.0897  0.0998
 5085TIP3    H136670   6.435   4.803  15.002  1.6347 -1.6428 -1.1977
 5085TIP3    H236671   6.500   4.862  14.879 -0.3692  2.4962 -0.3870
 5086TIP3   OH236672   6.151   4.558  14.405 -0.8773 -0.4923 -0.0279
 5086TIP3    H136673   6.245   4.563  14.393 -0.9973 -0.7621 -1.1581
 5086TIP3    H236674   6.115   4.580  14.319 -1.8552  0.1352  0.5250
 5087TIP3   OH236675   5.913   4.293  17.236  0.5688  0.1065 -0.0390
 5087TIP3    H136676   5.856   4.228  17.194  1.7663 -0.9713 -0.0218
 5087TIP3    H236677   5.963   4.243  17.300 -0.1094  1.4598  1.5738
 5088TIP3   OH236678   3.573   2.718  13.616  0.0018  0.1970 -0.2206
 5088TIP3    H136679   3.503   2.776  13.586 -1.9177 -2.1805 -0.5515
 5088TIP3    H236680   3.572   2.727  13.711 -2.2585 -1.3788 -0.0421
 5089TIP3   OH236681   0.272   6.776  12.762 -0.4422  0.4177 -0.2784
 5089TIP3    H136682   0.303   6.707  12.704 -1.7904 -1.4662  1.1684
 5089TIP3    H236683   0.195   6.812  12.719  1.1603  2.1061 -1.7791
 5090TIP3   OH236684   1.913   3.072   2.220  0.2895 -0.1578  0.0062
 5090TIP3    H136685   1.851   2.999   2.224 -1.5227  1.2491 -1.6772
 5090TIP3    H236686   1.992   3.038   2.262 -1.3453 -2.2478  1.5357
 5091TIP3   OH236687   6.203   2.349   4.528 -0.1988 -0.5003  0.2127
 5091TIP3    H136688   6.248   2.279   4.575  1.0507  1.1964  1.5978
 5091TIP3    H236689   6.254   2.361   4.448 -0.7649 -1.5555 -0.3202
 5092TIP3   OH236690   4.487   5.465  12.701 -0.3688  0.1340 -0.4656
 5092TIP3    H136691   4.426   5.496  12.767  2.0406  0.2773  1.7605
 5092TIP3    H236692   4.519   5.544  12.658 -1.3260  0.0894 -1.2788
 5093TIP3   OH236693   4.177   0.173   6.152  0.0169  0.5057 -0.1348
 5093TIP3    H136694   4.151   0.233   6.082  0.2944  0.5747 -0.1821
 5093TIP3    H236695   4.095   0.146   6.193 -0.0694  1.6330  0.4767
 5094TIP3   OH236696   6.660   4.809  12.376 -0.0401  0.0785  0.0535
 5094TIP3    H136697   6.663   4.714  12.384 -0.2024  0.0493 -0.2274
 5094TIP3    H236698   6.623   4.839  12.458  1.5928  0.0056  0.8424
 5095TIP3   OH236699   3.068   2.448  15.322  0.1629  0.7038  0.1886
 5095TIP3    H136700   3.037   2.433  15.411  0.5967  0.1662  0.2478
 5095TIP3    H236701   2.989   2.474  15.274 -0.5527 -1.3714  0.1717
 5096TIP3   OH236702   5.598   2.459   5.385 -0.3085  0.1343  0.7036
 5096TIP3    H136703   5.621   2.471   5.477 -0.9679  1.0642  0.7497
 5096TIP3    H236704   5.613   2.544   5.344  0.7657 -0.4877 -0.2328
 5097TIP3   OH236705   1.092   4.449  13.926  0.2186  0.1304  0.4193
 5097TIP3    H136706   1.084   4.518  13.860 -0.1420 -1.1333 -0.8964
 5097TIP3    H236707   1.185   4.446  13.946  0.4231  0.1281 -0.4863
 5098TIP3   OH236708   0.120   1.971   6.054 -0.0787  0.4646 -0.3109
 5098TIP3    H136709   0.099   2.052   6.100 -0.4833  0.0514  0.2502
 5098TIP3    H236710   0.039   1.920   6.057 -0.8469  1.4123 -3.6172
 5099TIP3   OH236711   3.042   3.700   5.095 -1.2369  0.1882 -0.2962
 5099TIP3    H136712   3.131   3.666   5.099 -1.4236 -0.5545 -1.8573
 5099TIP3    H236713   3.039   3.768   5.162  0.3338 -0.1542  0.1458
 5100TIP3   OH236714   2.988   5.050   1.478  0.4329 -0.1512  0.1703
 5100TIP3    H136715   3.069   5.028   1.432 -0.0939 -0.6416 -0.5333
 5100TIP3    H236716   3.004   5.136   1.515  0.7643  0.3937 -1.2081
 5101TIP3   OH236717   3.845   2.955  16.438  0.2020 -0.2751  0.1398
 5101TIP3    H136718   3.920   3.011  16.421 -0.5773  0.1001 -2.2105
 5101TIP3    H236719   3.859   2.878  16.383 -0.3543 -0.9376  0.9038
 5102TIP3   OH236720   1.777   1.810  16.041  0.2927 -0.2106 -0.5484
 5102TIP3    H136721   1.716   1.774  15.976 -0.8528 -0.7606  0.8172
 5102TIP3    H236722   1.836   1.737  16.061 -0.1070 -0.4130 -0.0884
 5103TIP3   OH236723   4.488   0.615   2.228 -0.3102 -0.0335 -0.3194
 5103TIP3    H136724   4.501   0.695   2.178 -0.9491 -0.6973 -1.5789
 5103TIP3    H236725   4.444   0.644   2.308 -0.3750  0.8953 -0.6856
 5104TIP3   OH236726   3.462   6.564   1.731 -0.2118 -0.0130  0.3092
 5104TIP3    H136727   3.556   6.564   1.745 -0.0726  1.3655 -0.6049
 5104TIP3    H236728   3.427   6.622   1.799 -0.3902 -0.4222  0.5686
 5105TIP3   OH236729   6.392   2.985  13.570 -0.2794 -0.1479  0.2498
 5105TIP3    H136730   6.376   3.078  13.585  0.7912 -0.0144  0.5997
 5105TIP3    H236731   6.474   2.982  13.521  0.8634 -0.9941  2.1568
 5106TIP3   OH236732   0.470   5.762  14.906 -0.3691 -0.1245  0.1533
 5106TIP3    H136733   0.525   5.839  14.897 -0.1421 -0.2156  0.7692
 5106TIP3    H236734   0.506   5.700  14.842 -0.7025  0.3651 -0.5089
 5107TIP3   OH236735   2.734   5.747   6.103 -0.4171  0.8691 -0.7030
 5107TIP3    H136736   2.667   5.736   6.170 -1.4002  0.5209 -1.7333
 5107TIP3    H236737   2.808   5.786   6.149 -1.2309  1.0038  0.4958
 5108TIP3   OH236738   5.866   6.724  12.523  0.3994  0.4495  0.2038
 5108TIP3    H136739   5.854   6.720  12.618 -0.9486 -1.0638 -0.0185
 5108TIP3    H236740   5.790   6.773  12.491  1.3860  1.8809 -0.0229
 5109TIP3   OH236741   1.839   4.132  16.984  0.3760  0.2280  0.5265
 5109TIP3    H136742   1.930   4.129  16.957  0.9142 -0.9086  2.3288
 5109TIP3    H236743   1.814   4.040  16.995 -1.2005  0.5050 -0.6417
 5110TIP3   OH236744   5.774   1.289   2.107  0.7133  0.1549  0.2755
 5110TIP3    H136745   5.694   1.247   2.140  0.6412  0.2520  0.2258
 5110TIP3    H236746   5.742   1.366   2.060  0.8561  0.3445  0.4898
 5111TIP3   OH236747   3.011   2.124   5.902  0.5548  0.2403 -0.3622
 5111TIP3    H136748   2.922   2.152   5.925  0.1894 -0.1984 -1.2178
 5111TIP3    H236749   3.057   2.117   5.986 -0.0238  1.1194  0.0346
 5112TIP3   OH236750   5.673   4.150   4.010 -0.3715  0.3834 -0.3968
 5112TIP3    H136751   5.683   4.199   4.092 -0.2048 -0.8199  0.3075
 5112TIP3    H236752   5.758   4.160   3.966 -0.1221  0.2083  0.0405
 5113TIP3   OH236753   0.118   5.991   0.461  0.0876 -0.6490  0.0742
 5113TIP3    H136754   0.075   5.910   0.488  0.3883  0.3597  3.7755
 5113TIP3    H236755   0.055   6.060   0.480  1.4286  0.3834  0.8671
 5114TIP3   OH236756   0.648   4.821  11.126 -0.2915  0.0364  0.3188
 5114TIP3    H136757   0.691   4.899  11.090 -1.0288  1.2625  2.0350
 5114TIP3    H236758   0.555   4.836  11.111 -0.3509 -1.2354 -0.6988
 5115TIP3   OH236759   6.268   6.381  15.439  0.6182 -0.2979 -0.5873
 5115TIP3    H136760   6.324   6.441  15.390  0.2805  1.6414  1.2685
 5115TIP3    H236761   6.301   6.386  15.529 -0.0925 -2.1119 -0.2192
 5116TIP3   OH236762   6.168   3.466   1.852 -0.3949  0.1859 -0.9002
 5116TIP3    H136763   6.146   3.414   1.929 -1.6672  1.0847 -0.6241
 5116TIP3    H236764   6.255   3.502   1.871  0.7265 -2.2508 -1.3488
 5117TIP3   OH236765   3.538   0.929  15.046 -0.2498  0.4110  0.0875
 5117TIP3    H136766   3.459   0.966  15.085 -0.3878  1.9226 -1.5478
 5117TIP3    H236767   3.564   0.993  14.979  2.5800  0.1296  0.8418
 5118TIP3   OH236768   4.994   0.325  12.646 -0.3320  0.6596  0.2279
 5118TIP3    H136769   5.016   0.315  12.739 -0.9250 -0.3980  0.2625
 5118TIP3    H236770   5.013   0.416  12.626 -0.0580  0.8501  1.3591
 5119TIP3   OH236771   0.363   2.148  13.843 -0.1169 -0.7971  0.0864
 5119TIP3    H136772   0.416   2.197  13.906  0.4420 -1.6153  0.2532
 5119TIP3    H236773   0.384   2.188  13.758 -0.8487  0.2859  0.4038
 5120TIP3   OH236774   0.107   5.828  16.861 -0.5073  0.3076 -0.4739
 5120TIP3    H136775   0.055   5.905  16.881 -1.0468 -0.2234  0.1891
 5120TIP3    H236776   0.104   5.821  16.765 -4.4527 -1.6357 -0.2900
 5121TIP3   OH236777   3.048   6.294  11.847  0.1592  0.2980  0.2444
 5121TIP3    H136778   3.132   6.250  11.833  0.6913  0.6079  2.3531
 5121TIP3    H236779   3.068   6.387  11.837 -0.1099  0.3325  0.0050
 5122TIP3   OH236780   0.111   6.317  12.064  0.1036  0.7326 -0.0255
 5122TIP3    H136781   0.120   6.348  11.973 -0.9044  0.2823 -0.2859
 5122TIP3    H236782   0.156   6.233  12.065  0.1256  0.7427 -0.1017
 5123TIP3   OH236783   1.289   0.019  12.832  0.2126  0.7939  0.2306
 5123TIP3    H136784   1.224   0.079  12.794 -0.9961  0.1517  1.2613
 5123TIP3    H236785   1.355   0.077  12.870 -0.4247  1.4760  0.3161
 5124TIP3   OH236786   6.282   3.037   1.389 -0.1547  0.5931 -0.3198
 5124TIP3    H136787   6.240   3.098   1.327 -0.2845 -0.9537 -1.7861
 5124TIP3    H236788   6.225   3.039   1.466 -0.4926  1.8639 -0.5764
 5125TIP3   OH236789   2.318   1.539   6.704 -0.1074  0.1080  0.0793
 5125TIP3    H136790   2.307   1.630   6.732 -0.6155 -0.2017  0.9157
 5125TIP3    H236791   2.325   1.490   6.785  0.9388 -0.5145 -0.3822
 5126TIP3   OH236792   2.054   4.004   5.572 -0.4836  0.0764  0.2504
 5126TIP3    H136793   2.112   3.993   5.497 -0.6843 -1.3852  0.2913
 5126TIP3    H236794   2.017   3.917   5.587 -1.6664  0.6954  1.0570
 5127TIP3   OH236795   5.827   6.117  11.855 -0.3204  0.4313  0.3077
 5127TIP3    H136796   5.798   6.028  11.830 -1.0651  0.8307 -0.2855
 5127TIP3    H236797   5.746   6.169  11.854  0.0800  1.0627  0.8950
 5128TIP3   OH236798   0.473   5.689  15.173  0.2057 -0.1245 -0.1775
 5128TIP3    H136799   0.537   5.757  15.192  2.6080 -2.2382 -0.4024
 5128TIP3    H236800   0.456   5.696  15.079 -0.6207  1.0362  0.0538
 5129TIP3   OH236801   1.352   3.221   0.142  0.1284  0.0346  0.0164
 5129TIP3    H136802   1.385   3.292   0.086  1.3246  0.8172  1.6453
 5129TIP3    H236803   1.344   3.146   0.083  1.9079  0.6660 -1.0950
 5130TIP3   OH236804   6.540   3.772  14.270 -0.0958  0.1655  0.7989
 5130TIP3    H136805   6.527   3.858  14.231  1.5933  1.4574  2.9783
 5130TIP3    H236806   6.464   3.760  14.328 -0.5455 -0.0126  0.1792
 5131TIP3   OH236807   5.340   4.627   5.658 -0.1520 -0.0749 -0.3962
 5131TIP3    H136808   5.388   4.710   5.665  0.7009 -0.5172 -0.8743
 5131TIP3    H236809   5.398   4.571   5.606 -1.4809 -0.4167 -1.5198
 5132TIP3   OH236810   5.076   6.128   2.795 -0.2603 -0.2823  0.3700
 5132TIP3    H136811   5.083   6.223   2.805 -0.2113 -0.2758  0.2820
 5132TIP3    H236812   4.982   6.111   2.794 -0.2670 -0.3091  1.0685
 5133TIP3   OH236813   5.117   5.358  14.659 -0.3342 -0.5409 -0.2850
 5133TIP3    H136814   5.064   5.425  14.617  0.0563 -0.5909 -0.8568
 5133TIP3    H236815   5.187   5.406  14.703  0.3811 -0.6192 -1.3229
 5134TIP3   OH236816   3.380   2.784  12.923 -0.7352  0.3222 -0.4310
 5134TIP3    H136817   3.333   2.753  13.001 -3.1623 -0.4193 -2.1251
 5134TIP3    H236818   3.437   2.711  12.899  0.1830  0.6360  0.7610
 5135TIP3   OH236819   5.963   1.846   3.557  0.2953 -0.0148  0.4160
 5135TIP3    H136820   6.040   1.815   3.509 -0.7256 -0.4070 -1.0116
 5135TIP3    H236821   5.953   1.783   3.629  1.3406  0.0778  0.6544
 5136TIP3   OH236822   1.550   2.813   0.227  0.4456  0.2936  0.2301
 5136TIP3    H136823   1.492   2.889   0.231 -0.0771 -0.1180  0.4954
 5136TIP3    H236824   1.592   2.811   0.313  0.6667  0.4446  0.1257
 5137TIP3   OH236825   3.453   6.466   2.117  0.0985 -0.0059 -0.1972
 5137TIP3    H136826   3.542   6.434   2.104  0.6001  1.2065  0.2401
 5137TIP3    H236827   3.456   6.559   2.095 -0.9219  0.1711  0.3528
 5138TIP3   OH236828   6.733   5.044  16.150 -0.5878 -0.2929  0.0401
 5138TIP3    H136829   6.660   5.021  16.091 -0.8693  0.1307  0.2191
 5138TIP3    H236830   6.809   4.999  16.113 -0.2314  1.9075 -2.0680
 5139TIP3   OH236831   1.325   4.163   3.950  0.2373 -0.4896  0.1527
 5139TIP3    H136832   1.300   4.087   3.898 -1.7124 -1.6408  2.6500
 5139TIP3    H236833   1.247   4.219   3.951  1.8008  1.8776 -2.0733
 5140TIP3   OH236834   1.694   5.854   4.154  0.1532  0.2072 -0.3496
 5140TIP3    H136835   1.755   5.838   4.082  1.5177  1.2630  0.5327
 5140TIP3    H236836   1.612   5.814   4.126  0.7374  0.3836 -2.3722
 5141TIP3   OH236837   5.321   5.387   2.802  0.2699  0.1256 -0.5800
 5141TIP3    H136838   5.248   5.425   2.849  0.1743 -0.6827 -0.0585
 5141TIP3    H236839   5.281   5.330   2.736  0.4381 -1.4057  0.6322
 5142TIP3   OH236840   3.144   5.551   1.524  0.3649  0.5199 -0.4541
 5142TIP3    H136841   3.172   5.503   1.446  1.6829 -1.6020  1.2447
 5142TIP3    H236842   3.211   5.619   1.536  1.4702 -0.6354  0.1047
 5143TIP3   OH236843   4.751   6.506   2.180  0.7029  0.2988  0.3022
 5143TIP3    H136844   4.716   6.507   2.091  2.5196  0.8666 -0.4370
 5143TIP3    H236845   4.833   6.457   2.172  2.1771  2.5707  1.1400
 5144TIP3   OH236846   5.695   0.653  13.319 -0.2212  0.0100  0.5629
 5144TIP3    H136847   5.686   0.745  13.345 -0.2310  0.9793 -2.5330
 5144TIP3    H236848   5.607   0.627  13.292  0.2065 -0.1351 -0.7559
 5145TIP3   OH236849   6.532   5.466   2.421 -0.0568  0.5786 -0.0507
 5145TIP3    H136850   6.443   5.432   2.427 -0.5036  1.7336  0.0421
 5145TIP3    H236851   6.588   5.392   2.447 -1.0749  0.3370  1.5561
 5146TIP3   OH236852   6.286   6.623  16.530  0.4141 -0.6139 -0.7989
 5146TIP3    H136853   6.194   6.597  16.529  0.3941 -0.5471 -0.7041
 5146TIP3    H236854   6.322   6.584  16.610  0.0305  0.8561  0.1149
 5147TIP3   OH236855   4.324   3.305   5.845 -0.0161  0.1523 -0.1029
 5147TIP3    H136856   4.377   3.287   5.923  1.5791  3.5180 -0.2801
 5147TIP3    H236857   4.239   3.332   5.880 -0.2490 -1.1879  0.3662
 5148TIP3   OH236858   3.726   5.983   0.434 -0.4463  0.3359  0.1603
 5148TIP3    H136859   3.815   5.973   0.401  0.0295 -1.2610  1.8173
 5148TIP3    H236860   3.735   5.986   0.529 -2.2022 -0.6326  0.3928
 5149TIP3   OH236861   2.405   1.033   5.351  0.1213  0.4193 -0.1482
 5149TIP3    H136862   2.501   1.025   5.353 -0.1043 -3.4553  0.0275
 5149TIP3    H236863   2.376   0.994   5.434 -1.6555  1.0128 -0.4672
 5150TIP3   OH236864   5.384   1.857   1.307 -0.1699 -0.6838  0.2588
 5150TIP3    H136865   5.365   1.765   1.321 -0.0970 -0.7124  0.1658
 5150TIP3    H236866   5.369   1.898   1.392 -2.0910 -0.4729 -0.1393
 5151TIP3   OH236867   0.591   6.250  16.987 -1.0511 -0.4040  0.8013
 5151TIP3    H136868   0.635   6.256  16.903 -2.4871 -1.5382 -0.0708
 5151TIP3    H236869   0.566   6.340  17.008  1.3042  0.1935  1.1396
 5152TIP3   OH236870   2.704   3.816  14.782  0.0620  0.0037  0.1469
 5152TIP3    H136871   2.646   3.839  14.854 -0.2525 -0.2817 -0.0138
 5152TIP3    H236872   2.650   3.761  14.725  0.5481 -0.4072  0.0867
 5153TIP3   OH236873   3.726   5.860  13.683 -0.7710  0.2213  0.0382
 5153TIP3    H136874   3.636   5.845  13.712  0.4518  0.2407  4.1133
 5153TIP3    H236875   3.747   5.784  13.630 -2.3234 -1.1272  1.3016
 5154TIP3   OH236876   3.801   6.193  15.801  0.3716  0.2489 -0.2492
 5154TIP3    H136877   3.794   6.273  15.748 -0.5333  0.2970 -0.0645
 5154TIP3    H236878   3.763   6.124  15.746 -0.9258  0.3693  0.4786
 5155TIP3   OH236879   0.382   0.112  12.143  0.2428  0.3255  0.4285
 5155TIP3    H136880   0.427   0.084  12.223  1.5492  1.0800 -0.0167
 5155TIP3    H236881   0.375   0.033  12.090  0.5056  0.0762  0.7645
 5156TIP3   OH236882   1.282   2.407   3.567  0.4611  0.3236  0.7386
 5156TIP3    H136883   1.248   2.460   3.496  0.6406  1.2941  1.3637
 5156TIP3    H236884   1.209   2.349   3.591  0.7041 -0.6609 -0.8300
 5157TIP3   OH236885   3.314   3.065  13.297 -0.2878 -0.0409  0.7959
 5157TIP3    H136886   3.259   3.107  13.364  0.9010  3.2060 -0.1401
 5157TIP3    H236887   3.275   3.093  13.214  0.5090 -0.8993  0.1310
 5158TIP3   OH236888   1.576   0.555  11.956 -0.0457 -0.3186  0.7093
 5158TIP3    H136889   1.627   0.560  12.037  1.2901 -1.2984 -0.0617
 5158TIP3    H236890   1.632   0.597  11.890 -0.2543 -1.3301 -0.1249
 5159TIP3   OH236891   6.416   2.035  15.838  0.0286  0.0544  0.2412
 5159TIP3    H136892   6.353   2.085  15.786  0.7809 -1.6226 -2.3869
 5159TIP3    H236893   6.404   2.067  15.927 -3.0150  1.3295 -0.5455
 5160TIP3   OH236894   1.524   0.877   3.279 -0.0645 -0.8446  0.2190
 5160TIP3    H136895   1.595   0.828   3.237  0.0402  0.3258 -1.0265
 5160TIP3    H236896   1.451   0.870   3.217 -0.2030  0.1257  0.2643
 5161TIP3   OH236897   4.517   4.377   1.652  0.5931 -0.1799  0.5514
 5161TIP3    H136898   4.527   4.307   1.587  0.0769 -0.4515  0.7615
 5161TIP3    H236899   4.459   4.441   1.610 -1.5662 -1.4194  1.5884
 5162TIP3   OH236900   4.879   0.027   0.359 -0.0949 -0.3800  0.2507
 5162TIP3    H136901   4.851  -0.028   0.433  2.6659  0.0687  1.6834
 5162TIP3    H236902   4.969   0.000   0.343  0.3779  1.8147 -0.8624
 5163TIP3   OH236903   2.756   6.095  13.688 -0.2620  0.1717 -0.0884
 5163TIP3    H136904   2.705   6.020  13.657 -1.2500  0.0772  1.7387
 5163TIP3    H236905   2.740   6.163  13.622 -1.2267 -0.4601 -0.5226
 5164TIP3   OH236906   2.304   0.116  15.949  0.4535 -0.3011 -0.2518
 5164TIP3    H136907   2.319   0.109  16.043  0.3485 -0.6624 -0.2627
 5164TIP3    H236908   2.340   0.035  15.913  0.7511 -0.0366 -0.5563
 5165TIP3   OH236909   2.933   4.282   4.187  0.4481 -0.1594 -0.7408
 5165TIP3    H136910   2.902   4.358   4.137 -0.2310 -0.6545 -1.0889
 5165TIP3    H236911   2.968   4.318   4.268  1.4117  0.6428 -1.5058
 5166TIP3   OH236912   2.578   2.576  13.551 -0.4329 -0.3641  0.3179
 5166TIP3    H136913   2.560   2.565  13.644  0.1394  0.3305  0.5170
 5166TIP3    H236914   2.511   2.637  13.521 -2.4783 -2.8550 -0.3900
 5167TIP3   OH236915   2.114   4.243   2.714  0.1502  0.0788  0.6468
 5167TIP3    H136916   2.048   4.174   2.716 -1.0469  1.1326 -1.0470
 5167TIP3    H236917   2.064   4.324   2.723  1.3410  0.8349  0.5337
 5168TIP3   OH236918   2.643   4.600  14.718  0.0864 -0.4431  0.4694
 5168TIP3    H136919   2.568   4.653  14.742  0.9890  1.2801 -0.4168
 5168TIP3    H236920   2.639   4.595  14.622  0.5094 -1.2259  0.4904
 5169TIP3   OH236921   6.692   6.144   0.595  0.0839 -0.0157  0.7582
 5169TIP3    H136922   6.649   6.223   0.627 -0.2061 -0.6618  2.0231
 5169TIP3    H236923   6.625   6.076   0.604  0.6310 -0.5853  0.5727
 5170TIP3   OH236924   5.825   6.610   3.335  0.2021  0.1807 -0.5736
 5170TIP3    H136925   5.774   6.529   3.335 -0.5489  0.6278  1.8839
 5170TIP3    H236926   5.898   6.593   3.395  0.2869  1.1683 -0.3865
 5171TIP3   OH236927   0.655   3.353  14.809  0.2556  0.3791 -0.0368
 5171TIP3    H136928   0.624   3.366  14.720  0.3120  0.2551 -0.0751
 5171TIP3    H236929   0.708   3.273  14.804 -1.3168 -0.7086  0.5078
 5172TIP3   OH236930   4.270   4.630  17.180 -0.9345  0.3496 -0.1775
 5172TIP3    H136931   4.363   4.631  17.156  0.0506  0.5676  3.3498
 5172TIP3    H236932   4.240   4.720  17.163 -0.1158  0.6640  0.0060
 5173TIP3   OH236933   4.440   4.843  11.831  0.3946 -0.6194  0.4056
 5173TIP3    H136934   4.353   4.839  11.792  0.4772  0.2735  0.1294
 5173TIP3    H236935   4.439   4.922  11.885  1.2003 -0.3169 -0.0080
 5174TIP3   OH236936   5.132   6.586  12.106 -0.1811 -0.1965 -0.5482
 5174TIP3    H136937   5.189   6.514  12.078  1.1957  1.2158 -1.4256
 5174TIP3    H236938   5.048   6.566  12.064  0.6268 -0.4811 -2.0859
 5175TIP3   OH236939   4.050   5.049   3.330  0.1913  0.1676 -0.2315
 5175TIP3    H136940   4.004   5.104   3.266 -0.5060  1.3377  1.2353
 5175TIP3    H236941   4.065   5.107   3.404  0.8141 -1.2347  0.7580
 5176TIP3   OH236942   0.939   1.286   4.692  0.4270  0.1827 -0.0819
 5176TIP3    H136943   0.856   1.247   4.665 -0.5320  1.8383  0.3518
 5176TIP3    H236944   0.966   1.235   4.768  0.1336 -0.7785 -0.6193
 5177TIP3   OH236945   3.244   3.498  12.191  0.6590 -0.3852 -0.3502
 5177TIP3    H136946   3.249   3.407  12.220  2.1145  0.3406  1.8124
 5177TIP3    H236947   3.320   3.540  12.231 -0.7394  2.0816 -0.1787
 5178TIP3   OH236948   2.711   0.962  15.613 -0.1251  1.2049  0.4586
 5178TIP3    H136949   2.791   0.995  15.573  0.7437 -0.9345  0.3783
 5178TIP3    H236950   2.733   0.874  15.643 -2.2018  0.8978  1.2046
 5179TIP3   OH236951   1.461   0.648   4.763 -0.3070 -0.7085 -0.2395
 5179TIP3    H136952   1.472   0.555   4.747 -1.8569 -1.0504  0.6264
 5179TIP3    H236953   1.400   0.653   4.836 -0.8860  1.0064 -0.8135
 5180TIP3   OH236954   0.696   3.698   4.885  0.1871 -0.3080  0.0089
 5180TIP3    H136955   0.670   3.608   4.867 -0.6771  0.0321 -0.4757
 5180TIP3    H236956   0.652   3.750   4.818  0.6957  0.4741  0.2732
 5181TIP3   OH236957   1.131   4.365   2.204 -0.9715  0.1504  0.0111
 5181TIP3    H136958   1.194   4.297   2.178 -0.4614  0.0191  1.5468
 5181TIP3    H236959   1.084   4.385   2.124 -0.4374 -1.3057 -0.6934
 5182TIP3   OH236960   0.848   1.753   0.779  0.4354  0.3273 -0.4561
 5182TIP3    H136961   0.941   1.764   0.801  0.2201  0.6102  0.3537
 5182TIP3    H236962   0.848   1.720   0.690  1.3336 -0.1506 -0.2887
 5183TIP3   OH236963   2.116   0.997   4.426 -0.0626  0.1677 -0.7397
 5183TIP3    H136964   2.021   1.010   4.433  0.1408 -0.0734  3.0895
 5183TIP3    H236965   2.126   0.902   4.421  0.0918  0.0647  1.3194
 5184TIP3   OH236966   1.916   0.134  15.452  0.3748  0.3944 -0.1109
 5184TIP3    H136967   1.999   0.087  15.440  0.8410  1.2551 -0.3148
 5184TIP3    H236968   1.940   0.226  15.441 -0.7125  0.6033 -0.7187
 5185TIP3   OH236969   3.414   1.504   2.614 -0.5422  0.2127  0.0220
 5185TIP3    H136970   3.327   1.527   2.648 -0.8578 -0.9504  0.0187
 5185TIP3    H236971   3.420   1.410   2.626  0.1387  0.0728 -1.3370
 5186TIP3   OH236972   5.406   5.886   0.875 -0.2407  0.4493  0.5509
 5186TIP3    H136973   5.409   5.865   0.968  0.3695 -1.7072  0.0649
 5186TIP3    H236974   5.488   5.934   0.859 -0.2732  0.6900  1.0872
 5187TIP3   OH236975   4.130   2.871  16.276  0.4053  0.6807  0.3895
 5187TIP3    H136976   4.093   2.953  16.310  1.8920  1.5745 -0.0797
 5187TIP3    H236977   4.217   2.866  16.316  1.0470  0.2900 -1.0048
 5188TIP3   OH236978   4.446   1.135   1.458  0.6581 -0.0666  0.6153
 5188TIP3    H136979   4.426   1.212   1.403  0.3250 -0.1232  0.6548
 5188TIP3    H236980   4.532   1.153   1.494 -0.4401  1.4228  2.5740
 5189TIP3   OH236981   1.652   4.829  15.681 -0.1504  0.3326 -0.4018
 5189TIP3    H136982   1.571   4.859  15.722 -0.1019 -1.8012  1.3748
 5189TIP3    H236983   1.636   4.737  15.661  1.0083  0.5116 -2.2498
 5190TIP3   OH236984   2.656   1.116   0.921  0.7981 -0.0536 -0.1702
 5190TIP3    H136985   2.732   1.061   0.943 -0.1973 -0.9260  1.2232
 5190TIP3    H236986   2.617   1.073   0.845 -0.3872 -1.7643  1.3386
 5191TIP3   OH236987   1.922   5.052   1.880  0.0184 -0.2228 -0.3458
 5191TIP3    H136988   1.908   4.958   1.880  0.6973 -0.3451 -2.4354
 5191TIP3    H236989   1.956   5.072   1.793 -1.8265  2.2085 -0.5903
 5192TIP3   OH236990   4.033   3.597  11.033  0.1612 -0.1223  0.5608
 5192TIP3    H136991   4.097   3.530  11.010  0.6030  1.1233 -1.9658
 5192TIP3    H236992   4.048   3.667  10.970 -2.6935  0.8232  0.8756
 5193TIP3   OH236993   0.520   2.217  13.204 -0.4058  0.4902  0.4093
 5193TIP3    H136994   0.589   2.230  13.139 -1.2472 -0.0088 -0.6095
 5193TIP3    H236995   0.475   2.138  13.174 -0.3903 -0.1271  1.9822
 5194TIP3   OH236996   3.619   1.078  14.242  0.0040 -1.1581 -0.4880
 5194TIP3    H136997   3.544   1.097  14.299 -0.7411 -0.7596 -1.5844
 5194TIP3    H236998   3.660   1.001  14.282  0.6389  0.2467  1.6858
 5195TIP3   OH236999   1.632   0.418  11.556  0.7237  0.2258  0.5059
 5195TIP3    H137000   1.671   0.414  11.468 -0.6358  0.6989 -0.1427
 5195TIP3    H237001   1.540   0.442  11.540 -0.4512 -3.1078  1.8145
 5196TIP3   OH237002   4.743   2.170  13.728  0.3382 -1.0250  0.0870
 5196TIP3    H137003   4.689   2.178  13.650  0.9183  1.0345 -0.1475
 5196TIP3    H237004   4.701   2.227  13.793  0.5097 -1.8043  0.8939
 5197TIP3   OH237005   1.465   4.201  15.651 -0.2739 -0.1971  0.2305
 5197TIP3    H137006   1.372   4.185  15.661 -0.9525  3.0802 -0.5337
 5197TIP3    H237007   1.488   4.259  15.723  1.5799 -2.2858  1.4057
 5198TIP3   OH237008   0.580   4.207  14.242 -0.1178 -0.5439 -0.2422
 5198TIP3    H137009   0.626   4.290  14.241 -0.7494 -0.1871  0.5009
 5198TIP3    H237010   0.585   4.177  14.332  1.1701 -1.9193 -0.7401
 5199TIP3   OH237011   1.988   5.764  13.971  0.2631  0.2836  0.3276
 5199TIP3    H137012   1.902   5.738  13.938  0.5604 -0.3822  0.0562
 5199TIP3    H237013   1.988   5.733  14.062  0.6265 -0.7131 -0.0025
 5200TIP3   OH237014   0.752   0.906  10.711 -0.2833 -0.5322  0.1362
 5200TIP3    H137015   0.686   0.839  10.695 -1.2760  0.2457  0.9277
 5200TIP3    H237016   0.819   0.861  10.762 -0.2931 -1.2715 -0.4892
 5201TIP3   OH237017   3.210   0.355  16.840  0.0508  0.4957  0.2047
 5201TIP3    H137018   3.296   0.379  16.875 -0.0538 -0.1407  0.9117
 5201TIP3    H237019   3.209   0.259  16.842 -0.7427  0.5011  0.3726
 5202TIP3   OH237020   3.165   6.465  15.986  0.6444 -0.1164 -0.4762
 5202TIP3    H137021   3.177   6.371  15.972 -0.1497 -0.4437  0.9600
 5202TIP3    H237022   3.127   6.472  16.074 -0.0452  1.5001 -0.8788
 5203TIP3   OH237023   1.316   6.147  15.377  0.4060  0.4038 -0.4264
 5203TIP3    H137024   1.317   6.099  15.459 -1.3661  0.8865 -0.1092
 5203TIP3    H237025   1.305   6.080  15.310 -0.3780  0.2108 -0.1036
 5204TIP3   OH237026   1.009   1.998   1.014  0.2317  0.6215 -0.0248
 5204TIP3    H137027   1.057   2.080   1.000 -0.8203  1.1081 -0.9650
 5204TIP3    H237028   0.983   2.001   1.106  0.7595  1.0358  0.1161
 5205TIP3   OH237029   6.475   2.111   1.390  0.1066 -0.9984  0.2127
 5205TIP3    H137030   6.435   2.187   1.432  0.5484 -1.0477  0.7232
 5205TIP3    H237031   6.521   2.147   1.314  0.6220 -0.7144  0.6626
 5206TIP3   OH237032   3.071   1.175   2.722 -0.2819 -0.2223  0.2967
 5206TIP3    H137033   3.030   1.187   2.808 -1.2023 -0.4235 -0.1123
 5206TIP3    H237034   3.030   1.096   2.687  0.9380 -0.8049  0.1566
 5207TIP3   OH237035   4.822   0.633  11.189 -0.0347  0.3057 -0.0153
 5207TIP3    H137036   4.757   0.648  11.121 -2.0107 -2.9335  1.0321
 5207TIP3    H237037   4.890   0.582  11.146  0.5805  1.4780 -0.4600
 5208TIP3   OH237038   3.132   4.295   1.716 -0.2647  0.3952 -0.1107
 5208TIP3    H137039   3.050   4.340   1.697 -0.7735 -0.1630  0.7225
 5208TIP3    H237040   3.200   4.352   1.682 -1.0016  0.8987 -0.7343
 5209TIP3   OH237041   0.633   1.527  15.472  0.0111  0.1672  0.2575
 5209TIP3    H137042   0.670   1.552  15.557 -2.6040  1.3910  1.0923
 5209TIP3    H237043   0.620   1.610  15.426  1.3958 -0.4916 -1.3576
 5210TIP3   OH237044   2.742   1.364  14.417 -0.2050 -0.0203  0.3673
 5210TIP3    H137045   2.758   1.275  14.450  0.0710 -0.4157 -0.8028
 5210TIP3    H237046   2.699   1.409  14.490  1.9685 -0.3275  1.8945
 5211TIP3   OH237047   1.000   1.100  14.961 -0.2541  0.3393 -0.5281
 5211TIP3    H137048   1.049   1.171  15.003 -1.8319 -0.0835  2.1285
 5211TIP3    H237049   0.933   1.145  14.909 -1.0415  0.8415  0.8868
 5212TIP3   OH237050   1.163   4.134   0.772  0.6989  0.0611 -0.2936
 5212TIP3    H137051   1.114   4.063   0.812  0.5048  0.4200  0.1078
 5212TIP3    H237052   1.166   4.112   0.679 -0.1772  0.0191 -0.3114
 5213TIP3   OH237053   4.462   4.430  10.873 -0.5230  0.5447  0.2831
 5213TIP3    H137054   4.368   4.435  10.889 -1.1828 -0.9128 -2.7655
 5213TIP3    H237055   4.472   4.461  10.783  1.8254  0.0021  0.3392
 5214TIP3   OH237056   4.133   5.385  12.842 -0.1186  0.1330 -0.0159
 5214TIP3    H137057   4.187   5.463  12.828  0.3295 -0.2473 -0.4361
 5214TIP3    H237058   4.188   5.327  12.895  1.1532 -1.5729 -3.0931
 5215TIP3   OH237059   4.313   1.342  11.431  0.1537 -0.6714 -0.6775
 5215TIP3    H137060   4.264   1.317  11.353 -1.0092 -1.5434  0.3120
 5215TIP3    H237061   4.263   1.414  11.469 -0.3004 -1.4445  0.2366
 5216TIP3   OH237062   6.460   6.739  14.922 -0.3180 -0.3520  0.2516
 5216TIP3    H137063   6.469   6.818  14.869  0.3968 -1.9626 -2.0551
 5216TIP3    H237064   6.550   6.710  14.938 -0.5912 -0.9465  0.7254
 5217TIP3   OH237065   1.941   3.009   2.959  0.1867  0.4987 -0.5669
 5217TIP3    H137066   2.018   2.953   2.952 -0.6975 -0.6794 -0.9451
 5217TIP3    H237067   1.975   3.098   2.945  1.6289  0.1002  0.2711
 5218TIP3   OH237068   2.182   1.120  11.793  0.4397  0.2332  0.3290
 5218TIP3    H137069   2.271   1.155  11.787 -0.5719  3.0015  0.5779
 5218TIP3    H237070   2.154   1.111  11.701  0.8510 -0.2903  0.2553
 5219TIP3   OH237071   1.194   3.196   4.937  0.2991  0.7646 -0.1338
 5219TIP3    H137072   1.163   3.205   5.027  0.5746  0.1741  0.0208
 5219TIP3    H237073   1.114   3.193   4.885  0.1386  1.1200  0.0841
 5220TIP3   OH237074   0.375   5.818   5.805  0.2530  0.5647  0.2457
 5220TIP3    H137075   0.285   5.827   5.776  0.9177  1.4964 -1.6492
 5220TIP3    H237076   0.369   5.786   5.895 -1.9604  1.7674  0.5417
 5221TIP3   OH237077   6.399   4.941   5.690 -0.9197  0.1195 -0.2088
 5221TIP3    H137078   6.408   4.956   5.784 -1.0903 -0.3782 -0.1146
 5221TIP3    H237079   6.428   4.851   5.676 -2.0012 -0.1956 -0.4610
 5222TIP3   OH237080   5.097   1.659   1.445  0.1852 -0.1615 -0.1696
 5222TIP3    H137081   5.143   1.706   1.515 -0.4898 -1.1528  0.9386
 5222TIP3    H237082   5.167   1.628   1.388  0.7132  1.1032 -0.2410
 5223TIP3   OH237083   3.641   2.558  12.066 -0.0177  0.0340  0.0704
 5223TIP3    H137084   3.589   2.616  12.010  1.2044 -0.0775 -1.2003
 5223TIP3    H237085   3.711   2.614  12.099  1.2595 -0.7437 -1.2900
 5224TIP3   OH237086   6.375   4.726  13.427 -0.0904  0.3342 -0.2118
 5224TIP3    H137087   6.292   4.756  13.390 -0.6385  0.0026  0.7281
 5224TIP3    H237088   6.350   4.678  13.506  0.9109 -0.7907 -0.5571
 5225TIP3   OH237089   2.073   0.266   0.274  0.4746  0.1764  0.3983
 5225TIP3    H137090   2.110   0.178   0.275 -0.9402 -0.4304  0.6685
 5225TIP3    H237091   2.085   0.296   0.184  0.0877 -0.6726  0.0615
 5226TIP3   OH237092   0.204   5.020   4.338  0.2493  0.6264  0.5537
 5226TIP3    H137093   0.159   5.034   4.421  0.1815  1.7100  0.3376
 5226TIP3    H237094   0.244   4.934   4.347  0.3297  0.7808  1.7443
 5227TIP3   OH237095   6.320   3.710   3.864 -0.0528 -0.2678  0.5089
 5227TIP3    H137096   6.288   3.651   3.796 -0.2346  0.6973 -0.2502
 5227TIP3    H237097   6.345   3.790   3.817  2.3681 -0.5682  1.2070
 5228TIP3   OH237098   6.138   3.417   4.618  0.2096  0.2514 -0.0276
 5228TIP3    H137099   6.117   3.334   4.659 -0.3415  0.4374  0.0641
 5228TIP3    H237100   6.232   3.411   4.598  0.0891 -0.5337 -0.3592
 5229TIP3   OH237101   0.409   3.480  16.887 -0.4852  0.4635 -0.2399
 5229TIP3    H137102   0.441   3.438  16.807  0.2681  0.5200  0.0252
 5229TIP3    H237103   0.366   3.560  16.856  0.7974  1.0661 -0.5230
 5230TIP3   OH237104   6.782   3.375   1.565  0.1781  0.2276 -0.0489
 5230TIP3    H137105   6.863   3.426   1.572  1.1959 -1.4941  1.1446
 5230TIP3    H237106   6.712   3.440   1.576  1.4250  1.4898  0.7100
 5231TIP3   OH237107   0.339   6.220  11.229  0.0945 -0.4509 -0.8356
 5231TIP3    H137108   0.432   6.236  11.212  0.2888 -0.5453  0.1307
 5231TIP3    H237109   0.301   6.307  11.244  0.6284 -0.6241  1.7582
 5232TIP3   OH237110   3.137   5.303   0.737 -0.4063  0.1796 -0.2481
 5232TIP3    H137111   3.178   5.217   0.745 -1.8830 -0.6156 -0.9045
 5232TIP3    H237112   3.078   5.309   0.812 -1.5926 -0.1325 -1.1293
 5233TIP3   OH237113   6.624   0.028   2.755  0.0105 -0.2494 -0.1908
 5233TIP3    H137114   6.535   0.011   2.724  0.5690 -1.7200 -1.0686
 5233TIP3    H237115   6.637   0.121   2.742 -1.4297 -0.0056  0.0112
 5234TIP3   OH237116   1.563   1.560   2.221 -0.2139  0.6429  0.3787
 5234TIP3    H137117   1.494   1.560   2.155  1.0869 -0.2002 -1.0269
 5234TIP3    H237118   1.554   1.644   2.266 -0.5057  1.6428 -1.5256
 5235TIP3   OH237119   3.218   1.202  16.888  0.0064  0.5854 -0.2094
 5235TIP3    H137120   3.301   1.162  16.862  0.6671  1.0329  1.1323
 5235TIP3    H237121   3.184   1.143  16.956 -1.6518 -0.5379 -1.9716
 5236TIP3   OH237122   2.654   3.942   4.600 -0.2490 -0.4930  0.6969
 5236TIP3    H137123   2.619   3.992   4.527  1.2236 -0.6491 -0.1503
 5236TIP3    H237124   2.681   4.008   4.664  2.0258 -0.1257 -0.5712
 5237TIP3   OH237125   1.950   0.958   4.993 -0.0857  0.1959  0.0035
 5237TIP3    H137126   1.937   1.032   4.934  1.4259 -0.1232 -0.7404
 5237TIP3    H237127   1.874   0.902   4.979 -1.2202  1.5712  0.5425
 5238TIP3   OH237128   4.674   4.515  14.995 -0.7373  0.1110 -0.2402
 5238TIP3    H137129   4.645   4.602  15.022 -1.8722  0.1445 -1.5000
 5238TIP3    H237130   4.746   4.532  14.934 -1.9692  0.2472 -1.6947
 5239TIP3   OH237131   2.272   3.611   3.914  0.5231 -0.5014 -0.3721
 5239TIP3    H137132   2.233   3.675   3.973 -0.1352 -0.8529 -0.4120
 5239TIP3    H237133   2.341   3.658   3.868  1.3815 -0.3575  1.0426
 5240TIP3   OH237134   0.995   3.081   0.625 -0.1783 -0.3286  0.1713
 5240TIP3    H137135   0.926   3.122   0.573  0.4330 -0.8115 -1.0407
 5240TIP3    H237136   1.075   3.094   0.573  0.4050 -0.9914  0.8943
 5241TIP3   OH237137   3.265   4.096   4.854 -0.1312 -0.1314 -0.0966
 5241TIP3    H137138   3.234   4.029   4.915 -0.0747 -0.1348 -0.0712
 5241TIP3    H237139   3.198   4.100   4.786  0.1429 -0.6105 -0.3986
 5242TIP3   OH237140   6.124   0.348   4.364 -0.4505 -0.0143 -0.0141
 5242TIP3    H137141   6.090   0.313   4.446 -3.4646  0.4291 -0.9973
 5242TIP3    H237142   6.167   0.273   4.321 -1.5647 -1.0065  0.5891
 5243TIP3   OH237143   1.113   5.858   1.208  0.0409 -0.1698  0.3656
 5243TIP3    H137144   1.203   5.835   1.229  0.0645 -0.7436 -0.3150
 5243TIP3    H237145   1.106   5.952   1.228  1.0855  0.1119 -0.5507
 5244TIP3   OH237146   5.143   3.838   1.288  0.3177 -0.4003  0.0962
 5244TIP3    H137147   5.151   3.921   1.240  0.1073  0.0604  0.8490
 5244TIP3    H237148   5.205   3.779   1.245 -0.3637 -0.2010 -1.1870
 5245TIP3   OH237149   2.288   6.200  14.062  0.3394 -0.1106 -0.5384
 5245TIP3    H137150   2.358   6.139  14.084 -1.2736 -1.7041  0.3964
 5245TIP3    H237151   2.208   6.146  14.064 -1.0155  1.8358 -0.6453
 5246TIP3   OH237152   2.023   2.546   5.573  0.1278  0.0591 -0.2035
 5246TIP3    H137153   1.972   2.627   5.563  0.5610  0.7101  2.4026
 5246TIP3    H237154   1.998   2.513   5.660 -1.2988 -3.5422 -1.8752
 5247TIP3   OH237155   4.099   4.206   4.703  0.0344  0.1917 -0.0047
 5247TIP3    H137156   4.057   4.139   4.650 -1.1290 -0.2802  1.4721
 5247TIP3    H237157   4.042   4.282   4.696 -0.3430 -0.0010  0.8779
 5248TIP3   OH237158   1.331   3.875  11.868 -0.0542  0.2621  0.6335
 5248TIP3    H137159   1.285   3.792  11.860  0.8545 -0.2054  0.1223
 5248TIP3    H237160   1.364   3.894  11.780  1.1946  0.2910  1.0862
 5249TIP3   OH237161   2.746   3.158  16.005  0.4880  0.2392  0.4484
 5249TIP3    H137162   2.806   3.223  15.970  0.3249  0.2808  0.2421
 5249TIP3    H237163   2.788   3.074  15.989  0.5508  0.2755  0.4285
 5250TIP3   OH237164   1.321   6.234  15.864 -0.2593  0.0140 -0.3908
 5250TIP3    H137165   1.340   6.175  15.937 -1.3514 -0.1918 -0.2728
 5250TIP3    H237166   1.227   6.226  15.850 -0.2661  1.0372 -0.9762
 5251TIP3   OH237167   1.306   5.473   0.828  0.3354  0.3024 -0.1807
 5251TIP3    H137168   1.229   5.440   0.874  1.5524 -0.0219  1.6688
 5251TIP3    H237169   1.284   5.465   0.735 -2.1769  1.0169  0.3201
 5252TIP3   OH237170   2.451   6.656   4.588 -0.1468 -0.4887  0.1961
 5252TIP3    H137171   2.374   6.679   4.535 -0.0064  0.8815  0.5679
 5252TIP3    H237172   2.475   6.569   4.559 -1.0971 -0.4217 -0.8137
 5253TIP3   OH237173   2.284   2.728   2.566  0.1938 -0.5821  0.1924
 5253TIP3    H137174   2.195   2.702   2.586 -1.4365  2.3305 -2.7458
 5253TIP3    H237175   2.278   2.822   2.546  4.2581  0.1671  1.9443
 5254TIP3   OH237176   1.648   1.797   2.813  0.0735 -0.1862  0.0213
 5254TIP3    H137177   1.560   1.834   2.806  1.2446  2.8460  0.4748
 5254TIP3    H237178   1.678   1.787   2.723 -0.0841  0.4155 -0.0983
 5255TIP3   OH237179   4.491   0.565   1.364  0.8758  0.3157 -0.5494
 5255TIP3    H137180   4.562   0.541   1.425  0.4119  0.7154  0.1569
 5255TIP3    H237181   4.411   0.553   1.415  0.3346 -1.4637 -1.7789
 5256TIP3   OH237182   6.772   6.350   5.569  0.2996 -0.2635 -0.1815
 5256TIP3    H137183   6.702   6.307   5.618 -0.3642 -0.7332 -1.5122
 5256TIP3    H237184   6.729   6.385   5.491  1.5343 -0.5125 -0.9924
 5257TIP3   OH237185   0.153   4.858   3.643  0.4749  0.5074  0.2068
 5257TIP3    H137186   0.138   4.895   3.556  1.3868  0.2451 -0.0722
 5257TIP3    H237187   0.101   4.778   3.644  0.2307  0.6649  0.0029
 5258TIP3   OH237188   5.373   4.742  13.773 -0.2727  0.3786  0.4524
 5258TIP3    H137189   5.454   4.793  13.772 -1.2634  1.9676  0.6323
 5258TIP3    H237190   5.367   4.708  13.862 -1.2002  2.5538  1.2493
 5259TIP3   OH237191   2.338   3.703   2.069 -0.0057 -0.2268 -0.0010
 5259TIP3    H137192   2.369   3.774   2.125 -1.4081  0.0647  0.4147
 5259TIP3    H237193   2.268   3.741   2.017 -0.1126 -1.0478 -0.4780
 5260TIP3   OH237194   5.562   0.751   2.879  0.1145 -0.0057 -0.1202
 5260TIP3    H137195   5.597   0.839   2.874  0.8596 -0.1736  1.8555
 5260TIP3    H237196   5.478   0.756   2.832  0.6132  1.4974 -0.8684
 5261TIP3   OH237197   2.336   3.927   0.853  0.1404 -0.1231  0.0680
 5261TIP3    H137198   2.315   3.999   0.793 -0.8738  0.1036  0.6865
 5261TIP3    H237199   2.361   3.855   0.795 -0.4710  0.2088 -0.6240
 5262TIP3   OH237200   4.856   0.722   1.502 -0.7419  0.2344 -0.4765
 5262TIP3    H137201   4.851   0.817   1.494 -2.4226  0.3211  1.0338
 5262TIP3    H237202   4.854   0.689   1.412  2.8099  1.6900 -1.1578
 5263TIP3   OH237203   3.995   0.806   3.452  0.3144  0.5188 -0.9447
 5263TIP3    H137204   4.011   0.892   3.491 -0.3035  0.4175 -0.4616
 5263TIP3    H237205   3.959   0.754   3.524  0.6715 -0.1405 -1.2390
 5264TIP3   OH237206   5.649   4.554  13.896 -0.1225 -0.3686 -0.5892
 5264TIP3    H137207   5.729   4.508  13.919  0.0527 -0.2738 -0.9929
 5264TIP3    H237208   5.578   4.495  13.921  0.0295  0.1696  1.1455
 5265TIP3   OH237209   2.090   2.945  14.976  0.3609  0.1649  0.3430
 5265TIP3    H137210   2.076   2.852  14.993 -0.8695  0.2539 -0.1448
 5265TIP3    H237211   2.185   2.955  14.979  0.6094 -1.4288 -1.2448
 5266TIP3   OH237212   0.623   4.561  13.180  0.8827 -0.6232 -0.0123
 5266TIP3    H137213   0.630   4.495  13.249  1.3200 -0.6523 -0.0883
 5266TIP3    H237214   0.535   4.548  13.144 -0.3487  1.0799  2.2490
 5267TIP3   OH237215   1.674   1.381  16.809 -0.0306  0.6531  0.1056
 5267TIP3    H137216   1.675   1.311  16.743 -0.4838  0.7358  0.0042
 5267TIP3    H237217   1.640   1.339  16.888 -2.1117  1.1786 -0.4673
 5268TIP3   OH237218   2.287   6.196  10.901  0.0972 -0.8771  0.6521
 5268TIP3    H137219   2.288   6.236  10.987  1.6897 -1.3747  0.8734
 5268TIP3    H237220   2.355   6.128  10.904  0.8551 -0.2624 -1.2804
 5269TIP3   OH237221   5.136   4.502   4.386 -0.6533 -0.0729 -0.2525
 5269TIP3    H137222   5.042   4.491   4.372 -0.8055 -0.8624  1.2716
 5269TIP3    H237223   5.143   4.547   4.471  0.3480 -0.1928 -0.2584
 5270TIP3   OH237224   4.804   5.362  15.901  0.2424  0.1759 -0.3231
 5270TIP3    H137225   4.761   5.371  15.816  0.6424 -0.3764 -0.5841
 5270TIP3    H237226   4.881   5.309  15.884 -0.6814 -1.5644  0.7229
 5271TIP3   OH237227   1.528   4.481   5.738 -0.5594  0.1218  0.0868
 5271TIP3    H137228   1.504   4.390   5.756 -2.6635  0.2202 -2.0857
 5271TIP3    H237229   1.614   4.491   5.780  0.5618 -3.3736 -1.1651
 5272TIP3   OH237230   6.456   6.106  11.721 -0.2818  0.7853 -0.7405
 5272TIP3    H137231   6.466   6.166  11.647  1.6689 -0.2409 -1.3364
 5272TIP3    H237232   6.504   6.148  11.792  1.9527 -0.5136 -1.4440
 5273TIP3   OH237233   5.890   1.105  16.079 -0.4391 -0.5958 -0.5559
 5273TIP3    H137234   5.824   1.105  16.149  1.1487  2.4770  1.0728
 5273TIP3    H237235   5.845   1.143  16.004 -1.7361 -2.5449 -0.7880
 5274TIP3   OH237236   3.131   4.560  12.143 -0.5006  0.7359 -0.4957
 5274TIP3    H137237   3.203   4.578  12.083  0.5342 -1.3217  0.0732
 5274TIP3    H237238   3.171   4.510  12.214 -1.9339  2.0966  1.3233
 5275TIP3   OH237239   5.803   6.593   3.933  0.1995  0.1583 -0.3733
 5275TIP3    H137240   5.838   6.614   4.019 -0.0851  0.8982 -0.4329
 5275TIP3    H237241   5.726   6.650   3.924 -1.4901 -1.9779  0.0845
 5276TIP3   OH237242   2.234   1.349  14.669 -0.2723 -0.1335  0.2554
 5276TIP3    H137243   2.322   1.382  14.687 -0.1460 -0.4643  0.2427
 5276TIP3    H237244   2.240   1.255  14.686 -0.9361  0.0334  1.4219
 5277TIP3   OH237245   4.083   4.981  12.664  1.0741  0.5437 -0.2679
 5277TIP3    H137246   4.077   4.976  12.760 -0.9749  1.9685 -0.2876
 5277TIP3    H237247   4.041   5.064  12.642  2.1007  0.5200 -2.3671
 5278TIP3   OH237248   5.940   0.800   2.799  0.3824  0.0801  0.1621
 5278TIP3    H137249   6.001   0.860   2.756  0.7464 -1.1555 -1.0597
 5278TIP3    H237250   5.983   0.776   2.881  0.5665  0.8867  0.3084
 5279TIP3   OH237251   3.286   4.902   2.673 -0.3150  0.1242  0.2492
 5279TIP3    H137252   3.226   4.893   2.599 -1.2397  0.2240  0.9897
 5279TIP3    H237253   3.338   4.980   2.653  1.3209 -1.3787 -1.6328
 5280TIP3   OH237254   1.708   6.474  13.041 -0.0520  0.3334 -0.4197
 5280TIP3    H137255   1.777   6.497  12.979  0.3078  1.0863  0.2536
 5280TIP3    H237256   1.729   6.386  13.069  0.9076  0.7377  0.1430
 5281TIP3   OH237257   2.640   6.461  16.988 -0.3631 -0.5602  0.0382
 5281TIP3    H137258   2.625   6.503  17.073  0.7898 -0.7845  0.3617
 5281TIP3    H237259   2.552   6.445  16.953 -0.8694  2.9617 -0.5096
 5282TIP3   OH237260   0.704   4.767  15.644  0.1703 -0.1809  0.2345
 5282TIP3    H137261   0.748   4.841  15.685  0.6275 -1.2596  1.7477
 5282TIP3    H237262   0.736   4.767  15.554  2.4189 -0.2547  0.9922
 5283TIP3   OH237263   2.978   4.898   0.155 -0.5388 -0.0644 -0.2548
 5283TIP3    H137264   2.913   4.948   0.106 -1.9413 -1.4324  0.1897
 5283TIP3    H237265   2.973   4.933   0.244 -1.0656 -0.5528 -0.0916
 5284TIP3   OH237266   2.765   1.497  11.980  0.5154  0.5994  0.2550
 5284TIP3    H137267   2.808   1.420  11.941  2.2935  0.9843  1.3709
 5284TIP3    H237268   2.722   1.464  12.058 -0.6743  0.3364 -0.4985
 5285TIP3   OH237269   5.502   2.356   3.891  0.2786 -0.2759 -0.8952
 5285TIP3    H137270   5.424   2.378   3.941 -0.3132 -1.8321 -1.1271
 5285TIP3    H237271   5.563   2.429   3.909 -1.1275  0.8396 -0.5622
 5286TIP3   OH237272   1.123   5.324  16.097 -0.3672 -0.0779  0.2952
 5286TIP3    H137273   1.038   5.366  16.087 -1.2092 -1.8470 -0.2157
 5286TIP3    H237274   1.136   5.277  16.014  0.7173 -0.5168  0.7042
 5287TIP3   OH237275   2.029   0.699   4.337 -0.3678  0.0905  0.0634
 5287TIP3    H137276   1.935   0.680   4.333 -0.4519  0.1846  1.3186
 5287TIP3    H237277   2.071   0.619   4.305 -0.8639 -0.2220  0.1894
 5288TIP3   OH237278   6.104   0.092  15.036 -0.1624  0.4455  0.3245
 5288TIP3    H137279   6.046   0.117  15.108  0.2081 -0.5632  0.9952
 5288TIP3    H237280   6.124  -0.001  15.052  2.2680  0.9642  0.5764
 5289TIP3   OH237281   2.548   4.816  12.909  0.2647 -0.2101  0.8027
 5289TIP3    H137282   2.503   4.900  12.914  0.5280 -0.0507  0.5034
 5289TIP3    H237283   2.478   4.751  12.912 -0.0885  0.0692 -1.1417
 5290TIP3   OH237284   3.763   6.273  10.731 -0.3479  0.4876  0.2406
 5290TIP3    H137285   3.771   6.341  10.665 -0.4576  0.0577 -0.2129
 5290TIP3    H237286   3.765   6.321  10.814  2.5341  0.8256  0.0364
 5291TIP3   OH237287   4.591   5.482   0.472  0.0887  0.2882 -0.2663
 5291TIP3    H137288   4.586   5.486   0.376  2.5847  0.9533 -0.3943
 5291TIP3    H237289   4.684   5.474   0.491 -0.1900  2.2715  2.1724
 5292TIP3   OH237290   6.332   0.233  16.210  0.1998 -0.5418  0.0762
 5292TIP3    H137291   6.252   0.192  16.177  0.2607 -0.7750  0.2174
 5292TIP3    H237292   6.363   0.174  16.278 -0.0628  0.0644  0.7262
 5293TIP3   OH237293   0.958   3.678   2.983  0.1260  0.3879  0.5283
 5293TIP3    H137294   0.978   3.592   3.020  1.6098  0.5414  0.0864
 5293TIP3    H237295   0.912   3.724   3.053  3.0585  0.7449  2.2891
 5294TIP3   OH237296   2.910   3.191  11.935 -0.9114  0.4724 -0.3482
 5294TIP3    H137297   2.902   3.155  12.023 -2.7133  2.9874  0.5681
 5294TIP3    H237298   2.889   3.118  11.877 -1.5215 -0.7275  1.3538
 5295TIP3   OH237299   0.566   6.561   5.851 -0.5072 -0.3363 -0.0915
 5295TIP3    H137300   0.597   6.500   5.785 -1.5120  0.6139 -1.4919
 5295TIP3    H237301   0.625   6.636   5.844 -1.0631  0.0792 -0.4604
 5296TIP3   OH237302   5.054   1.393   0.545  0.2857 -0.1565  0.9064
 5296TIP3    H137303   5.101   1.342   0.612 -0.0787 -1.3928  0.2452
 5296TIP3    H237304   5.042   1.331   0.473 -1.5519  0.4331  0.6999
 5297TIP3   OH237305   0.834   3.610  13.683 -0.3471 -0.0276  0.4125
 5297TIP3    H137306   0.876   3.692  13.706  1.5557 -1.3183  1.7332
 5297TIP3    H237307   0.840   3.604  13.588  0.7789  0.7065  0.4326
 5298TIP3   OH237308   2.997   5.583  12.738  0.3327 -0.4638  0.5127
 5298TIP3    H137309   2.968   5.496  12.765  0.6687 -0.6625  0.2423
 5298TIP3    H237310   3.003   5.578  12.642 -1.7005  0.4987  0.3164
 5299TIP3   OH237311   1.690   2.972  16.562  0.4490  0.2164 -0.1177
 5299TIP3    H137312   1.682   3.012  16.649  0.9998  0.3398 -0.1208
 5299TIP3    H237313   1.659   2.882  16.574  0.9214  0.1046  0.3090
 5300TIP3   OH237314   3.596   4.558  15.686 -0.4062 -0.1420 -0.1786
 5300TIP3    H137315   3.559   4.617  15.621  0.2864  0.5905  0.0832
 5300TIP3    H237316   3.626   4.482  15.636 -3.4228 -1.3688 -0.2559
 5301TIP3   OH237317   5.959   3.547  12.608  0.2416 -0.5913  0.3202
 5301TIP3    H137318   5.995   3.461  12.586 -0.5858 -0.6522 -0.8445
 5301TIP3    H237319   5.885   3.528  12.666 -0.3272 -0.6987 -0.4444
 5302TIP3   OH237320   2.587   1.036  14.054  0.3241 -0.0138  0.1329
 5302TIP3    H137321   2.557   1.124  14.079  2.1852  0.5654  0.3730
 5302TIP3    H237322   2.631   1.003  14.133  1.8755 -0.1429 -0.7728
 5303TIP3   OH237323   5.206   3.273   4.333 -0.2412 -0.1432 -0.7225
 5303TIP3    H137324   5.212   3.201   4.396 -0.3018  2.6547  2.6974
 5303TIP3    H237325   5.114   3.301   4.338  0.0494  0.8903 -1.1009
 5304TIP3   OH237326   6.209   3.098   2.916 -0.1192  0.4966 -0.3269
 5304TIP3    H137327   6.210   3.046   2.836  3.4328  0.1281 -0.1513
 5304TIP3    H237328   6.176   3.184   2.888 -1.8887 -0.5603 -1.5172
 5305TIP3   OH237329   2.126   5.172  12.276 -0.2037 -0.1837  0.3301
 5305TIP3    H137330   2.055   5.118  12.310 -0.7971  0.0236 -0.5446
 5305TIP3    H237331   2.132   5.246  12.336 -1.0654  0.0463  0.1464
 5306TIP3   OH237332   6.653   2.132  13.564 -0.2199 -0.2847 -0.5920
 5306TIP3    H137333   6.614   2.168  13.484 -0.4753 -0.7117 -0.6612
 5306TIP3    H237334   6.663   2.208  13.622  0.5751  0.1413 -1.2715
 5307TIP3   OH237335   3.063   0.807   1.880  0.2413  0.2240 -0.5526
 5307TIP3    H137336   3.028   0.855   1.955 -1.9040  0.1316 -1.4470
 5307TIP3    H237337   3.158   0.811   1.891 -0.0242  0.8016  1.7814
 5308TIP3   OH237338   6.170   0.574   5.469  0.4793 -0.5397  0.1259
 5308TIP3    H137339   6.212   0.623   5.398 -0.1680 -0.1972 -0.0205
 5308TIP3    H237340   6.081   0.609   5.474  0.1582 -1.3537  0.3473
 5309TIP3   OH237341   3.419   5.216  15.225  0.2331  0.2568  0.4175
 5309TIP3    H137342   3.344   5.206  15.167 -0.9750  0.9466  1.8126
 5309TIP3    H237343   3.492   5.235  15.167 -0.9763  1.0663 -0.8675
 5310TIP3   OH237344   0.962   2.870  11.108  0.3662  0.4755  0.0589
 5310TIP3    H137345   1.036   2.814  11.130 -0.1328 -0.3781 -0.4009
 5310TIP3    H237346   0.977   2.893  11.016 -0.1168  0.0199 -0.1348
 5311TIP3   OH237347   0.310   2.540   2.349 -0.2944  0.2224 -0.6550
 5311TIP3    H137348   0.274   2.464   2.395 -0.5867  1.0567  0.5352
 5311TIP3    H237349   0.234   2.580   2.307 -0.5030  1.0293  0.4603
 5312TIP3   OH237350   2.394   1.635   4.004  0.0112 -0.5053 -0.0762
 5312TIP3    H137351   2.361   1.671   4.087 -0.5919 -2.8182  0.7184
 5312TIP3    H237352   2.470   1.689   3.983 -2.0222  2.4954  0.0318
 5313TIP3   OH237353   0.993   0.204  13.184 -0.1836  0.8666 -0.0137
 5313TIP3    H137354   0.930   0.236  13.121 -1.8720  0.8103  1.6107
 5313TIP3    H237355   1.064   0.269  13.183 -2.0123  2.9149  0.8262
 5314TIP3   OH237356   5.701   6.155  14.720 -0.4733 -0.0727 -0.2197
 5314TIP3    H137357   5.696   6.068  14.760 -1.9348  0.6884  1.3140
 5314TIP3    H237358   5.787   6.157  14.677  0.3219 -1.6344  1.2503
 5315TIP3   OH237359   4.065   5.605  16.842 -0.0879  0.3966 -0.1384
 5315TIP3    H137360   4.072   5.604  16.937 -0.5514 -1.5517 -0.1097
 5315TIP3    H237361   3.977   5.639  16.825 -1.0821 -1.9178  0.2209
 5316TIP3   OH237362   4.043   3.512  12.309 -0.3147  0.3140  0.6525
 5316TIP3    H137363   3.994   3.531  12.230  0.7015 -1.2246 -0.3747
 5316TIP3    H237364   4.116   3.574  12.309  0.1073 -0.1764 -0.0196
 5317TIP3   OH237365   6.599   0.588   3.492 -0.5230 -0.4623 -0.2657
 5317TIP3    H137366   6.539   0.597   3.419 -0.5989 -0.5456 -0.2145
 5317TIP3    H237367   6.658   0.662   3.485  0.1277 -1.0501 -1.0175
 5318TIP3   OH237368   3.087   0.846  10.516 -0.6516 -0.1971 -0.2473
 5318TIP3    H137369   3.054   0.935  10.516  0.8370  0.4106  2.4843
 5318TIP3    H237370   3.023   0.796  10.565 -0.8373 -0.3772 -0.6693
 5319TIP3   OH237371   1.621   5.270   3.120  0.0287  0.4673  0.1854
 5319TIP3    H137372   1.688   5.232   3.064  0.2147 -0.3398  0.9513
 5319TIP3    H237373   1.670   5.314   3.190 -0.2486 -0.6657  1.0951
 5320TIP3   OH237374   0.791   4.393   4.155 -0.3829  0.3502  0.1020
 5320TIP3    H137375   0.708   4.361   4.192  0.0256 -0.2872  0.4747
 5320TIP3    H237376   0.841   4.424   4.231 -0.2321  0.6294 -0.1107
 5321TIP3   OH237377   0.200   5.162  12.144  0.0075 -0.5409  0.7798
 5321TIP3    H137378   0.287   5.184  12.176  0.7283 -0.1186 -1.3940
 5321TIP3    H237379   0.152   5.245  12.144  0.5498 -0.2091 -0.8173
 5322TIP3   OH237380   2.716   5.756  11.327 -0.3869  0.1161  0.7224
 5322TIP3    H137381   2.763   5.730  11.406 -0.9940  1.2813  1.4766
 5322TIP3    H237382   2.624   5.759  11.353 -0.7357 -0.7095 -0.3629
 5323TIP3   OH237383   3.370   6.044  10.400  0.0078  0.4611 -0.4631
 5323TIP3    H137384   3.323   5.976  10.352  1.0300 -0.9499  0.4646
 5323TIP3    H237385   3.453   6.003  10.424  0.9635  2.3016 -0.5333
 5324TIP3   OH237386   2.143   2.895  12.065  0.3493 -0.5792 -0.0183
 5324TIP3    H137387   2.129   2.800  12.064  0.1871 -0.5642  0.4237
 5324TIP3    H237388   2.062   2.931  12.029  0.6360 -0.6336 -0.7113
 5325TIP3   OH237389   1.224   2.612   3.213  0.4497 -0.4447 -0.6354
 5325TIP3    H137390   1.218   2.639   3.122 -0.9889  0.7834 -0.2029
 5325TIP3    H237391   1.285   2.675   3.252  1.6636 -1.4331 -0.8945
 5326TIP3   OH237392   5.820   1.892  12.995 -0.1547 -0.3810 -0.0349
 5326TIP3    H137393   5.883   1.864  13.061  0.0260  0.3016  0.0843
 5326TIP3    H237394   5.744   1.922  13.044 -0.1667 -0.2244 -0.1495
 5327TIP3   OH237395   0.984   2.163   1.832  0.0365 -0.3816  0.1440
 5327TIP3    H137396   0.958   2.165   1.740  0.2995  0.6065  0.0808
 5327TIP3    H237397   1.078   2.178   1.830  0.4694 -2.9261  0.4316
 5328TIP3   OH237398   4.402   1.898  13.077 -0.2769 -0.1550  0.2168
 5328TIP3    H137399   4.313   1.892  13.045 -0.2217 -1.4162  0.2823
 5328TIP3    H237400   4.453   1.841  13.019  0.6126  1.0235 -0.2137
 5329TIP3   OH237401   6.262   6.276   4.572 -0.4309  0.2185  0.3953
 5329TIP3    H137402   6.184   6.255   4.623 -0.3714 -1.2362 -0.0890
 5329TIP3    H237403   6.290   6.192   4.534 -0.0851  1.1374 -1.4593
 5330TIP3   OH237404   4.089   3.941  16.093  0.5047 -0.1240  0.3124
 5330TIP3    H137405   4.143   3.972  16.020 -1.6239  0.2376 -1.1273
 5330TIP3    H237406   4.036   3.871  16.057  0.5042 -0.9879  1.9191
 5331TIP3   OH237407   0.752   1.247  11.763  0.3729  0.0379 -0.6977
 5331TIP3    H137408   0.705   1.326  11.789  0.5715 -0.2713  0.6323
 5331TIP3    H237409   0.686   1.195  11.717 -0.2778  0.1436  0.0965
 5332TIP3   OH237410   0.517   3.620   2.320 -0.2018 -0.1185 -0.2442
 5332TIP3    H137411   0.495   3.693   2.378  1.2356  0.2440 -0.1393
 5332TIP3    H237412   0.505   3.542   2.374 -1.4870  0.0533 -0.2741
 5333TIP3   OH237413   2.652   1.428   2.089  0.2215 -0.0566  0.0779
 5333TIP3    H137414   2.616   1.349   2.128  2.2938 -0.8311  0.5003
 5333TIP3    H237415   2.724   1.452   2.147  1.3476  0.5721 -1.5396
 5334TIP3   OH237416   0.297   3.068  16.849 -0.2354  0.3757  0.0482
 5334TIP3    H137417   0.315   2.989  16.900 -0.8136 -0.4293 -0.9819
 5334TIP3    H237418   0.327   3.047  16.761 -2.2732  0.5550 -0.7172
 5335TIP3   OH237419   0.209   3.359  11.489  0.0921  0.5061 -0.0393
 5335TIP3    H137420   0.161   3.317  11.561 -0.3803  1.9411  0.5106
 5335TIP3    H237421   0.147   3.423  11.454  0.4777  0.1137 -1.4589
 5336TIP3   OH237422   1.381   5.719   3.546  0.0718  0.5069  0.3830
 5336TIP3    H137423   1.341   5.680   3.624 -0.4252  0.5554  0.1530
 5336TIP3    H237424   1.307   5.751   3.494  0.4733  1.9963  0.6996
 5337TIP3   OH237425   3.398   6.309  12.752 -0.2218 -0.0317 -0.2825
 5337TIP3    H137426   3.452   6.275  12.823 -0.5377 -0.9854 -0.4887
 5337TIP3    H237427   3.317   6.336  12.795 -0.8660 -1.6768 -0.4238
 5338TIP3   OH237428   5.411   5.988  15.450  0.2157  0.6270  0.6588
 5338TIP3    H137429   5.390   5.895  15.452 -2.7497  1.1925 -1.5220
 5338TIP3    H237430   5.362   6.025  15.523  1.5997  0.4702  1.6863
 5339TIP3   OH237431   2.975   6.189  15.171 -0.7486  0.0545  0.0971
 5339TIP3    H137432   2.882   6.199  15.150 -0.1096  1.3637 -2.2955
 5339TIP3    H237433   3.017   6.267  15.133  1.4041 -0.7747  0.6768
 5340TIP3   OH237434   0.975   5.085  14.835 -0.3769 -0.0791  0.4640
 5340TIP3    H137435   1.031   5.019  14.795 -0.4512 -0.2179  0.5885
 5340TIP3    H237436   1.010   5.096  14.923 -0.8155 -0.4853  0.6899
 5341TIP3   OH237437   0.004   2.179   4.010  0.0369  0.3810 -0.4878
 5341TIP3    H137438   0.087   2.131   4.005 -0.8586 -1.5228  1.7224
 5341TIP3    H237439   0.022   2.251   4.071  0.3837  0.6786 -0.9392
 5342TIP3   OH237440   0.473   2.071   1.752 -0.2431  0.5626 -0.6240
 5342TIP3    H137441   0.524   1.991   1.763 -0.9158  0.0876 -0.9120
 5342TIP3    H237442   0.391   2.042   1.712 -0.2035  1.4930 -1.4021
 5343TIP3   OH237443   4.597   4.444  15.259 -0.2710 -0.0423 -0.0727
 5343TIP3    H137444   4.664   4.453  15.191 -0.1063 -0.0264  0.0905
 5343TIP3    H237445   4.576   4.533  15.284 -0.8355 -0.0302 -0.5897
 5344TIP3   OH237446   1.982   3.158  11.343  0.1747 -0.1501  0.1398
 5344TIP3    H137447   2.050   3.091  11.333 -1.7873 -1.9743 -1.3454
 5344TIP3    H237448   1.961   3.185  11.254 -1.0609  0.3946  0.5848
 5345TIP3   OH237449   4.186   5.929  15.856  0.2803 -0.0277 -0.3460
 5345TIP3    H137450   4.225   5.875  15.925 -1.5981  0.2158  0.9661
 5345TIP3    H237451   4.188   6.018  15.891 -1.6228 -0.0458 -0.1366
 5346TIP3   OH237452   1.816   5.990  12.330  0.7146 -0.4116 -0.5935
 5346TIP3    H137453   1.771   6.073  12.310  2.4992  0.4812 -1.0123
 5346TIP3    H237454   1.745   5.929  12.351 -0.5830  1.5394  0.9299
 5347TIP3   OH237455   3.007   4.457   2.776  0.2965 -0.1041  0.1019
 5347TIP3    H137456   2.949   4.454   2.852  0.3311  0.0189  0.1317
 5347TIP3    H237457   3.094   4.439   2.811  0.4842  1.0517  0.2580
 5348TIP3   OH237458   0.232   5.695  16.555 -0.1749  0.1189  0.0699
 5348TIP3    H137459   0.274   5.778  16.580 -0.4669  0.6222 -1.0547
 5348TIP3    H237460   0.239   5.694  16.459 -0.7294 -0.8694  0.0418
 5349TIP3   OH237461   1.257   3.401  10.539  0.0530  0.1686  0.1144
 5349TIP3    H137462   1.229   3.365  10.623  1.1156 -1.2758 -0.1310
 5349TIP3    H237463   1.282   3.324  10.487 -0.4570  1.0538 -1.4787
 5350TIP3   OH237464   0.223   4.456  13.307  0.4398 -0.0868 -0.4316
 5350TIP3    H137465   0.131   4.433  13.317  0.5889 -0.2522  0.5859
 5350TIP3    H237466   0.222   4.546  13.275 -0.0403  0.7191  1.7943
 5351TIP3   OH237467   3.844   5.122   6.120  0.3272  0.7784  0.1391
 5351TIP3    H137468   3.932   5.086   6.124  0.1206  0.4518  1.9374
 5351TIP3    H237469   3.856   5.217   6.117  0.7476  0.7240  0.1613
 5352TIP3   OH237470   6.575   0.817  12.195  0.2697 -0.0548  0.7414
 5352TIP3    H137471   6.648   0.819  12.256  0.8981  0.4432 -0.0212
 5352TIP3    H237472   6.608   0.860  12.116 -1.0936  0.8542  0.6636
 5353TIP3   OH237473   3.162   6.337  11.502  0.0806 -0.3328  0.2259
 5353TIP3    H137474   3.144   6.245  11.483 -1.7863 -0.1531  0.9080
 5353TIP3    H237475   3.245   6.337  11.548  0.1167 -1.6825  0.1655
 5354TIP3   OH237476   0.573   2.286  10.621  0.1094 -0.0556  0.0264
 5354TIP3    H137477   0.571   2.363  10.679  1.6079 -0.1621  0.2467
 5354TIP3    H237478   0.490   2.289  10.575 -1.1524 -0.0120  2.2439
 5355TIP3   OH237479   0.725   0.965   3.631  0.8021 -0.4875  0.2078
 5355TIP3    H137480   0.727   1.058   3.609  3.2543 -0.8667 -1.3065
 5355TIP3    H237481   0.640   0.952   3.674  0.2391  2.3338  0.0004
 5356TIP3   OH237482   3.125   3.679  13.343  0.2889 -0.6442  0.2248
 5356TIP3    H137483   3.193   3.746  13.344  0.5861 -0.9216 -0.9977
 5356TIP3    H237484   3.173   3.596  13.341 -0.0812 -0.8793  0.9442
 5357TIP3   OH237485   2.831   1.224   5.253  0.0242 -0.4677 -0.0345
 5357TIP3    H137486   2.868   1.304   5.214  0.4072 -0.4021  0.4686
 5357TIP3    H237487   2.849   1.232   5.346  0.6409 -1.4579 -0.0676
 5358TIP3   OH237488   2.011   4.474   1.791  0.0391 -0.5630  0.0555
 5358TIP3    H137489   1.967   4.400   1.832  0.2755 -1.3036 -1.0047
 5358TIP3    H237490   1.952   4.548   1.806 -1.1097 -1.3476 -0.5264
 5359TIP3   OH237491   1.041   1.409   1.197 -0.0087 -0.8043 -0.0688
 5359TIP3    H137492   1.059   1.321   1.232 -1.3408 -1.5867 -1.2755
 5359TIP3    H237493   1.028   1.395   1.104  1.6981  0.9899 -0.6060
 5360TIP3   OH237494   1.581   4.104  11.691  0.1960  0.0083  0.4890
 5360TIP3    H137495   1.501   4.109  11.640  0.7931 -1.8108 -0.6522
 5360TIP3    H237496   1.615   4.194  11.692 -0.9559  0.4553 -0.4467
 5361TIP3   OH237497   1.072   4.160   1.913  0.6114  0.0641  0.1743
 5361TIP3    H137498   1.059   4.101   1.987  2.3124  0.3378  0.7214
 5361TIP3    H237499   1.080   4.247   1.954  0.1334  0.4059 -0.4546
 5362TIP3   OH237500   2.846   2.479   4.664  0.0174  0.0081 -0.8076
 5362TIP3    H137501   2.919   2.493   4.724 -2.0984  0.6815  1.6877
 5362TIP3    H237502   2.816   2.567   4.641 -0.0829 -0.2638 -1.7704
 5363TIP3   OH237503   2.770   0.472  13.569 -0.5240  0.4197  0.6350
 5363TIP3    H137504   2.794   0.496  13.479  2.8395  0.1952  1.4283
 5363TIP3    H237505   2.761   0.556  13.614 -1.4232  0.5038  0.3243
 5364TIP3   OH237506   1.032   2.250  14.581  0.1824  0.2891 -0.0600
 5364TIP3    H137507   1.067   2.306  14.512 -1.4737  1.1015 -0.2526
 5364TIP3    H237508   1.042   2.301  14.661 -0.4682  0.4838 -0.1023
 5365TIP3   OH237509   1.077   2.104   3.258 -0.0483  0.2015  0.3761
 5365TIP3    H137510   0.994   2.098   3.211  0.6663 -0.0618 -0.8860
 5365TIP3    H237511   1.108   2.193   3.242 -0.7694  0.7607  2.0406
 5366TIP3   OH237512   2.677   2.698  16.120  0.0140  0.0727  0.0891
 5366TIP3    H137513   2.627   2.762  16.069 -1.4619  0.3352  1.8293
 5366TIP3    H237514   2.754   2.680  16.066 -0.7783  1.4418 -1.5598
 5367TIP3   OH237515   1.059   4.860   4.331 -0.2198  0.6560  0.3258
 5367TIP3    H137516   0.998   4.901   4.393  1.3867  0.4579  2.0802
 5367TIP3    H237517   1.005   4.795   4.285 -1.8353  1.9745  0.3174
 5368TIP3   OH237518   3.274   4.932   5.647  0.0212  0.5778  0.1737
 5368TIP3    H137519   3.323   4.938   5.565 -2.4400 -0.7744 -1.4313
 5368TIP3    H237520   3.231   5.017   5.656 -2.8450 -0.5749 -2.0109
 5369TIP3   OH237521   2.958   5.198  11.676 -0.5657 -0.4352 -0.1437
 5369TIP3    H137522   2.882   5.156  11.637  1.1585 -1.4540 -2.5523
 5369TIP3    H237523   3.028   5.132  11.670  0.7933  0.8473  1.0030
 5370TIP3   OH237524   2.503   0.729   6.667  0.1371  0.3354 -0.3038
 5370TIP3    H137525   2.594   0.752   6.684 -0.2952  0.7024  1.6707
 5370TIP3    H237526   2.507   0.643   6.627  1.4153  0.8994 -1.4290
 5371TIP3   OH237527   3.767   3.859   1.420 -0.3343 -0.1616  0.2414
 5371TIP3    H137528   3.860   3.875   1.432 -0.4712  2.1656 -1.4014
 5371TIP3    H237529   3.760   3.764   1.407  1.6203 -0.5273  1.7516
 5372TIP3   OH237530   6.342   3.805   2.875  0.1967  0.4577 -0.3162
 5372TIP3    H137531   6.333   3.793   2.969 -0.0703 -1.0077 -0.5092
 5372TIP3    H237532   6.435   3.823   2.862  0.4394 -0.4128  0.1402
 5373TIP3   OH237533   6.196   4.442   4.150  0.2111  0.5772 -0.2942
 5373TIP3    H137534   6.135   4.492   4.096 -2.1296  1.0616  2.6027
 5373TIP3    H237535   6.228   4.505   4.214 -1.1899 -1.0575  2.1239
 5374TIP3   OH237536   4.405   1.029   3.632 -0.3543 -0.4925 -0.5613
 5374TIP3    H137537   4.378   1.038   3.540  0.2544  0.2885 -0.6662
 5374TIP3    H237538   4.423   1.118   3.660  0.5442 -0.8440 -0.0052
 5375TIP3   OH237539   3.707   0.917  15.289 -0.0027 -0.1118  0.5899
 5375TIP3    H137540   3.657   0.920  15.208  0.3355  1.0422  0.4083
 5375TIP3    H237541   3.791   0.958  15.267  0.4149 -0.5869  1.2910
 5376TIP3   OH237542   0.531   4.837   4.225 -0.4074 -0.0873  0.7388
 5376TIP3    H137543   0.494   4.825   4.137  0.7634 -1.6075  0.4423
 5376TIP3    H237544   0.580   4.919   4.219  0.0353 -0.4124 -0.1689
 5377TIP3   OH237545   4.218   6.288  17.067  0.4704  0.9467 -0.6084
 5377TIP3    H137546   4.127   6.267  17.045  0.5584 -1.2772  0.9086
 5377TIP3    H237547   4.213   6.375  17.107 -0.7793  1.4762 -1.8783
 5378TIP3   OH237548   1.067   3.624   1.474 -0.7347 -0.0739  0.0741
 5378TIP3    H137549   1.035   3.540   1.440 -0.5492 -0.2980  0.4456
 5378TIP3    H237550   1.160   3.608   1.492  0.2160  1.2308 -3.1812
 5379TIP3   OH237551   1.603   4.935   4.481  0.4380  0.5262  0.4517
 5379TIP3    H137552   1.523   4.906   4.525 -1.1105  2.7633 -0.7904
 5379TIP3    H237553   1.573   4.992   4.411  3.2020  2.5426  0.8192
 5380TIP3   OH237554   3.629   0.434   6.053 -0.0497  0.5616 -0.4402
 5380TIP3    H137555   3.682   0.362   6.087  0.9026  1.0891 -0.7755
 5380TIP3    H237556   3.602   0.482   6.131 -1.0435 -0.3950 -0.1866
 5381TIP3   OH237557   1.061   0.117   0.148 -0.6724 -0.4876  0.2960
 5381TIP3    H137558   1.070   0.079   0.061 -0.4765  0.9878 -0.3414
 5381TIP3    H237559   0.972   0.151   0.150  0.3107  2.2478 -0.4835
 5382TIP3   OH237560   0.845   1.997  10.926 -0.0475 -0.4592  0.7123
 5382TIP3    H137561   0.877   2.055  10.995 -0.9636  1.3011 -0.2903
 5382TIP3    H237562   0.925   1.957  10.890  0.8944  2.0577 -0.1704
 5383TIP3   OH237563   5.970   1.940   4.359  0.1007 -0.3324 -0.5575
 5383TIP3    H137564   6.046   1.891   4.328 -0.2089 -1.3285  0.2385
 5383TIP3    H237565   5.962   2.013   4.298  1.7735 -0.1458 -0.5867
 5384TIP3   OH237566   6.437   0.968  14.618  0.6906  0.3118 -0.4153
 5384TIP3    H137567   6.518   0.967  14.669  1.5332  1.1449 -1.7020
 5384TIP3    H237568   6.402   1.057  14.630 -0.2956 -0.1955  0.5299
 5385TIP3   OH237569   5.998   5.416  16.753  0.3985  0.0980  0.6191
 5385TIP3    H137570   5.937   5.383  16.688  0.5434  0.8792  0.0809
 5385TIP3    H237571   5.960   5.391  16.837  0.6141 -1.6148  0.2248
 5386TIP3   OH237572   4.013   4.116   4.989 -0.2867 -0.3681 -0.0683
 5386TIP3    H137573   3.974   4.073   5.065 -2.1077 -0.2579 -0.8945
 5386TIP3    H237574   4.045   4.200   5.021 -1.0708 -0.3125  0.5798
 5387TIP3   OH237575   6.674   1.778  14.590  0.2093 -0.5909  0.3192
 5387TIP3    H137576   6.686   1.872  14.602  0.4996 -0.4565 -1.0133
 5387TIP3    H237577   6.604   1.755  14.652 -0.1794  0.5752  0.3263
 5388TIP3   OH237578   3.804   5.329  11.283 -0.2394  0.0448 -0.1769
 5388TIP3    H137579   3.824   5.409  11.331  0.7541 -0.8473  0.9245
 5388TIP3    H237580   3.828   5.258  11.343 -3.5543 -1.1130 -0.1129
 5389TIP3   OH237581   4.807   1.584   3.366 -0.0150  0.2969  0.0387
 5389TIP3    H137582   4.797   1.492   3.340 -1.2860  0.8117 -1.3525
 5389TIP3    H237583   4.846   1.626   3.289  0.4168  0.9607  0.6160
 5390TIP3   OH237584   1.302   4.297  15.347 -0.2753 -0.9089 -0.0085
 5390TIP3    H137585   1.237   4.328  15.284 -3.0227  2.0868  4.0158
 5390TIP3    H237586   1.267   4.215  15.380 -0.0139 -1.2803 -0.6426
 5391TIP3   OH237587   0.253   0.541  14.816 -0.8275 -0.4209 -0.0304
 5391TIP3    H137588   0.334   0.520  14.769  0.6724  2.0608  1.3142
 5391TIP3    H237589   0.210   0.606  14.760 -1.7381 -1.4647 -0.5614
 5392TIP3   OH237590   4.566   6.487   3.378 -0.0807  0.4709  0.1606
 5392TIP3    H137591   4.629   6.558   3.366  1.1051 -0.0008  3.1943
 5392TIP3    H237592   4.618   6.407   3.371 -1.3195 -0.1433 -2.7377
 5393TIP3   OH237593   2.297   1.965   5.344 -0.3271 -0.1294 -0.3368
 5393TIP3    H137594   2.388   1.937   5.350 -0.3090  0.0147  0.0154
 5393TIP3    H237595   2.280   2.012   5.425 -0.4002  0.7695 -0.8637
 5394TIP3   OH237596   0.045   0.274   4.791  0.1265 -0.2998 -0.8593
 5394TIP3    H137597   0.074   0.358   4.755  0.6616 -0.9404 -1.9355
 5394TIP3    H237598  -0.025   0.246   4.732  0.4708 -0.9760 -0.9478
 5395TIP3   OH237599   2.017   1.622   0.075 -0.1269 -0.1814  0.9041
 5395TIP3    H137600   2.011   1.539   0.121  1.4054 -0.6211  0.3597
 5395TIP3    H237601   2.099   1.661   0.107  0.0738  0.2876 -0.1406
 5396TIP3   OH237602   1.216   1.906   4.072  0.1665 -0.0875  0.1448
 5396TIP3    H137603   1.137   1.864   4.037 -1.2434  3.8815 -1.7234
 5396TIP3    H237604   1.279   1.903   4.000  0.2055  0.6459  0.1469
 5397TIP3   OH237605   3.923   3.169  13.608  0.3877  0.1175  0.2567
 5397TIP3    H137606   4.017   3.172  13.623  0.2014 -1.4362  1.9407
 5397TIP3    H237607   3.898   3.079  13.629 -1.3287  0.2469 -1.1135
 5398TIP3   OH237608   3.501   5.502   2.612  0.1822  0.1507 -0.6181
 5398TIP3    H137609   3.532   5.518   2.701  0.5378 -0.6398 -0.5911
 5398TIP3    H237610   3.560   5.435   2.578 -0.1435  0.2274 -1.3433
 5399TIP3   OH237611   4.877   3.069  16.864 -0.2983  0.0237 -0.0671
 5399TIP3    H137612   4.929   3.145  16.840 -1.3662  0.8793  0.2981
 5399TIP3    H237613   4.813   3.102  16.927 -1.2211 -1.0279 -0.4328
 5400TIP3   OH237614   5.680   5.624  14.081 -0.4788 -0.0434  0.4880
 5400TIP3    H137615   5.652   5.536  14.104  0.2439 -0.5037 -0.3946
 5400TIP3    H237616   5.606   5.660  14.031  0.1947 -1.0275 -1.2754
 5401TIP3   OH237617   6.223   1.512  15.824  0.0227  0.2726 -0.0589
 5401TIP3    H137618   6.308   1.485  15.788  0.9547  3.1750 -0.1734
 5401TIP3    H237619   6.227   1.486  15.916  1.2495  0.7929  0.0450
 5402TIP3   OH237620   5.085   3.305   3.215  0.1443  0.4620 -0.3388
 5402TIP3    H137621   5.073   3.286   3.308  0.5718  1.5393 -0.0591
 5402TIP3    H237622   5.076   3.219   3.172  3.1928 -0.5806  0.9847
 5403TIP3   OH237623   2.719   0.292  16.451 -0.9371 -0.6226 -0.3637
 5403TIP3    H137624   2.813   0.313  16.453 -0.8799 -0.7883 -1.2611
 5403TIP3    H237625   2.715   0.198  16.469 -0.8632 -0.7896 -1.1763
 5404TIP3   OH237626   4.074   4.933   4.500  0.3728 -0.5474 -0.1580
 5404TIP3    H137627   4.109   5.008   4.453 -0.1272 -0.9573 -1.1945
 5404TIP3    H237628   4.127   4.927   4.580  0.0583  1.2248  0.1895
 5405TIP3   OH237629   1.036   6.613   1.754  0.4275  0.4408 -0.2416
 5405TIP3    H137630   1.075   6.693   1.719  1.1091 -0.1957 -0.9568
 5405TIP3    H237631   1.009   6.563   1.676  0.4381 -0.2340  0.1840
 5406TIP3   OH237632   6.564   0.100  13.384 -0.2315  0.2642  0.1636
 5406TIP3    H137633   6.476   0.125  13.413 -0.3927  1.5383 -1.3760
 5406TIP3    H237634   6.550   0.029  13.322 -0.0891 -0.2436  0.7019
 5407TIP3   OH237635   6.005   1.995  11.019 -0.0208 -0.0843 -0.3858
 5407TIP3    H137636   5.967   1.946  10.946  0.1549 -1.1719  0.2409
 5407TIP3    H237637   6.073   1.938  11.054 -0.7598  0.0042  1.2498
 5408TIP3   OH237638   2.838   6.450  13.045 -0.0148  0.1003 -0.1406
 5408TIP3    H137639   2.797   6.417  12.966  0.4179 -1.4820  0.2708
 5408TIP3    H237640   2.893   6.377  13.076  0.5128  1.0030  1.1137
 5409TIP3   OH237641   2.896   0.952  14.115  0.4690  0.8725  0.6543
 5409TIP3    H137642   2.852   0.947  14.200  1.0931 -0.0595  0.9367
 5409TIP3    H237643   2.892   0.862  14.082  1.7378  0.8889  0.4688
 5410TIP3   OH237644   4.998   3.310   3.483  0.0122  0.0301  0.1761
 5410TIP3    H137645   5.049   3.391   3.482  0.6353 -0.3559 -0.3656
 5410TIP3    H237646   5.036   3.259   3.554 -0.9947  0.5876  1.1278
 5411TIP3   OH237647   2.637   5.845   0.523 -0.3772  0.6847 -0.0832
 5411TIP3    H137648   2.585   5.850   0.603 -2.3356  0.1187 -1.3045
 5411TIP3    H237649   2.663   5.753   0.517 -2.4898  0.1570 -1.4888
 5412TIP3   OH237650   0.168   1.402   4.638  0.4988  0.0571  0.1099
 5412TIP3    H137651   0.095   1.375   4.582 -0.9000  1.2801  1.2973
 5412TIP3    H237652   0.173   1.497   4.627  0.5707  0.2386  1.6090
 5413TIP3   OH237653   0.253   4.942  15.654 -0.1636 -0.1346 -0.0657
 5413TIP3    H137654   0.190   4.976  15.717 -0.3846 -0.5641 -0.0518
 5413TIP3    H237655   0.334   4.990  15.673 -0.1142 -0.5527  0.8241
 5414TIP3   OH237656   5.351   3.655   3.014 -0.1064 -0.6703  0.1862
 5414TIP3    H137657   5.373   3.746   3.036  1.9161 -1.0297 -0.1961
 5414TIP3    H237658   5.379   3.646   2.923 -1.5243 -1.3127 -0.1994
 5415TIP3   OH237659   4.343   0.807  14.400  0.5907  0.4335 -0.3348
 5415TIP3    H137660   4.349   0.727  14.347  0.4591  1.0056 -1.2277
 5415TIP3    H237661   4.404   0.792  14.472  0.7130 -0.3990 -0.5961
 5416TIP3   OH237662   5.974   2.623  13.181  0.3512  0.1935  0.5004
 5416TIP3    H137663   5.949   2.559  13.247  1.6634 -1.5027 -0.6163
 5416TIP3    H237664   5.931   2.594  13.101  1.6277  0.2079 -0.2110
 5417TIP3   OH237665   4.949   6.254  12.875  0.1885  0.2152 -0.4579
 5417TIP3    H137666   4.942   6.321  12.807 -0.5323  1.1248  0.4832
 5417TIP3    H237667   4.983   6.301  12.951 -0.6932 -0.4036  0.3328
 5418TIP3   OH237668   1.431   4.801  15.066  0.2720  0.7601  0.3680
 5418TIP3    H137669   1.456   4.791  15.158  1.1044  1.7845  0.2666
 5418TIP3    H237670   1.371   4.728  15.050  0.0350  0.6235  1.7470
 5419TIP3   OH237671   4.115   2.378   5.052  0.1323 -0.7799 -0.0918
 5419TIP3    H137672   4.042   2.319   5.071 -0.7823  0.6821  1.0583
 5419TIP3    H237673   4.175   2.365   5.126 -0.8699  0.9191  1.0755
 5420TIP3   OH237674   0.060   0.431  11.319 -0.2970 -0.4978 -0.4826
 5420TIP3    H137675   0.097   0.509  11.359 -1.1619 -0.6854  0.7198
 5420TIP3    H237676   0.084   0.437  11.226  0.3250  0.7755 -0.2429
 5421TIP3   OH237677   1.886   5.017  10.782  0.0457 -0.8754  0.0993
 5421TIP3    H137678   1.806   5.027  10.731 -0.8033 -1.8224  1.2271
 5421TIP3    H237679   1.859   4.972  10.862  1.5495 -0.4283  0.8903
 5422TIP3   OH237680   2.071   6.402   4.480 -0.4784 -0.4478 -0.0791
 5422TIP3    H137681   1.979   6.377   4.470 -0.6990  0.7185 -0.9866
 5422TIP3    H237682   2.117   6.350   4.414 -0.8321  0.9133 -1.4131
 5423TIP3   OH237683   4.598   5.955  13.456  0.3730 -0.1638  0.9524
 5423TIP3    H137684   4.646   5.965  13.374  0.2040 -0.6629  0.7908
 5423TIP3    H237685   4.584   6.045  13.487  2.2894 -0.0499  1.5196
 5424TIP3   OH237686   2.055   0.343  16.395  0.1258 -0.5792 -0.0890
 5424TIP3    H137687   2.117   0.284  16.352 -0.9740 -1.6563 -0.1981
 5424TIP3    H237688   2.019   0.293  16.468 -0.5854  0.0514  0.0055
 5425TIP3   OH237689   0.958   1.164  17.180 -0.3759  0.0067  0.3455
 5425TIP3    H137690   1.022   1.093  17.181  0.5617  0.6830 -3.5118
 5425TIP3    H237691   1.005   1.239  17.217 -0.2776 -0.4869  1.2450
 5426TIP3   OH237692   4.831   3.781  11.947  0.0977 -1.0911  0.3602
 5426TIP3    H137693   4.751   3.736  11.972 -1.1150 -0.1724 -1.7246
 5426TIP3    H237694   4.867   3.814  12.030 -2.0857 -0.8395  1.2413
 5427TIP3   OH237695   0.949   2.999  14.037 -0.2271  0.1495 -0.0218
 5427TIP3    H137696   0.867   2.967  13.998  0.0309  0.7717 -1.0875
 5427TIP3    H237697   1.018   2.963  13.982  0.1831  0.2397  0.4310
 5428TIP3   OH237698   2.355   5.140  11.764 -0.0942  0.5509 -0.0313
 5428TIP3    H137699   2.363   5.097  11.849  1.1466  0.3934 -0.2065
 5428TIP3    H237700   2.286   5.205  11.776  0.1268  0.5879  1.1326
 5429TIP3   OH237701   3.248   1.742  11.521 -0.6078  0.1578 -0.3859
 5429TIP3    H137702   3.258   1.760  11.428 -1.0709  1.0527 -0.2632
 5429TIP3    H237703   3.154   1.733  11.534 -0.4812 -1.0761 -0.1977
 5430TIP3   OH237704   1.938   3.988   0.789 -0.6002  0.1418  0.2938
 5430TIP3    H137705   1.965   3.926   0.722  2.3263  2.7643 -1.0774
 5430TIP3    H237706   1.967   3.949   0.871  1.2947 -0.3182 -0.5604
 5431TIP3   OH237707   4.280   1.561   0.450 -0.3112 -0.6623  0.0649
 5431TIP3    H137708   4.310   1.591   0.535 -0.3770 -2.1438  0.6229
 5431TIP3    H237709   4.200   1.611   0.433 -0.7063 -0.9094  1.2080
 5432TIP3   OH237710   5.549   5.093   3.486 -0.0067  0.1892 -0.2053
 5432TIP3    H137711   5.461   5.065   3.511  1.5652 -0.1705  5.6574
 5432TIP3    H237712   5.548   5.188   3.494  0.1026  0.1937 -0.2472
 5433TIP3   OH237713   4.827   1.978  13.434 -0.2404  0.0514  0.1067
 5433TIP3    H137714   4.766   1.976  13.507 -0.5188  1.0921 -0.0776
 5433TIP3    H237715   4.776   2.014  13.361  0.9821  2.4481  0.3672
 5434TIP3   OH237716   2.889   6.407  11.612  0.5828 -0.0438 -0.7382
 5434TIP3    H137717   2.983   6.393  11.619  0.3044 -1.4736  0.4467
 5434TIP3    H237718   2.851   6.348  11.678 -1.1647  0.0757 -1.6039
 5435TIP3   OH237719   4.265   2.069   6.582 -0.6666 -0.1964  0.1354
 5435TIP3    H137720   4.323   2.009   6.536  1.4713  0.5804  1.7656
 5435TIP3    H237721   4.192   2.013   6.610 -0.5892 -1.2445 -1.6404
 5436TIP3   OH237722   4.851   2.404   6.474  0.7692  0.2768 -0.9569
 5436TIP3    H137723   4.863   2.319   6.516 -0.6391 -1.0300 -3.0625
 5436TIP3    H237724   4.926   2.412   6.414 -1.1380 -1.3723 -3.6812
 5437TIP3   OH237725   6.726   6.341   5.908 -0.3065  0.2813  0.4523
 5437TIP3    H137726   6.688   6.287   5.839 -0.0311  0.0249  0.4945
 5437TIP3    H237727   6.804   6.379   5.869 -1.1821  1.6634  0.0350
 5438TIP3   OH237728   3.043   2.329  12.334 -0.1848 -0.6636 -0.1850
 5438TIP3    H137729   3.066   2.330  12.427 -0.3942 -1.0072 -0.1300
 5438TIP3    H237730   3.084   2.250  12.300  1.2510  0.2914 -0.7323
 5439TIP3   OH237731   0.692   5.355   5.905 -0.3199  0.1585  0.0064
 5439TIP3    H137732   0.654   5.442   5.910 -2.9517 -0.9243 -0.4072
 5439TIP3    H237733   0.700   5.337   5.812  2.5330  0.8965  0.0725
 5440TIP3   OH237734   6.570   0.519  14.344 -0.2910 -0.0045  0.1178
 5440TIP3    H137735   6.495   0.473  14.382 -0.1800 -2.6234 -2.6680
 5440TIP3    H237736   6.642   0.501  14.403 -0.8455 -1.2317  0.4235
 5441TIP3   OH237737   4.226   4.901  15.635 -0.5674  0.3480  0.3071
 5441TIP3    H137738   4.313   4.941  15.636 -0.1221 -0.5452 -0.8416
 5441TIP3    H237739   4.174   4.953  15.697  0.9184  0.5694  1.3777
 5442TIP3   OH237740   1.814   4.955  12.937 -0.0840  0.6263  1.0124
 5442TIP3    H137741   1.776   4.943  13.025  0.7834  1.2276  1.4761
 5442TIP3    H237742   1.739   4.954  12.878 -0.4266 -3.0818  1.4069
 5443TIP3   OH237743   1.855   5.370  12.630 -0.7749 -0.2176  0.1649
 5443TIP3    H137744   1.826   5.450  12.586 -0.8188  0.2570  1.0382
 5443TIP3    H237745   1.791   5.357  12.700 -0.6768 -0.9292  0.1201
 5444TIP3   OH237746   1.494   3.304   3.033 -0.5897  0.6580 -0.3081
 5444TIP3    H137747   1.421   3.366   3.035 -1.4586 -0.3455  0.0414
 5444TIP3    H237748   1.517   3.290   3.125 -0.0717  0.8399 -0.4097
 5445TIP3   OH237749   5.401   6.227   0.294  0.4208  0.1098  0.4310
 5445TIP3    H137750   5.482   6.198   0.251 -0.4382 -0.3919 -0.8735
 5445TIP3    H237751   5.340   6.155   0.280 -0.4659  0.7871  0.8215
 5446TIP3   OH237752   0.177   3.579  13.546 -0.7305 -0.2981  0.0135
 5446TIP3    H137753   0.179   3.510  13.480 -3.0471 -2.3185  1.9449
 5446TIP3    H237754   0.091   3.618  13.537 -0.2217  0.9095  0.3569
 5447TIP3   OH237755   5.551   1.833  13.356 -0.6618 -0.4653  0.2163
 5447TIP3    H137756   5.470   1.861  13.400  1.2943  1.2193  2.8741
 5447TIP3    H237757   5.599   1.784  13.423  2.3013  1.9683 -0.0440
 5448TIP3   OH237758   2.380   6.542   0.754  0.1113  0.1532 -0.5455
 5448TIP3    H137759   2.473   6.545   0.775  0.1131  0.4758 -0.5988
 5448TIP3    H237760   2.345   6.624   0.790  0.3646  1.3802 -3.0222
 5449TIP3   OH237761   0.396   6.590  14.306 -0.1652  0.1261 -0.3774
 5449TIP3    H137762   0.348   6.671  14.289 -1.8677 -1.1696 -1.9867
 5449TIP3    H237763   0.479   6.602  14.260 -0.7767  0.6201 -1.3860
 5450TIP3   OH237764   1.026   1.253   1.931  0.2582  0.4451  0.2247
 5450TIP3    H137765   0.979   1.229   1.852  0.9575 -0.1639 -0.0166
 5450TIP3    H237766   0.977   1.327   1.967  0.6850  1.5901 -1.4899
 5451TIP3   OH237767   2.371   3.507  10.907  0.3800 -0.3010 -0.0522
 5451TIP3    H137768   2.463   3.484  10.895  0.4674 -0.6145  1.1104
 5451TIP3    H237769   2.339   3.444  10.973  0.1505  1.7731  1.8600
 5452TIP3   OH237770   0.528   5.390  16.915  0.3249 -0.1024  0.8818
 5452TIP3    H137771   0.440   5.365  16.945  0.8878  0.5316  3.1655
 5452TIP3    H237772   0.533   5.484  16.933  1.9181 -0.3862  2.0227
 5453TIP3   OH237773   4.701   2.184   0.196  0.6605  0.0948 -0.2695
 5453TIP3    H137774   4.761   2.241   0.147  0.5218  0.3551 -0.1367
 5453TIP3    H237775   4.727   2.095   0.171  1.3914  0.1950  0.1293
 5454TIP3   OH237776   1.054   3.838   5.288 -0.3462  0.0218 -0.0644
 5454TIP3    H137777   0.983   3.832   5.224 -0.1468  0.2175 -0.3011
 5454TIP3    H237778   1.009   3.843   5.373 -0.6827  2.4027 -0.3484
 5455TIP3   OH237779   3.331   0.795  16.035  0.1818 -0.2392 -0.1432
 5455TIP3    H137780   3.415   0.780  15.992  0.7743 -0.5643  1.0914
 5455TIP3    H237781   3.288   0.861  15.981 -0.3860 -2.7723 -2.8910
 5456TIP3   OH237782   6.762   1.868   2.510  0.1962  1.1026  0.4695
 5456TIP3    H137783   6.776   1.903   2.422  1.5119 -0.1761  0.1496
 5456TIP3    H237784   6.684   1.814   2.503 -2.4770  4.7167  1.2045
 5457TIP3   OH237785   6.010   5.861  15.088 -0.0131  0.0083  0.2628
 5457TIP3    H137786   6.084   5.922  15.077 -0.2381  0.2690  0.1846
 5457TIP3    H237787   5.935   5.918  15.108 -0.5508 -0.1070 -1.3439
 5458TIP3   OH237788   1.838   4.859  16.146 -0.2679 -0.0535 -0.1349
 5458TIP3    H137789   1.885   4.893  16.222  0.3684 -2.4616  0.5936
 5458TIP3    H237790   1.752   4.834  16.179 -0.6403  0.5768 -0.6078
 5459TIP3   OH237791   1.089   1.372   4.192 -0.0281  0.2331 -0.3475
 5459TIP3    H137792   1.153   1.443   4.187 -0.1275  0.3116 -0.5255
 5459TIP3    H237793   1.087   1.347   4.284  2.2009 -1.5339 -0.7189
 5460TIP3   OH237794   0.716   2.170   5.563  0.0787 -0.1528  0.2990
 5460TIP3    H137795   0.784   2.186   5.628  0.6398 -1.4157  0.0294
 5460TIP3    H237796   0.635   2.199   5.606  0.6950  0.7815  0.8483
 5461TIP3   OH237797   0.192   2.493   0.656  0.4774  0.7132  0.1113
 5461TIP3    H137798   0.247   2.446   0.593 -0.2847  1.2974 -1.0068
 5461TIP3    H237799   0.252   2.518   0.726  1.0663 -1.1232  0.2748
 5462TIP3   OH237800   4.891   6.612  11.157  0.3137  0.7221  0.0698
 5462TIP3    H137801   4.978   6.573  11.148 -0.0410 -0.8420  2.7745
 5462TIP3    H237802   4.900   6.672  11.231 -0.4002  2.1154 -0.9681
 5463TIP3   OH237803   2.094   5.824   4.501 -0.1132 -0.2758  0.3213
 5463TIP3    H137804   2.176   5.776   4.487 -0.3889 -0.3103 -1.2416
 5463TIP3    H237805   2.027   5.770   4.459 -0.2496  2.1046 -2.7039
 5464TIP3   OH237806   6.192   0.319  12.891 -0.0062 -0.6684 -0.0432
 5464TIP3    H137807   6.136   0.393  12.867 -1.0577 -1.9575 -1.7000
 5464TIP3    H237808   6.134   0.259  12.938  0.8504 -0.4472  1.3300
 5465TIP3   OH237809   4.487   3.562  15.203 -0.3917  0.0527  0.1705
 5465TIP3    H137810   4.545   3.637  15.219  0.1816 -0.6055  1.2023
 5465TIP3    H237811   4.463   3.570  15.110  2.2080 -0.2554 -0.5638
 5466TIP3   OH237812   5.611   3.888   4.785 -0.1306  0.6665  0.5182
 5466TIP3    H137813   5.683   3.866   4.726 -1.0555 -0.6584 -0.1459
 5466TIP3    H237814   5.539   3.912   4.726 -0.9509 -0.3143  1.1165
 5467TIP3   OH237815   5.972   4.148  11.953  0.4235 -0.2738  0.3617
 5467TIP3    H137816   5.914   4.083  11.915  0.8186  0.6499 -1.8862
 5467TIP3    H237817   6.060   4.114  11.939  0.6102  0.4709 -0.3315
 5468TIP3   OH237818   1.718   5.796   0.808  0.1312  0.4595  0.2655
 5468TIP3    H137819   1.651   5.736   0.777  0.7082 -1.0138  1.7948
 5468TIP3    H237820   1.752   5.755   0.887  0.3504  2.9387  1.5085
 5469TIP3   OH237821   4.785   1.003   2.342  0.5194 -0.2032 -0.0831
 5469TIP3    H137822   4.798   1.069   2.410 -0.5303 -0.6175  0.5223
 5469TIP3    H237823   4.872   0.991   2.304  0.6653  1.7470 -0.4146
 5470TIP3   OH237824   6.425   2.373  11.744  0.2800 -0.0323 -0.1734
 5470TIP3    H137825   6.364   2.427  11.695  0.5866 -0.5102 -1.0925
 5470TIP3    H237826   6.385   2.286  11.746  0.1417  0.0450  0.6586
 5471TIP3   OH237827   5.530   6.364  13.665 -0.5409  0.0386 -0.1530
 5471TIP3    H137828   5.476   6.362  13.744  0.0319  3.0885  0.3742
 5471TIP3    H237829   5.620   6.359  13.698 -0.2363  2.8114 -0.4465
 5472TIP3   OH237830   5.528   0.751  10.655  0.2767  0.1606 -0.7355
 5472TIP3    H137831   5.569   0.831  10.686 -0.5898  0.4537 -0.3217
 5472TIP3    H237832   5.448   0.743  10.707  0.5268 -1.1534 -0.5406
 5473TIP3   OH237833   0.634   2.933  16.141 -0.5916  0.0189 -0.2085
 5473TIP3    H137834   0.600   2.939  16.230 -0.5097 -0.8003 -0.1201
 5473TIP3    H237835   0.721   2.973  16.146  0.2715 -1.9204  0.5424
 5474TIP3   OH237836   3.331   6.494   6.079 -0.7801 -0.0416 -0.0439
 5474TIP3    H137837   3.293   6.470   5.994 -0.7250 -0.9385  0.1707
 5474TIP3    H237838   3.322   6.414   6.132 -0.9674  0.5662  0.8453
 5475TIP3   OH237839   4.997   4.237   4.547 -0.7098  0.3283 -0.2183
 5475TIP3    H137840   4.974   4.314   4.496  0.6881  1.0979  0.2764
 5475TIP3    H237841   4.988   4.265   4.638 -0.6417 -0.2263 -0.0377
 5476TIP3   OH237842   6.206   4.279  15.662  0.2550  0.5475 -0.4801
 5476TIP3    H137843   6.121   4.290  15.705 -0.1847 -1.4917 -0.7629
 5476TIP3    H237844   6.198   4.327  15.580 -0.7219  0.2064 -0.5997
 5477TIP3   OH237845   2.226   4.061   3.899  0.0198 -0.3283 -0.2825
 5477TIP3    H137846   2.208   4.150   3.868 -2.9935 -0.3679  1.2603
 5477TIP3    H237847   2.234   4.070   3.994 -0.3877 -1.7435 -0.1141
 5478TIP3   OH237848   6.203   0.451  15.073  0.2060 -0.1717 -0.4480
 5478TIP3    H137849   6.125   0.399  15.092 -0.6100  0.9319 -0.7355
 5478TIP3    H237850   6.219   0.499  15.154  0.1816  0.1280 -0.6229
 5479TIP3   OH237851   5.962   0.330   2.732  0.2839  0.0663 -0.0465
 5479TIP3    H137852   5.977   0.307   2.824 -0.9055 -0.2394  0.0810
 5479TIP3    H237853   5.903   0.406   2.735  0.2040  0.0271 -0.5560
 5480TIP3   OH237854   3.157   3.813   6.187 -0.1834 -0.2925 -1.0408
 5480TIP3    H137855   3.093   3.872   6.228  1.0652 -0.0574  0.6321
 5480TIP3    H237856   3.222   3.872   6.149 -0.3390 -0.5552 -1.7255
 5481TIP3   OH237857   0.348   0.152   1.976  0.0802  0.0846  0.2321
 5481TIP3    H137858   0.442   0.150   1.960  0.2385  0.2321  1.1334
 5481TIP3    H237859   0.335   0.097   2.053 -0.4752  0.7050  0.5853
 5482TIP3   OH237860   0.973   1.942   0.139 -0.3907  0.0701 -0.2537
 5482TIP3    H137861   0.945   2.018   0.088 -0.2195 -0.8826 -1.8268
 5482TIP3    H237862   0.914   1.872   0.112 -1.1480 -0.1334  1.8772
 5483TIP3   OH237863   0.573   5.035  12.002 -0.1628 -0.6035  0.2798
 5483TIP3    H137864   0.573   5.120  11.958  0.5021 -0.7988 -0.1034
 5483TIP3    H237865   0.481   5.010  12.005 -0.4259  0.4425  1.0048
 5484TIP3   OH237866   3.011   4.969  13.403  0.0390 -0.2735  0.3425
 5484TIP3    H137867   2.943   4.966  13.336  1.0456 -2.9751 -0.6078
 5484TIP3    H237868   2.989   4.898  13.463  0.0927  1.0663  1.9820
 5485TIP3   OH237869   0.523   5.439   1.978 -0.0078  0.1390 -0.6224
 5485TIP3    H137870   0.479   5.504   1.923  1.2841  0.9937 -0.6822
 5485TIP3    H237871   0.461   5.422   2.049 -1.3288 -0.3295 -1.8770
 5486TIP3   OH237872   6.359   5.955  16.782 -0.8127 -0.1577 -0.1578
 5486TIP3    H137873   6.392   5.958  16.692  0.1246 -1.8604  0.1050
 5486TIP3    H237874   6.268   5.928  16.774 -0.2088 -2.1235 -0.4994
 5487TIP3   OH237875   6.583   3.896  16.144 -0.4003 -0.6319  0.2270
 5487TIP3    H137876   6.499   3.914  16.187 -0.9573 -2.0025 -0.2334
 5487TIP3    H237877   6.558   3.847  16.065  0.7606 -0.0714 -0.4930
 5488TIP3   OH237878   3.335   6.184   2.691  0.2406 -0.1511 -0.0218
 5488TIP3    H137879   3.401   6.212   2.628 -0.2918  1.7900  0.2687
 5488TIP3    H237880   3.364   6.221   2.775 -0.9486  0.3060  0.1942
 5489TIP3   OH237881   3.006   0.986  13.786 -0.3673  0.3945  0.6275
 5489TIP3    H137882   3.023   0.903  13.741 -0.3547  0.8250 -0.1766
 5489TIP3    H237883   2.911   0.996  13.784 -0.5164 -0.5808  2.5156
 5490TIP3   OH237884   1.641   3.697   0.322  0.5104 -0.2586  0.2388
 5490TIP3    H137885   1.692   3.774   0.299 -0.9315  1.4223  2.4192
 5490TIP3    H237886   1.693   3.653   0.389  1.1389 -0.9682 -0.7077
 5491TIP3   OH237887   2.406   6.693   0.444  0.8274  0.2801  0.0723
 5491TIP3    H137888   2.388   6.787   0.456  1.4819  0.2731  1.1185
 5491TIP3    H237889   2.448   6.689   0.358 -0.9715  0.6998 -0.8632
 5492TIP3   OH237890   0.266   4.449   0.895 -0.4735 -0.6086 -0.0021
 5492TIP3    H137891   0.189   4.500   0.920 -0.0684  0.9691 -1.8700
 5492TIP3    H237892   0.284   4.476   0.805  0.9650 -2.5800 -0.3414
 5493TIP3   OH237893   1.692   6.513   2.456 -0.8797 -0.0506 -0.0099
 5493TIP3    H137894   1.616   6.515   2.397  0.0429  2.5637 -1.1874
 5493TIP3    H237895   1.659   6.553   2.537 -1.3637 -1.0220  0.2828
 5494TIP3   OH237896   1.429   2.508  16.983 -0.5570 -0.2068  0.0106
 5494TIP3    H137897   1.436   2.413  16.998 -4.2861 -0.4706  0.6726
 5494TIP3    H237898   1.470   2.547  17.060 -0.3362 -1.3372  0.4855
 5495TIP3   OH237899   0.151   1.429   3.504  0.2951 -0.7485  0.8615
 5495TIP3    H137900   0.199   1.453   3.425  0.2386 -0.7356  0.8311
 5495TIP3    H237901   0.110   1.510   3.533 -0.4811 -0.9623  0.3585
 5496TIP3   OH237902   0.593   4.087  15.121 -0.4251 -0.4410 -0.2090
 5496TIP3    H137903   0.629   4.001  15.100  0.5992 -0.3893  1.2291
 5496TIP3    H237904   0.560   4.121  15.038  2.4773 -0.6809 -1.5057
 5497TIP3   OH237905   5.229   4.456  11.270 -0.0509 -0.0628  0.1673
 5497TIP3    H137906   5.300   4.392  11.262  1.7747  2.0026 -0.4009
 5497TIP3    H237907   5.267   4.538  11.241 -3.0937  0.8348 -1.4845
 5498TIP3   OH237908   0.038   0.068  15.352  0.0605 -0.0122  0.3067
 5498TIP3    H137909   0.091   0.085  15.273  0.1731  0.3408  0.4543
 5498TIP3    H237910  -0.012   0.149  15.364  1.2508  0.5572  1.5289
 5499TIP3   OH237911   6.152   2.367  15.545 -0.9231  0.2945  0.0413
 5499TIP3    H137912   6.229   2.311  15.548 -0.1860  1.3926  2.7960
 5499TIP3    H237913   6.162   2.417  15.463 -0.0170 -1.3484 -0.8721
 5500TIP3   OH237914   2.643   2.984  17.057  0.6958  0.1937 -0.0667
 5500TIP3    H137915   2.552   2.955  17.051  0.7631  0.1966 -1.2127
 5500TIP3    H237916   2.668   2.967  17.148 -0.6068  0.6854  0.3960
 5501TIP3   OH237917   2.387   6.428   4.172 -0.3413  0.4470 -0.1900
 5501TIP3    H137918   2.332   6.360   4.135 -0.4678  0.3934  0.0975
 5501TIP3    H237919   2.431   6.468   4.096 -0.2471  0.0324 -0.3524
 5502TIP3   OH237920   0.308   5.868   3.325 -0.0801  0.2600  0.1229
 5502TIP3    H137921   0.238   5.851   3.388 -0.0591 -0.7384 -0.1142
 5502TIP3    H237922   0.380   5.902   3.377 -1.0277  2.1185  0.2636
 5503TIP3   OH237923   4.372   4.383  13.328 -0.0999  0.0089  0.0739
 5503TIP3    H137924   4.422   4.436  13.390 -1.9048  0.3140  1.3078
 5503TIP3    H237925   4.293   4.435  13.310 -2.2651 -2.5333  1.8648
 5504TIP3   OH237926   1.716   5.646   5.515  0.1507 -0.4652  0.1344
 5504TIP3    H137927   1.662   5.634   5.593  0.7571  0.5445  0.7147
 5504TIP3    H237928   1.805   5.624   5.543  0.8260  2.5626  0.4965
 5505TIP3   OH237929   3.609   2.761   0.726 -0.0825  0.0657  0.1420
 5505TIP3    H137930   3.609   2.844   0.774  1.2899 -0.2514  0.7174
 5505TIP3    H237931   3.540   2.771   0.661 -0.7934  1.1761  1.0399
 5506TIP3   OH237932   2.699   2.867   1.962  0.2422 -0.8576  0.0310
 5506TIP3    H137933   2.755   2.938   1.993  1.3510 -1.3860 -0.7162
 5506TIP3    H237934   2.735   2.788   2.003  0.0079 -1.1914 -0.3981
 5507TIP3   OH237935   4.881   2.545   0.333 -0.2993 -0.4802  0.1695
 5507TIP3    H137936   4.959   2.532   0.280  0.0424 -1.1364  0.8169
 5507TIP3    H237937   4.910   2.530   0.423 -0.8493  0.7213  0.5491
 5508TIP3   OH237938   2.965   4.076  17.175  0.5758 -0.4199  0.3249
 5508TIP3    H137939   3.012   4.047  17.253 -1.3953 -0.6413  1.4747
 5508TIP3    H237940   2.885   4.022  17.174 -1.1554  2.0925  0.1836
 5509TIP3   OH237941   6.725   4.063   4.368 -0.6629  0.5817 -0.0864
 5509TIP3    H137942   6.708   4.008   4.291  0.1185  0.3752 -0.1122
 5509TIP3    H237943   6.742   4.150   4.332 -0.7095  0.5759 -0.1229
 5510TIP3   OH237944   5.484   0.013   1.273  0.4010 -0.1687  0.3874
 5510TIP3    H137945   5.437  -0.070   1.272  1.3144 -0.6798 -1.8296
 5510TIP3    H237946   5.415   0.079   1.289 -1.2625 -0.8132 -3.6274
 5511TIP3   OH237947   4.005   4.358   1.441 -0.0991 -0.4443 -0.3659
 5511TIP3    H137948   3.966   4.302   1.374  0.7944 -0.5356 -0.8132
 5511TIP3    H237949   4.090   4.319   1.458 -0.2203 -0.2670  0.6391
 5512TIP3   OH237950   0.433   3.606  12.053 -0.1380 -0.1887  0.4001
 5512TIP3    H137951   0.520   3.638  12.028  0.3699 -1.0664  0.9987
 5512TIP3    H237952   0.444   3.511  12.059 -0.7465 -0.1674  2.0236
 5513TIP3   OH237953   0.063   4.474  15.198 -0.0471  0.6045 -0.1388
 5513TIP3    H137954   0.043   4.558  15.157  2.0486  1.8618  1.3304
 5513TIP3    H237955   0.142   4.443  15.154 -1.5771 -1.2843 -1.6109
 5514TIP3   OH237956   1.241   5.050   0.096  0.0162 -0.2111 -1.0317
 5514TIP3    H137957   1.234   5.134   0.140  0.1537 -0.9101  0.3411
 5514TIP3    H237958   1.163   5.001   0.124  0.8317 -1.1776 -0.4309
 5515TIP3   OH237959   5.729   0.309  13.398  0.2272  0.2952  0.1427
 5515TIP3    H137960   5.634   0.317  13.389  0.2874  0.1128 -0.7011
 5515TIP3    H237961   5.743   0.290  13.491 -0.6346 -0.8608  0.0409
 5516TIP3   OH237962   4.414   6.418  12.861 -0.3340  0.5366 -0.2606
 5516TIP3    H137963   4.479   6.467  12.910  1.6831 -0.2968 -2.0125
 5516TIP3    H237964   4.388   6.477  12.790 -0.7120  0.4614 -0.1876
 5517TIP3   OH237965   0.128   6.370  14.886 -0.4424  0.3083  0.0867
 5517TIP3    H137966   0.154   6.279  14.871 -1.1212  0.1539 -0.1397
 5517TIP3    H237967   0.038   6.375  14.855 -1.3355  0.3859  2.6165
 5518TIP3   OH237968   1.385   0.969  13.200  0.7343  0.1015 -0.6612
 5518TIP3    H137969   1.305   0.943  13.154  0.7596  0.0194 -0.6594
 5518TIP3    H237970   1.455   0.956  13.135  0.7471  0.1593 -0.6585
 5519TIP3   OH237971   6.471   6.394  15.641 -0.3343 -0.3811 -0.0327
 5519TIP3    H137972   6.498   6.415  15.730 -0.9622 -0.7243  0.2361
 5519TIP3    H237973   6.548   6.416  15.587  0.4452 -1.2316  0.7172
 5520TIP3   OH237974   5.749   0.301   2.544  0.7889  0.0094 -0.2898
 5520TIP3    H137975   5.732   0.209   2.525 -1.3825  0.3700 -0.2364
 5520TIP3    H237976   5.813   0.299   2.616  1.7299 -1.4278 -1.1391
 5521TIP3   OH237977   6.667   3.538  16.225  0.2578 -0.1022 -0.5279
 5521TIP3    H137978   6.733   3.565  16.289  0.6283 -1.6587 -0.2441
 5521TIP3    H237979   6.690   3.587  16.145 -0.2897  1.9570  0.5372
 5522TIP3   OH237980   0.696   4.276  16.117  0.3451 -0.5055  0.0975
 5522TIP3    H137981   0.769   4.271  16.178  0.5595 -1.2699 -0.2189
 5522TIP3    H237982   0.731   4.244  16.034 -0.1951 -0.3337 -0.2018
 5523TIP3   OH237983   1.896   5.764   1.067  0.8104 -0.0058  0.2265
 5523TIP3    H137984   1.929   5.686   1.112 -2.2698 -1.1556  0.6574
 5523TIP3    H237985   1.929   5.755   0.977  3.2841 -0.0165  1.0888
 5524TIP3   OH237986   0.651   5.557  13.219  0.6185 -0.4157 -0.0514
 5524TIP3    H137987   0.570   5.596  13.186  0.3364 -0.6053  0.4017
 5524TIP3    H237988   0.717   5.625  13.209 -0.1779  0.7254  2.0829
 5525TIP3   OH237989   6.626   5.296  16.224 -0.6263 -0.2884 -0.0794
 5525TIP3    H137990   6.662   5.212  16.193 -1.1158 -0.5493  0.0559
 5525TIP3    H237991   6.562   5.320  16.156 -1.3587 -0.6251  0.4862
 5526TIP3   OH237992   0.290   6.613  11.920  0.3282  0.0166 -0.1222
 5526TIP3    H137993   0.287   6.537  11.862  0.0345 -1.8939  2.3595
 5526TIP3    H237994   0.382   6.622  11.944 -0.0016 -1.1390  1.6226
 5527TIP3   OH237995   1.890   2.181  11.074  0.3512 -0.0639  0.4097
 5527TIP3    H137996   1.889   2.137  10.989  1.5597  2.2245 -0.8637
 5527TIP3    H237997   1.957   2.136  11.124  2.0301  0.6853 -1.1036
 5528TIP3   OH237998   1.199   5.301  15.354  0.1781  0.1543 -0.2189
 5528TIP3    H137999   1.187   5.245  15.277  1.1632  1.1830 -1.1299
 5528TIP3    H238000   1.109   5.320  15.383 -0.3051  2.1972 -2.9011
 5529TIP3   OH238001   0.215   0.794   5.824 -0.2744 -0.2805 -0.3660
 5529TIP3    H138002   0.135   0.744   5.807  0.3497 -1.3508 -0.1903
 5529TIP3    H238003   0.243   0.765   5.911 -0.0310  0.5523 -0.1595
 5530TIP3   OH238004   3.811   6.579   3.940 -0.3195 -0.6556  0.4916
 5530TIP3    H138005   3.791   6.486   3.930  1.4804 -0.9571 -0.4663
 5530TIP3    H238006   3.727   6.623   3.922 -0.5486 -1.9586 -1.9446
 5531TIP3   OH238007   3.679   4.138  12.973  0.4846 -0.2344 -0.0510
 5531TIP3    H138008   3.693   4.196  13.048 -1.1224  0.5299 -0.3065
 5531TIP3    H238009   3.765   4.129  12.932  1.3156 -0.3815  1.6733
 5532TIP3   OH238010   5.573   4.319   1.705 -0.1428  0.0583  0.0672
 5532TIP3    H138011   5.649   4.330   1.648 -0.2798 -3.5209 -0.9119
 5532TIP3    H238012   5.510   4.384   1.673  1.0837  0.4545 -1.6109
 5533TIP3   OH238013   2.694   0.691  16.486 -0.6604  0.3048 -0.5370
 5533TIP3    H138014   2.784   0.669  16.509 -1.8515 -1.5952  2.6837
 5533TIP3    H238015   2.684   0.662  16.395  2.0456  0.8702 -1.0387
 5534TIP3   OH238016   4.315   4.104  13.316  0.3234 -0.1858  0.0378
 5534TIP3    H138017   4.347   4.194  13.316  0.5819 -0.2704 -0.6624
 5534TIP3    H238018   4.259   4.098  13.393 -0.5301  0.8790 -0.4794
 5535TIP3   OH238019   4.406   1.825   3.985  0.3045  0.0653 -0.0184
 5535TIP3    H138020   4.432   1.900   3.932  2.8773  0.6777  1.9990
 5535TIP3    H238021   4.311   1.822   3.977  0.3498  2.1255 -1.9759
 5536TIP3   OH238022   1.581   0.549  10.406  0.2828  0.5520  0.1585
 5536TIP3    H138023   1.551   0.639  10.398  2.3355  1.2078 -0.4849
 5536TIP3    H238024   1.588   0.518  10.316 -0.7149 -0.3780  0.3832
 5537TIP3   OH238025   6.555   1.146   2.713 -0.2112 -0.3399  0.0187
 5537TIP3    H138026   6.512   1.074   2.666 -0.6599 -0.2485  0.2884
 5537TIP3    H238027   6.516   1.225   2.678 -0.5907 -0.2733  0.5912
 5538TIP3   OH238028   4.573   2.610   2.791  0.2889  0.4156  0.0214
 5538TIP3    H138029   4.588   2.664   2.713  0.0640 -0.9989 -1.0135
 5538TIP3    H238030   4.590   2.521   2.762  1.9682  0.0345  2.0577
 5539TIP3   OH238031   5.121   2.813   4.956  0.5368 -0.0781  0.4489
 5539TIP3    H138032   5.116   2.725   4.918  0.6792  0.3506 -0.5990
 5539TIP3    H238033   5.172   2.801   5.036 -0.4927 -1.1487  0.9591
 5540TIP3   OH238034   6.266   1.103   6.286 -0.2432  0.0478 -0.2508
 5540TIP3    H138035   6.345   1.049   6.287  0.4591  1.0517  1.0465
 5540TIP3    H238036   6.194   1.040   6.291  0.5262 -0.8124  0.2854
 5541TIP3   OH238037   4.726   3.622  12.869  0.4837 -0.1947 -0.2970
 5541TIP3    H138038   4.793   3.567  12.828 -2.0899 -2.2010 -2.0149
 5541TIP3    H238039   4.717   3.588  12.958  0.5315 -1.0623 -0.6217
 5542TIP3   OH238040   0.329   6.712  15.159  0.7389  0.6490 -0.2602
 5542TIP3    H138041   0.378   6.737  15.081  1.4624  1.9457  0.5993
 5542TIP3    H238042   0.285   6.792  15.186  0.0943  0.0839  0.3844
 5543TIP3   OH238043   0.399   4.190   0.262 -0.5258 -0.3856  0.1288
 5543TIP3    H138044   0.450   4.271   0.248  0.3183 -0.8832  0.2878
 5543TIP3    H238045   0.327   4.217   0.318 -0.3466  0.2992  0.0431
 5544TIP3   OH238046   0.710   5.793  14.178 -0.7507 -0.2287  0.1038
 5544TIP3    H138047   0.754   5.818  14.260 -0.9415  2.6456 -0.6021
 5544TIP3    H238048   0.767   5.728  14.139  0.1909 -0.4177  1.7463
 5545TIP3   OH238049   1.959   1.055   3.182 -0.3438  0.2183 -0.0131
 5545TIP3    H138050   1.884   0.997   3.192 -0.8414  1.2373  2.8329
 5545TIP3    H238051   1.930   1.123   3.122 -0.8958 -0.6736 -0.7592
 5546TIP3   OH238052   3.315   1.404  12.403 -0.4559  0.3012  0.2825
 5546TIP3    H138053   3.335   1.348  12.478  2.7354  0.7157 -0.1836
 5546TIP3    H238054   3.277   1.345  12.339  1.0159 -0.9753  0.5524
 5547TIP3   OH238055   2.946   6.436   6.091 -0.1975 -0.6693  0.3170
 5547TIP3    H138056   2.864   6.482   6.071  0.3301  0.6604  1.1872
 5547TIP3    H238057   2.944   6.422   6.186 -0.8662 -3.4937 -0.0396
 5548TIP3   OH238058   1.122   0.167   3.556  0.4484 -0.3309 -0.3518
 5548TIP3    H138059   1.064   0.135   3.487 -2.0349  0.7594  1.1596
 5548TIP3    H238060   1.190   0.100   3.563 -0.3491 -1.4107 -2.4967
 5549TIP3   OH238061   1.005   2.092   4.067  0.4828 -0.0326  0.6402
 5549TIP3    H138062   1.018   2.181   4.100 -2.1168  0.0166  1.6647
 5549TIP3    H238063   1.086   2.046   4.089  0.2039  0.9577  3.9296
 5550TIP3   OH238064   2.494   6.698  16.652  0.2312  0.4750 -0.2637
 5550TIP3    H138065   2.473   6.607  16.631  0.6185 -0.0498  1.5251
 5550TIP3    H238066   2.426   6.725  16.714  0.9887  0.8948  0.3963
 5551TIP3   OH238067   3.331   2.410   0.274  0.2493 -0.3742 -0.2938
 5551TIP3    H138068   3.284   2.351   0.215 -1.1146  0.2945  0.1044
 5551TIP3    H238069   3.330   2.494   0.229 -0.6542  0.1001  0.6088
 5552TIP3   OH238070   0.461   1.430   2.446  0.1831 -0.1011  0.5640
 5552TIP3    H138071   0.402   1.501   2.472  0.2718  0.0102  0.4591
 5552TIP3    H238072   0.515   1.415   2.523 -1.1825 -1.4279  1.2930
 5553TIP3   OH238073   3.305   4.555   2.322  0.4614  0.6383  0.0021
 5553TIP3    H138074   3.285   4.468   2.286  1.2845  0.4308  0.0455
 5553TIP3    H238075   3.232   4.574   2.381  0.2492  0.0036 -0.0534
 5554TIP3   OH238076   3.591   1.435   1.675 -0.1524  0.4208 -0.6784
 5554TIP3    H138077   3.527   1.493   1.717 -0.8651 -1.1710  0.5132
 5554TIP3    H238078   3.537   1.366   1.635  0.6898  0.4416 -1.8613
 5555TIP3   OH238079   0.694   3.009   0.529  0.1103 -0.0060 -0.3456
 5555TIP3    H138080   0.742   3.002   0.611 -0.7277  0.0084  0.1463
 5555TIP3    H238081   0.647   3.092   0.536 -0.6379 -0.4188 -0.4759
 5556TIP3   OH238082   0.962   5.541  11.487 -0.2020 -0.0636  0.1390
 5556TIP3    H138083   0.975   5.509  11.576  0.2949  1.7965  0.7658
 5556TIP3    H238084   0.995   5.631  11.489  0.1744 -0.1192 -2.0199
 5557TIP3   OH238085   3.107   4.687   1.640 -0.2168 -0.5136  0.2028
 5557TIP3    H138086   3.068   4.601   1.654  0.3796 -1.4536 -3.5128
 5557TIP3    H238087   3.035   4.740   1.607  0.0572 -0.3134 -0.0662
 5558TIP3   OH238088   0.327   6.515  13.699  0.2672 -0.1415 -0.4935
 5558TIP3    H138089   0.333   6.444  13.635  2.5117  0.1803 -0.6899
 5558TIP3    H238090   0.347   6.474  13.783  0.1529 -0.0139 -0.4034
 5559TIP3   OH238091   0.833   0.701   0.646 -0.8419  0.4671  0.5279
 5559TIP3    H138092   0.890   0.633   0.611  1.6922  1.3114  2.8759
 5559TIP3    H238093   0.824   0.764   0.574  1.3006  0.3620  0.1571
 5560TIP3   OH238094   5.745   2.364  16.834  0.0190  0.3985 -0.2710
 5560TIP3    H138095   5.744   2.446  16.785  0.2059  0.8409  0.4607
 5560TIP3    H238096   5.655   2.352  16.863 -0.4988 -0.8097 -2.2686
 5561TIP3   OH238097   1.421   2.923   2.264  0.3773  0.2883 -0.0501
 5561TIP3    H138098   1.463   2.988   2.320  1.5137 -0.3369 -0.1608
 5561TIP3    H238099   1.491   2.891   2.208 -0.1006 -1.2799  0.2325
 5562TIP3   OH238100   5.662   1.863  16.431 -0.2866  0.0581 -0.7578
 5562TIP3    H138101   5.711   1.884  16.511 -0.8680 -1.6671  0.0708
 5562TIP3    H238102   5.726   1.870  16.361  0.4148  0.8454 -0.0496
 5563TIP3   OH238103   2.381   5.129   3.912  0.0011 -0.0565  0.1612
 5563TIP3    H138104   2.431   5.094   3.985  0.5340 -0.1144 -0.2256
 5563TIP3    H238105   2.447   5.167   3.854 -0.5066  0.8412  0.1756
 5564TIP3   OH238106   1.642   2.480  14.764 -0.2679  0.1704 -0.1498
 5564TIP3    H138107   1.594   2.481  14.681  0.3084  0.4147 -0.4780
 5564TIP3    H238108   1.734   2.480  14.739 -0.0915  0.4211  0.4920
 5565TIP3   OH238109   3.555   3.588  11.487  0.3262 -0.5148 -0.1977
 5565TIP3    H138110   3.609   3.634  11.552 -0.1937 -0.5192  0.2406
 5565TIP3    H238111   3.590   3.499  11.486 -0.1636 -0.7245  0.6496
 5566TIP3   OH238112   2.868   2.127  13.583  0.3990 -0.3786  0.4836
 5566TIP3    H138113   2.811   2.204  13.586  0.2870 -0.4876  1.4068
 5566TIP3    H238114   2.900   2.124  13.493  0.4257  0.7581  0.4452
 5567TIP3   OH238115   6.284   1.939   5.779  0.1903  0.3293 -0.5428
 5567TIP3    H138116   6.350   1.875   5.752  0.1694  0.1964 -0.2836
 5567TIP3    H238117   6.335   2.011   5.815  0.1623 -0.1961  0.5603
 5568TIP3   OH238118   4.508   4.086   1.116  0.2044  0.3404 -0.4381
 5568TIP3    H138119   4.520   3.998   1.151 -1.9614  0.4371  0.6289
 5568TIP3    H238120   4.523   4.077   1.022 -0.6727 -1.3164 -0.4327
 5569TIP3   OH238121   4.148   2.518   2.559 -0.1574  0.0790 -0.2609
 5569TIP3    H138122   4.154   2.579   2.486 -0.1612  0.5501  0.1280
 5569TIP3    H238123   4.235   2.478   2.565  0.0342  0.5097 -0.1214
 5570TIP3   OH238124   1.801   0.984   2.407 -0.6690  0.0352 -0.3501
 5570TIP3    H138125   1.836   0.981   2.496 -1.3440 -1.3759 -0.1268
 5570TIP3    H238126   1.791   1.078   2.389 -1.6438  0.3139  1.4959
 5571TIP3   OH238127   1.782   5.191  14.351 -0.2689 -0.5396  0.3533
 5571TIP3    H138128   1.757   5.125  14.286  0.8001 -0.0246 -0.5880
 5571TIP3    H238129   1.705   5.248  14.357 -0.3435 -0.5387 -0.5177
 5572TIP3   OH238130   6.392   4.158  12.256 -0.7173 -0.3853  0.2870
 5572TIP3    H138131   6.340   4.104  12.197  0.6233  0.7400 -1.9942
 5572TIP3    H238132   6.480   4.157  12.219 -0.3221  2.0937  1.0523
 5573TIP3   OH238133   5.429   6.140  16.280 -0.6198  0.2709  0.1621
 5573TIP3    H138134   5.505   6.093  16.315  0.7330  1.4520 -1.1382
 5573TIP3    H238135   5.355   6.080  16.293  0.8224 -1.5847 -0.1253
 5574TIP3   OH238136   1.525   4.114   3.584  0.2960 -0.0160  0.3999
 5574TIP3    H138137   1.471   4.067   3.520 -0.7572  0.5598  0.8593
 5574TIP3    H238138   1.597   4.150   3.532  0.8132 -1.6450 -0.0524
 5575TIP3   OH238139   3.437   2.425  16.336 -0.0076 -0.2271  0.6170
 5575TIP3    H138140   3.480   2.510  16.350 -0.6096  0.0478  0.8192
 5575TIP3    H238141   3.344   2.443  16.349 -0.0761 -1.0638  1.3699
 5576TIP3   OH238142   5.713   5.668   4.191  0.4236 -0.2544  0.4350
 5576TIP3    H138143   5.737   5.576   4.178  2.2538  0.2749 -0.0542
 5576TIP3    H238144   5.691   5.674   4.284  1.8868 -0.8341  0.8328
 5577TIP3   OH238145   1.547   5.583   0.989  0.6305 -0.3837  0.2777
 5577TIP3    H138146   1.628   5.535   0.973  0.2295 -0.9920  0.0677
 5577TIP3    H238147   1.491   5.560   0.915 -0.1588 -0.8864  1.0302
 5578TIP3   OH238148   6.783   3.003  15.299 -0.4864  0.1024 -0.1395
 5578TIP3    H138149   6.807   2.937  15.364 -1.2291  0.2856  0.3214
 5578TIP3    H238150   6.696   3.033  15.325 -0.0806  1.4014 -0.2432
 5579TIP3   OH238151   0.560   4.529   0.872 -0.3900 -0.3746  0.0321
 5579TIP3    H138152   0.507   4.540   0.793 -1.7748  0.2068  1.0466
 5579TIP3    H238153   0.648   4.556   0.845 -1.4825  2.8420 -0.4743
 5580TIP3   OH238154   3.218   5.980  14.432  0.1257 -0.2988  0.4512
 5580TIP3    H138155   3.227   5.917  14.504 -0.1081  0.5234  1.2042
 5580TIP3    H238156   3.302   6.025  14.429 -0.1462  0.2376  0.7527
 5581TIP3   OH238157   0.000   4.659  15.465 -0.2820 -0.2619  0.2205
 5581TIP3    H138158   0.049   4.602  15.406 -1.7812 -0.9054 -0.4138
 5581TIP3    H238159   0.032   4.636  15.552  0.8972 -0.3117 -0.2086
 5582TIP3   OH238160   2.393   4.588   1.405 -0.4139 -0.0317  0.0557
 5582TIP3    H138161   2.304   4.602   1.373 -0.7796 -0.4796  0.8654
 5582TIP3    H238162   2.418   4.672   1.443 -0.0668  0.4336 -1.1635
 5583TIP3   OH238163   3.647   1.907  13.064 -0.3609  0.1817  0.1408
 5583TIP3    H138164   3.556   1.936  13.067  0.0222  1.1842  2.5412
 5583TIP3    H238165   3.654   1.841  13.133 -0.1062 -2.5137 -2.3565
 5584TIP3   OH238166   0.785   3.484   4.645 -0.0867  0.1008  0.5925
 5584TIP3    H138167   0.852   3.471   4.711  0.3150  1.6756  0.5173
 5584TIP3    H238168   0.833   3.512   4.567 -0.6538 -0.6686 -0.0516
 5585TIP3   OH238169   2.319   3.153   5.702  0.6869 -0.2465 -0.2218
 5585TIP3    H138170   2.312   3.105   5.785 -1.6194  0.3937 -0.0302
 5585TIP3    H238171   2.257   3.110   5.644 -0.0909  1.3805 -0.6084
 5586TIP3   OH238172   3.986   0.404   5.478  0.0975  0.4429 -0.2342
 5586TIP3    H138173   3.958   0.337   5.540 -0.7283  0.7095 -0.3052
 5586TIP3    H238174   3.932   0.480   5.499 -0.7245  0.2992 -1.7501
 5587TIP3   OH238175   6.252   1.655  13.863  0.3203 -0.4540 -0.5312
 5587TIP3    H138176   6.303   1.575  13.849  1.4568  0.0719  0.4432
 5587TIP3    H238177   6.289   1.718  13.801 -0.2756 -0.5550 -0.9890
 5588TIP3   OH238178   2.685   1.344  15.110  0.3240  0.4870 -0.6823
 5588TIP3    H138179   2.627   1.273  15.139 -0.6541  0.8753 -1.6443
 5588TIP3    H238180   2.737   1.365  15.187 -0.1114 -0.5586 -0.0858
 5589TIP3   OH238181   5.214   5.230   2.362  0.0689 -0.0947 -0.0099
 5589TIP3    H138182   5.171   5.227   2.447  0.8210 -0.2693  0.3763
 5589TIP3    H238183   5.190   5.147   2.319 -1.8360  0.8135 -0.7454
 5590TIP3   OH238184   5.852   4.918   4.271 -0.6325 -0.1817  0.2638
 5590TIP3    H138185   5.771   4.868   4.261 -0.2280 -1.3575  2.5853
 5590TIP3    H238186   5.826   5.009   4.261 -1.7789 -0.6810 -1.6455
 5591TIP3   OH238187   2.650   1.908   3.088  0.4643 -0.4322 -0.3122
 5591TIP3    H138188   2.685   1.908   3.178 -1.3179  1.3126  0.4219
 5591TIP3    H238189   2.591   1.983   3.086  2.8716  1.4982 -3.9158
 5592TIP3   OH238190   0.929   5.247   1.730  0.1641 -0.1277  0.2535
 5592TIP3    H138191   0.867   5.319   1.716 -2.7440 -1.9526  3.0917
 5592TIP3    H238192   0.963   5.262   1.818  0.7423 -1.3497  0.2478
 5593TIP3   OH238193   0.197   4.960  12.619  0.0125  0.7300 -0.3419
 5593TIP3    H138194   0.152   4.878  12.641  0.6352  1.0523  2.2849
 5593TIP3    H238195   0.149   5.027  12.668  0.9118  1.6131 -0.6632
 5594TIP3   OH238196   3.783   0.978   4.866  0.2800  0.0437 -0.2469
 5594TIP3    H138197   3.859   0.923   4.881 -0.4944 -1.4691 -1.6854
 5594TIP3    H238198   3.819   1.063   4.841  1.4855 -0.2195  0.6023
 5595TIP3   OH238199   2.323   4.706  15.211 -0.2528  0.6636 -0.2829
 5595TIP3    H138200   2.406   4.753  15.215  0.1182 -0.0561  1.2022
 5595TIP3    H238201   2.264   4.764  15.164  1.2054  1.0143 -1.7217
 5596TIP3   OH238202   0.243   1.556  14.214  0.3207  0.6548 -0.6903
 5596TIP3    H138203   0.191   1.506  14.151 -1.0432 -0.3202  1.1488
 5596TIP3    H238204   0.228   1.648  14.190  0.0968  0.2847 -1.9960
 5597TIP3   OH238205   5.484   5.520   5.556 -0.2600  0.4908 -0.5693
 5597TIP3    H138206   5.404   5.502   5.507  0.9114 -2.4415 -1.5350
 5597TIP3    H238207   5.536   5.577   5.499 -0.1340 -0.5622 -1.5251
 5598TIP3   OH238208   4.099   4.115  16.756 -0.3720 -0.0236 -0.2093
 5598TIP3    H138209   4.036   4.072  16.814 -0.0405  0.8705  0.8374
 5598TIP3    H238210   4.121   4.049  16.691 -1.0824 -0.9014  0.4293
 5599TIP3   OH238211   0.398   4.528   2.306 -0.1061  0.1074  0.0362
 5599TIP3    H138212   0.402   4.517   2.402 -0.5040  0.1238  0.0522
 5599TIP3    H238213   0.306   4.517   2.284  0.3161 -2.4360 -0.6445
 5600TIP3   OH238214   2.290   6.666  15.636 -0.5131 -0.4760  0.5700
 5600TIP3    H138215   2.327   6.656  15.723  0.1027 -0.3014  0.3311
 5600TIP3    H238216   2.325   6.593  15.586 -0.4274 -0.2631  0.3191
 5601TIP3   OH238217   1.204   2.516  11.456 -0.2148  0.1295  1.1323
 5601TIP3    H138218   1.211   2.423  11.434  1.2465  0.5577 -0.3191
 5601TIP3    H238219   1.266   2.528  11.527  0.6926  0.2827  0.3245
 5602TIP3   OH238220   5.156   1.965  12.643  0.7924  0.0577 -0.2757
 5602TIP3    H138221   5.110   1.968  12.560 -0.4468 -1.5536  0.3282
 5602TIP3    H238222   5.208   2.045  12.645 -2.0748  1.9939 -0.9133
 5603TIP3   OH238223   0.014   0.056   0.408  0.6951  0.0103 -0.1013
 5603TIP3    H138224   0.047  -0.033   0.406  0.5208 -0.0496 -0.2939
 5603TIP3    H238225  -0.078   0.049   0.381 -0.1823 -0.1474  2.7458
 5604TIP3   OH238226   6.363   2.119  16.096  0.1155  0.1870  0.5637
 5604TIP3    H138227   6.400   2.196  16.139 -0.7694  1.6298 -1.1859
 5604TIP3    H238228   6.269   2.125  16.111 -0.3024  1.1083 -2.1023
 5605TIP3   OH238229   4.333   2.117  13.645  0.4535 -0.1575 -0.0922
 5605TIP3    H138230   4.289   2.124  13.730  0.3863  1.8453 -0.2755
 5605TIP3    H238231   4.262   2.105  13.582  0.4447 -0.7683  0.0311
 5606TIP3   OH238232   3.822   4.324   0.109  0.0984 -0.2136  0.5400
 5606TIP3    H138233   3.801   4.417   0.114  0.5946 -0.0746  0.1757
 5606TIP3    H238234   3.867   4.305   0.191 -0.1710 -0.1771  0.6961
 5607TIP3   OH238235   5.955   5.583  14.188  0.3191  0.5858  0.3743
 5607TIP3    H138236   5.913   5.594  14.103 -0.8687  0.8683  0.9844
 5607TIP3    H238237   5.884   5.592  14.252  1.1454  0.1284  1.3890
 5608TIP3   OH238238   2.452   3.226  14.507  0.0981  0.1632  0.7476
 5608TIP3    H138239   2.424   3.247  14.417  0.4601 -1.1765  0.3082
 5608TIP3    H238240   2.421   3.136  14.520 -0.3291  0.5071  2.1290
 5609TIP3   OH238241   2.214   1.077   4.058  0.1727 -0.4452 -0.2235
 5609TIP3    H138242   2.242   1.075   4.149  1.2187 -0.7903 -0.5448
 5609TIP3    H238243   2.288   1.040   4.009 -1.1897 -2.2366 -0.9967
 5610TIP3   OH238244   4.341   5.027  13.139 -0.0541 -0.3047  0.1568
 5610TIP3    H138245   4.343   4.993  13.049 -1.6599 -0.4566  0.1659
 5610TIP3    H238246   4.410   4.978  13.184  0.8378 -0.1585 -1.0065
 5611TIP3   OH238247   4.364   4.147  13.609  0.1849 -0.2267  0.1989
 5611TIP3    H138248   4.405   4.081  13.665  1.5367  1.0545  0.7488
 5611TIP3    H238249   4.414   4.227  13.625 -3.1986  1.6799  1.7039
 5612TIP3   OH238250   3.759   6.227  16.086 -0.1326  0.6147 -0.0419
 5612TIP3    H138251   3.736   6.167  16.015  1.6767 -1.0138  0.7133
 5612TIP3    H238252   3.854   6.235  16.082 -0.2450  2.6891  0.4914
 5613TIP3   OH238253   2.512   2.003   3.305 -0.4927 -0.0511 -0.3638
 5613TIP3    H138254   2.505   1.946   3.382 -0.1993  0.4652  0.0431
 5613TIP3    H238255   2.586   2.060   3.324  0.0229 -0.3773 -1.3306
 5614TIP3   OH238256   5.552   2.489  13.848  0.2655  0.0751 -0.1602
 5614TIP3    H138257   5.529   2.423  13.913 -0.3245  0.6814  0.2470
 5614TIP3    H238258   5.619   2.543  13.891 -0.1821  0.5245 -0.0272
 5615TIP3   OH238259   0.629   6.717  16.469 -0.1557  0.1872  0.2256
 5615TIP3    H138260   0.710   6.691  16.512 -0.0429  0.1645 -0.0029
 5615TIP3    H238261   0.578   6.759  16.539 -0.0205  0.0457  0.4096
 5616TIP3   OH238262   5.476   6.468   3.054 -0.6026  0.1874 -0.2888
 5616TIP3    H138263   5.518   6.388   3.021  2.1969  0.5947  2.0387
 5616TIP3    H238264   5.498   6.535   2.990  1.6051  0.1784  0.4115
 5617TIP3   OH238265   6.177   5.886  12.309  0.2283 -0.2276 -0.2696
 5617TIP3    H138266   6.201   5.902  12.400 -0.1283  1.1634 -0.3997
 5617TIP3    H238267   6.252   5.917  12.259  0.8624 -1.9605 -0.4221
 5618TIP3   OH238268   3.620   3.463   3.851  0.0561 -0.6256  0.4147
 5618TIP3    H138269   3.551   3.495   3.794 -0.0754 -1.5759  0.0276
 5618TIP3    H238270   3.582   3.387   3.894  0.1316  0.1278  1.8292
 5619TIP3   OH238271   1.340   6.019   1.065  0.5083  0.0900 -0.0794
 5619TIP3    H138272   1.333   5.928   1.034  0.2870  0.0112  0.2024
 5619TIP3    H238273   1.267   6.064   1.022 -0.1406 -0.1432  0.7647
 5620TIP3   OH238274   1.218   1.188   2.106  0.4210 -0.3490 -0.3710
 5620TIP3    H138275   1.156   1.228   2.044  1.7544  1.3272 -0.6635
 5620TIP3    H238276   1.260   1.263   2.149 -0.9446 -1.4558  3.0930
 5621TIP3   OH238277   1.827   0.532  13.117  0.1764  0.3370 -0.3961
 5621TIP3    H138278   1.744   0.561  13.156  0.6474 -1.3295  1.9347
 5621TIP3    H238279   1.805   0.513  13.026 -2.1846 -0.7303  0.3472
 5622TIP3   OH238280   0.447   6.240  15.533 -0.3933  0.0081  0.2984
 5622TIP3    H138281   0.472   6.327  15.563  0.8481 -0.2658  0.1088
 5622TIP3    H238282   0.372   6.216  15.587 -0.8052  1.2254  0.2902
 5623TIP3   OH238283   2.183   4.430   2.077 -0.0572  0.4338 -0.0951
 5623TIP3    H138284   2.199   4.524   2.068  0.4043  0.3256 -0.4229
 5623TIP3    H238285   2.109   4.423   2.137  2.1177  0.8945  2.7045
 5624TIP3   OH238286   3.377   0.259   4.662 -0.0566  0.2465 -0.3701
 5624TIP3    H138287   3.390   0.211   4.580 -1.7885 -1.0216  0.0841
 5624TIP3    H238288   3.365   0.350   4.634 -1.0865 -0.2371 -1.5863
 5625TIP3   OH238289   1.502   2.768  15.483 -0.4924 -0.2179 -0.6961
 5625TIP3    H138290   1.501   2.700  15.415  0.0156 -0.7630 -0.1639
 5625TIP3    H238291   1.563   2.735  15.549 -1.3166  0.1066  0.2340
 5626TIP3   OH238292   4.640   3.906   1.345 -0.3342  0.1382  0.3787
 5626TIP3    H138293   4.565   3.918   1.403  0.1673  1.0396  0.8514
 5626TIP3    H238294   4.700   3.977   1.368  1.0869 -1.1303  0.6612
 5627TIP3   OH238295   4.450   1.643  14.127  0.1316 -0.1877  0.0101
 5627TIP3    H138296   4.429   1.722  14.077 -2.3149 -1.0005 -0.2914
 5627TIP3    H238297   4.365   1.606  14.152  1.2464 -2.2160  0.9566
 5628TIP3   OH238298   4.407   6.274  14.194 -0.0098  0.2652 -0.7813
 5628TIP3    H138299   4.427   6.259  14.286 -1.2002  2.7672 -0.0485
 5628TIP3    H238300   4.428   6.366  14.180 -0.2130  0.0082 -2.9156
 5629TIP3   OH238301   0.148   1.431  16.056 -0.1518 -0.7460 -0.5978
 5629TIP3    H138302   0.157   1.507  15.999 -1.3518 -0.4222 -0.3797
 5629TIP3    H238303   0.125   1.468  16.141  2.3370 -1.1725  0.3179
 5630TIP3   OH238304   5.461   4.014  15.422 -0.0940 -0.0586 -0.2316
 5630TIP3    H138305   5.532   4.053  15.472  0.6484 -1.5170 -0.1339
 5630TIP3    H238306   5.500   3.989  15.339 -0.6491 -0.2796 -0.4304
 5631TIP3   OH238307   0.945   4.140  11.697 -0.8954  0.3251 -0.2734
 5631TIP3    H138308   0.916   4.229  11.677  1.9030  1.4581  0.4256
 5631TIP3    H238309   0.947   4.095  11.613 -2.1862  0.9598 -0.6453
 5632TIP3   OH238310   3.987   0.189  16.158 -0.0966  0.3628 -0.7591
 5632TIP3    H138311   4.049   0.130  16.116 -0.1704  1.1388 -1.9805
 5632TIP3    H238312   3.973   0.151  16.245  2.1556  0.2326 -0.4192
 5633TIP3   OH238313   3.125   5.195   5.578 -0.4113  0.2339  0.5114
 5633TIP3    H138314   3.216   5.220   5.589 -0.3152  1.4940 -2.4683
 5633TIP3    H238315   3.076   5.276   5.594 -0.7246  0.3702 -1.0013
 5634TIP3   OH238316   4.884   3.178   0.908 -0.3414 -0.4177  0.6209
 5634TIP3    H138317   4.966   3.193   0.862 -1.2317 -0.0056 -0.8792
 5634TIP3    H238318   4.903   3.108   0.970  0.7795 -1.3051 -0.6981
 5635TIP3   OH238319   6.477   4.168   1.806 -0.8247 -0.0249  0.4467
 5635TIP3    H138320   6.504   4.115   1.881  0.0344 -0.0468  0.1205
 5635TIP3    H238321   6.438   4.106   1.745  1.7471 -0.5527 -0.6868
 5636TIP3   OH238322   5.544   0.541   0.612  0.0159 -0.0390  0.0076
 5636TIP3    H138323   5.602   0.470   0.583 -1.2858 -0.8691 -0.6198
 5636TIP3    H238324   5.493   0.502   0.683  1.6644  1.3247  2.0089
 5637TIP3   OH238325   4.560   0.764   0.713  0.5884  0.0905 -0.3357
 5637TIP3    H138326   4.536   0.731   0.627 -2.3786  0.1988  0.4233
 5637TIP3    H238327   4.594   0.688   0.760  1.5266 -0.1145 -1.3337
 5638TIP3   OH238328   5.377   2.617   1.258 -0.1297 -0.3438 -0.8028
 5638TIP3    H138329   5.318   2.649   1.326  1.1404 -0.0165  0.1545
 5638TIP3    H238330   5.464   2.639   1.289  0.5727 -1.7080 -1.7392
 5639TIP3   OH238331   6.021   0.845   0.382  0.9760  0.3252  0.2560
 5639TIP3    H138332   5.982   0.860   0.468 -0.9987 -1.5090 -0.2785
 5639TIP3    H238333   6.001   0.925   0.333 -2.4848 -0.6649 -0.0888
 5640TIP3   OH238334   3.014   4.345   4.480 -0.0012  0.3020 -0.1995
 5640TIP3    H138335   2.994   4.427   4.526 -0.9330 -0.6013  1.0320
 5640TIP3    H238336   3.108   4.348   4.467  0.2046  0.8627  1.2568
 5641TIP3   OH238337   0.017   4.238  12.670 -0.0905 -0.1401  0.0170
 5641TIP3    H138338  -0.043   4.307  12.697  1.7610  1.5790 -0.1208
 5641TIP3    H238339   0.057   4.206  12.751  1.2752  1.0857 -0.1425
 5642TIP3   OH238340   2.572   0.018   5.300  0.0348 -0.2683 -0.3539
 5642TIP3    H138341   2.498   0.021   5.239 -0.7995  0.2394  0.6768
 5642TIP3    H238342   2.649   0.010   5.243 -0.8278 -1.1959 -1.4228
 5643TIP3   OH238343   1.077   0.964  16.336  0.0120  0.2563 -0.7030
 5643TIP3    H138344   0.987   0.968  16.366  0.0634  0.7873 -0.6178
 5643TIP3    H238345   1.116   0.893  16.386  0.7049  2.5360  2.1255
 5644TIP3   OH238346   5.063   3.305  13.813  0.3651  0.0072 -0.3218
 5644TIP3    H138347   4.979   3.267  13.840  0.2294 -0.0659 -0.8386
 5644TIP3    H238348   5.100   3.241  13.753  0.6983  0.1395 -0.2593
 5645TIP3   OH238349   1.786   5.706  15.301 -0.0913  0.8652  0.6758
 5645TIP3    H138350   1.759   5.661  15.221 -2.1697  0.4629  1.5627
 5645TIP3    H238351   1.820   5.791  15.271 -0.1912  0.4328 -0.6799
 5646TIP3   OH238352   4.667   3.640  17.005  0.0009 -0.0856 -0.6707
 5646TIP3    H138353   4.696   3.731  17.010  1.0077 -0.4843  1.3683
 5646TIP3    H238354   4.741   3.592  16.968 -0.1112 -0.2436 -0.6967
 5647TIP3   OH238355   2.437   3.416   1.606 -0.0082  0.7193 -0.4758
 5647TIP3    H138356   2.406   3.445   1.692 -0.2631  0.5844 -0.5215
 5647TIP3    H238357   2.527   3.386   1.622 -1.0190 -2.0466  0.3290
 5648TIP3   OH238358   2.576   3.357   3.180 -0.2898 -0.0351 -0.5086
 5648TIP3    H138359   2.481   3.348   3.183 -0.3652  1.0564  0.6963
 5648TIP3    H238360   2.593   3.419   3.109 -0.7116  2.4543  1.4841
 5649TIP3   OH238361   5.932   3.100  13.108 -0.1205 -0.6295 -0.1149
 5649TIP3    H138362   5.891   3.020  13.142 -0.5680  0.1995  1.3403
 5649TIP3    H238363   5.948   3.081  13.016 -2.1196 -1.6655 -0.2852
 5650TIP3   OH238364   3.467   4.741   0.463  0.3477  0.3160  0.4781
 5650TIP3    H138365   3.511   4.823   0.485  0.6731  0.5531 -0.9664
 5650TIP3    H238366   3.452   4.747   0.368 -3.0338  0.3539  0.9607
 5651TIP3   OH238367   1.402   1.718   2.566  0.2118 -0.3834  0.0877
 5651TIP3    H138368   1.418   1.648   2.629  0.2501  0.2984  0.8316
 5651TIP3    H238369   1.383   1.795   2.619  0.3276  0.2143 -0.7319
 5652TIP3   OH238370   1.015   0.543  14.268 -0.0228  0.0330  0.3923
 5652TIP3    H138371   1.055   0.475  14.322  2.4446 -1.2639 -2.8916
 5652TIP3    H238372   0.950   0.496  14.215 -1.3798  1.0373  1.1241
 5653TIP3   OH238373   4.200   1.972   1.806  0.5266  0.3183  0.2458
 5653TIP3    H138374   4.220   1.915   1.731  1.1673  1.9916 -0.8855
 5653TIP3    H238375   4.110   1.949   1.830  1.4478 -2.5692  1.1043
 5654TIP3   OH238376   5.853   5.227  15.188  0.3989  0.4007 -0.6821
 5654TIP3    H138377   5.855   5.208  15.094  0.6959 -2.0057 -0.2176
 5654TIP3    H238378   5.944   5.241  15.211  0.4135  0.1753 -0.6008
 5655TIP3   OH238379   0.971   5.539  11.216  0.1567  0.0870 -0.3596
 5655TIP3    H138380   0.902   5.587  11.262  0.0357  0.0215 -0.4744
 5655TIP3    H238381   1.052   5.572  11.254  0.0034 -1.6528  1.5679
 5656TIP3   OH238382   3.750   6.147   1.959 -0.0648  0.1246  0.0171
 5656TIP3    H138383   3.842   6.171   1.973 -0.0651  0.2035 -0.1145
 5656TIP3    H238384   3.704   6.184   2.034  0.0959 -0.4056  0.3737
 5657TIP3   OH238385   4.102   2.451   2.977  0.4058  0.3060 -0.4156
 5657TIP3    H138386   4.196   2.464   2.973  0.2588  1.6752  0.4298
 5657TIP3    H238387   4.065   2.539   2.986 -0.7454 -0.4273  2.6719
 5658TIP3   OH238388   0.740   6.337  13.393 -0.1735  0.1325 -0.3067
 5658TIP3    H138389   0.709   6.403  13.455  0.8569  0.6713 -0.3526
 5658TIP3    H238390   0.695   6.359  13.311 -0.6539  0.1161 -0.0522
 5659TIP3   OH238391   2.741   1.282  15.601 -0.4985  0.0466 -0.4252
 5659TIP3    H138392   2.667   1.340  15.619 -0.4412  0.1519 -0.5312
 5659TIP3    H238393   2.713   1.231  15.525 -0.3069  0.3545 -0.7023
 5660TIP3   OH238394   0.008   0.625  11.875 -0.0218 -0.4587  0.3723
 5660TIP3    H138395   0.038   0.660  11.959 -2.3307  1.6887  0.3838
 5660TIP3    H238396   0.003   0.702  11.818 -0.6547 -1.5257 -1.0432
 5661TIP3   OH238397   3.227   3.641   0.417  0.3276 -0.2289 -0.2906
 5661TIP3    H138398   3.142   3.598   0.405  0.7796 -1.4201  0.6378
 5661TIP3    H238399   3.214   3.699   0.491  0.1291  0.1039 -0.5876
 5662TIP3   OH238400   2.377   5.956  15.332  0.1955 -0.0742 -0.0830
 5662TIP3    H138401   2.404   5.981  15.421 -0.5287  0.3849  0.0207
 5662TIP3    H238402   2.320   5.880  15.345 -0.5894  0.4984 -0.0647
 5663TIP3   OH238403   5.215   4.012  15.792  0.0112 -0.2377 -0.2761
 5663TIP3    H138404   5.250   4.082  15.848 -0.7172  0.3848 -0.5955
 5663TIP3    H238405   5.213   4.050  15.705 -1.4474 -0.2812 -0.2613
 5664TIP3   OH238406   6.329   0.653   1.253  1.0702 -0.6077 -0.3292
 5664TIP3    H138407   6.323   0.632   1.346 -0.0346 -1.0270 -0.4975
 5664TIP3    H238408   6.256   0.607   1.212 -0.5234  2.3094 -0.9169
 5665TIP3   OH238409   1.742   1.413  13.540  0.1813  0.4532  0.6363
 5665TIP3    H138410   1.654   1.434  13.573  0.0804  0.4255  0.3931
 5665TIP3    H238411   1.728   1.398  13.446  0.7260  2.1211  0.2688
 5666TIP3   OH238412   2.822   4.169   6.063 -0.0326 -0.2623 -0.0154
 5666TIP3    H138413   2.769   4.134   6.135  0.3067 -1.1329 -0.1837
 5666TIP3    H238414   2.910   4.177   6.099 -0.1163  0.4727  0.0353
 5667TIP3   OH238415   0.936   5.808   4.118  0.3140  0.0494 -0.5917
 5667TIP3    H138416   0.926   5.903   4.131 -2.8336  0.0479 -2.3276
 5667TIP3    H238417   0.989   5.779   4.192 -0.9989  2.7631  1.5260
 5668TIP3   OH238418   0.896   2.143  16.694 -0.0506  0.1438  0.4706
 5668TIP3    H138419   0.817   2.174  16.738 -0.5914 -1.0307  0.3488
 5668TIP3    H238420   0.962   2.210  16.712 -0.8769  0.7667  1.1919
 5669TIP3   OH238421   4.911   1.109  13.560  0.4250 -0.0265  0.0320
 5669TIP3    H138422   4.871   1.196  13.555  0.8209  0.1025 -1.0880
 5669TIP3    H238423   4.854   1.053  13.507 -0.3280 -0.6489  1.4925
 5670TIP3   OH238424   0.300   2.271  16.856  0.0735 -0.3107  0.2343
 5670TIP3    H138425   0.330   2.318  16.934 -0.4662  1.9171 -0.8408
 5670TIP3    H238426   0.242   2.203  16.889 -2.0151  2.0614  1.7032
 5671TIP3   OH238427   2.203   1.848   0.808  0.1379  0.8495 -0.4810
 5671TIP3    H138428   2.210   1.894   0.891  0.0808  0.1265 -0.0692
 5671TIP3    H238429   2.109   1.833   0.796  0.2483 -0.4561  0.1216
 5672TIP3   OH238430   5.738   0.764   4.761 -0.7330 -0.3608 -0.6746
 5672TIP3    H138431   5.825   0.760   4.799 -1.1624  1.1818  0.4955
 5672TIP3    H238432   5.749   0.812   4.679 -0.6635  0.8575  0.0366
 5673TIP3   OH238433   5.850   0.726   1.650  0.5303  0.2108 -0.0929
 5673TIP3    H138434   5.857   0.690   1.562 -0.7944 -1.1889  0.3326
 5673TIP3    H238435   5.817   0.652   1.703  2.7407  0.5868  1.8648
 5674TIP3   OH238436   5.772   5.710  11.778 -0.4731  0.1713  0.0595
 5674TIP3    H138437   5.728   5.686  11.860  0.5486  0.3939  0.6882
 5674TIP3    H238438   5.742   5.800  11.761 -1.2903 -0.1494 -0.2349
 5675TIP3   OH238439   1.270   0.940   4.270 -0.2751  0.3677 -0.1218
 5675TIP3    H138440   1.226   1.000   4.210 -0.6054  0.2188 -0.0353
 5675TIP3    H238441   1.360   0.972   4.275 -0.4302  0.8173 -0.1261
 5676TIP3   OH238442   6.557   0.272  17.040 -0.3313  0.4054 -0.0051
 5676TIP3    H138443   6.475   0.245  17.082  0.5517 -1.2647  0.6995
 5676TIP3    H238444   6.535   0.352  16.992 -2.4566 -0.2196 -0.1019
 5677TIP3   OH238445   2.147   5.451   0.874 -0.0077 -0.7379  0.9036
 5677TIP3    H138446   2.107   5.530   0.838  1.5394  0.0662  0.9366
 5677TIP3    H238447   2.073   5.392   0.888 -1.0840  0.3835  0.1001
 5678TIP3   OH238448   0.972   2.381   5.204 -0.1353  0.7650  0.3358
 5678TIP3    H138449   1.047   2.359   5.259  0.1368  1.8912  0.4137
 5678TIP3    H238450   0.896   2.349   5.254  0.0554  2.3701  1.7050
 5679TIP3   OH238451   1.769   4.243   5.376  0.2343  0.0971  0.2276
 5679TIP3    H138452   1.678   4.216   5.369  0.4361 -0.3444 -0.9153
 5679TIP3    H238453   1.792   4.230   5.468 -0.1056 -2.2746 -0.0008
 5680TIP3   OH238454   4.451   6.185   4.257 -0.5071  0.5293 -0.3055
 5680TIP3    H138455   4.450   6.159   4.349  0.0234  0.7778 -0.2282
 5680TIP3    H238456   4.509   6.261   4.254  0.3246 -0.1208 -1.0103
 5681TIP3   OH238457   2.842   5.454  16.372  0.6055  0.0431  0.6063
 5681TIP3    H138458   2.782   5.382  16.393  0.0196  0.2653 -0.2499
 5681TIP3    H238459   2.868   5.437  16.281  1.7670  0.0026  0.9452
 5682TIP3   OH238460   3.087   4.122   4.645 -0.1073 -0.3919 -0.4569
 5682TIP3    H138461   3.100   4.203   4.596 -0.0951 -1.9102 -3.0659
 5682TIP3    H238462   2.992   4.115   4.656  0.0143  1.2070  2.0224
 5683TIP3   OH238463   1.774   5.834  15.810 -0.2864 -0.1929 -0.0473
 5683TIP3    H138464   1.738   5.794  15.730 -2.0041 -1.6254  1.4087
 5683TIP3    H238465   1.722   5.796  15.881  0.5703  1.8144  1.6845
 5684TIP3   OH238466   0.696   0.452  12.329 -0.2968  0.3113 -0.2221
 5684TIP3    H138467   0.767   0.401  12.288 -1.9715 -1.8083 -0.5414
 5684TIP3    H238468   0.616   0.416  12.292 -1.6960  0.8657  2.1809
 5685TIP3   OH238469   2.595   2.135  16.666 -0.2607 -0.0237  1.0578
 5685TIP3    H138470   2.642   2.152  16.747  0.8017 -1.5134  0.7706
 5685TIP3    H238471   2.631   2.053  16.633 -1.1506  0.2024 -0.5749
 5686TIP3   OH238472   5.710   0.395   0.076 -0.2316  0.1205 -0.1241
 5686TIP3    H138473   5.783   0.418   0.018 -0.6350 -1.5365 -1.3193
 5686TIP3    H238474   5.633   0.397   0.020 -0.8207 -0.2048  0.6656
 5687TIP3   OH238475   4.646   1.349  15.482  0.1598 -0.6294 -0.4394
 5687TIP3    H138476   4.619   1.294  15.555 -0.8142  0.7582  0.2564
 5687TIP3    H238477   4.639   1.439  15.514  2.0135 -0.0732 -1.4641
 5688TIP3   OH238478   2.004   0.783   5.758  0.0628 -0.7657  0.3199
 5688TIP3    H138479   2.015   0.792   5.663  1.7922  3.0875  0.8318
 5688TIP3    H238480   2.093   0.773   5.792 -0.2187  1.7194  1.8724
 5689TIP3   OH238481   1.372   0.559  14.229 -0.2657  0.1225  0.0223
 5689TIP3    H138482   1.330   0.500  14.166  1.6481 -0.3922 -0.8190
 5689TIP3    H238483   1.383   0.506  14.308 -1.9097  0.5101  0.5218
 5690TIP3   OH238484   6.679   6.673   3.449 -0.5123 -0.2711 -0.2593
 5690TIP3    H138485   6.712   6.672   3.538 -1.4581  0.9878  0.1211
 5690TIP3    H238486   6.655   6.582   3.431  0.8933 -0.7669  0.2942
 5691TIP3   OH238487   6.664   1.510   2.052 -0.5259 -0.1279  0.2676
 5691TIP3    H138488   6.597   1.545   1.993  0.5448 -1.9521 -2.0954
 5691TIP3    H238489   6.631   1.424   2.077  1.1131 -1.2323 -1.2860
 5692TIP3   OH238490   0.660   5.280  15.914 -0.1190 -0.7192 -0.2903
 5692TIP3    H138491   0.581   5.312  15.956  0.5823 -0.0600  0.5417
 5692TIP3    H238492   0.732   5.313  15.968  0.6925 -2.2252 -0.4018
 5693TIP3   OH238493   4.100   1.609  12.287  0.2667 -0.1268  0.2036
 5693TIP3    H138494   4.107   1.556  12.366  0.0258 -0.3216  0.0944
 5693TIP3    H238495   4.122   1.549  12.216 -1.5111 -0.4934 -0.0653
 5694TIP3   OH238496   0.946   5.205   2.831  0.9154 -0.2613 -0.0737
 5694TIP3    H138497   0.900   5.178   2.911  0.7149  1.0739  0.2874
 5694TIP3    H238498   1.005   5.275   2.861 -0.0946  1.1429 -1.2951
 5695TIP3   OH238499   4.747   1.516   3.826  0.2495  0.1756  0.3175
 5695TIP3    H138500   4.695   1.557   3.896 -0.8787  1.3753 -1.1935
 5695TIP3    H238501   4.723   1.423   3.829 -1.4734  0.6059  0.0897
 5696TIP3   OH238502   1.195   0.616  16.296 -0.7808  0.0154 -0.1460
 5696TIP3    H138503   1.120   0.612  16.236 -0.2206 -0.3801 -0.8236
 5696TIP3    H238504   1.262   0.665  16.249 -0.1217 -0.8198 -0.0909
 5697TIP3   OH238505   3.484   0.501  12.902  0.2030  0.0000 -0.0872
 5697TIP3    H138506   3.554   0.480  12.841 -1.0702 -3.5656 -0.4318
 5697TIP3    H238507   3.516   0.472  12.987 -0.8424 -1.7706 -0.2692
 5698TIP3   OH238508   0.895   0.877  11.514  0.2945  0.2006  0.5154
 5698TIP3    H138509   0.940   0.918  11.440 -0.7334 -0.2319 -0.3618
 5698TIP3    H238510   0.804   0.905  11.506  0.1681  0.1563  1.6312
 5699TIP3   OH238511   6.710   1.713  14.324  0.5609 -0.1304  0.1402
 5699TIP3    H138512   6.704   1.723  14.419  0.9864  0.8326  0.0734
 5699TIP3    H238513   6.626   1.743  14.291  0.3755 -0.5587  0.2123
 5700TIP3   OH238514   6.311   6.292   1.548  0.0804  0.2767  0.7257
 5700TIP3    H138515   6.250   6.365   1.536  1.1015  1.2147  1.1152
 5700TIP3    H238516   6.395   6.334   1.568  1.0030 -0.9753 -0.4065
 5701TIP3   OH238517   1.853   0.938   1.048  0.0145 -0.1687 -0.3894
 5701TIP3    H138518   1.868   0.881   1.123 -0.7458 -1.5254 -1.2401
 5701TIP3    H238519   1.765   0.917   1.019 -0.1340  1.1694 -0.9807
 5702TIP3   OH238520   6.675   2.432  12.880 -0.1181  0.3528 -0.6077
 5702TIP3    H138521   6.674   2.504  12.943  0.9791  0.5600 -0.8187
 5702TIP3    H238522   6.603   2.451  12.820  0.1380  1.2447 -0.6321
 5703TIP3   OH238523   4.008   4.012  15.028 -0.4780 -0.8110 -0.2123
 5703TIP3    H138524   3.939   3.971  14.976 -2.3673  1.4829  0.3750
 5703TIP3    H238525   3.989   3.985  15.118 -0.0317 -0.9636 -0.1648
 5704TIP3   OH238526   2.771   1.810  15.413  0.2887  0.1282 -0.5424
 5704TIP3    H138527   2.728   1.895  15.402  0.0319 -0.0625 -1.0365
 5704TIP3    H238528   2.721   1.751  15.357  1.5477  0.0189 -1.5837
 5705TIP3   OH238529   4.461   6.241   5.213  0.7732 -0.4817 -0.4242
 5705TIP3    H138530   4.406   6.318   5.197  2.2108  0.4964 -0.7157
 5705TIP3    H238531   4.547   6.277   5.237  0.6267 -1.9378  2.5972
 5706TIP3   OH238532   1.208   2.462  12.415 -0.0112  0.2305  0.2303
 5706TIP3    H138533   1.275   2.462  12.484  0.5569 -0.2686 -0.3050
 5706TIP3    H238534   1.131   2.423  12.456  0.2559  0.1385  0.6508
 5707TIP3   OH238535   3.023   3.034  12.182 -0.2420 -0.4786  0.2797
 5707TIP3    H138536   3.003   3.106  12.242  0.6768  0.2820 -0.3294
 5707TIP3    H238537   3.118   3.025  12.187 -0.1121 -0.1084 -1.4110
 5708TIP3   OH238538   5.683   2.545  12.377 -0.5526  0.2538  0.3677
 5708TIP3    H138539   5.753   2.564  12.439  0.0608 -1.3656  0.1988
 5708TIP3    H238540   5.603   2.546  12.430  0.0399 -1.8293  1.3675
 5709TIP3   OH238541   0.443   3.792   4.120 -0.8931  0.7225  0.0328
 5709TIP3    H138542   0.374   3.856   4.103 -0.9336  0.6020 -0.2458
 5709TIP3    H238543   0.467   3.758   4.034 -1.3188 -0.1094  0.2314
 5710TIP3   OH238544   1.901   6.431  12.688 -0.0024  0.3240 -0.2060
 5710TIP3    H138545   1.831   6.371  12.714  0.9517 -1.0796 -0.8173
 5710TIP3    H238546   1.864   6.481  12.615 -0.7104  0.2637  0.1136
 5711TIP3   OH238547   0.567   0.402  11.977 -0.1681 -0.0732 -0.1566
 5711TIP3    H138548   0.506   0.440  11.914 -0.4394 -0.8728 -0.3792
 5711TIP3    H238549   0.524   0.414  12.062  0.5406  1.6914 -0.0277
 5712TIP3   OH238550   0.348   3.021  16.570  0.3443 -0.7657  0.3844
 5712TIP3    H138551   0.258   3.011  16.539  0.1568  0.6565  0.4404
 5712TIP3    H238552   0.383   3.093  16.518  0.2933  1.1138  2.8464
 5713TIP3   OH238553   4.880   0.389   6.382  0.5699  0.2126 -0.1425
 5713TIP3    H138554   4.962   0.346   6.407  0.4435 -0.5278 -0.9625
 5713TIP3    H238555   4.812   0.341   6.430  0.6508  1.0864  0.8508
 5714TIP3   OH238556   6.480   6.664  14.598  0.2605  0.4486 -0.2668
 5714TIP3    H138557   6.537   6.706  14.663 -2.1184 -0.7788  2.7268
 5714TIP3    H238558   6.519   6.577  14.584  0.4232  0.4801 -0.0098
 5715TIP3   OH238559   0.479   6.290  15.272  0.4694  0.2432 -0.0997
 5715TIP3    H138560   0.487   6.238  15.352  0.8554 -0.1582 -0.3944
 5715TIP3    H238561   0.384   6.297  15.257  0.4249 -1.0119 -0.4618
 5716TIP3   OH238562   5.485   3.737   3.986 -0.0409  0.5372  0.3720
 5716TIP3    H138563   5.502   3.774   3.900  0.7064  2.4456  1.2967
 5716TIP3    H238564   5.559   3.678   4.002  0.0469  0.5126 -0.1090
 5717TIP3   OH238565   1.560   4.453   4.202 -0.9109 -0.0643  0.5331
 5717TIP3    H138566   1.543   4.382   4.141 -0.9859  1.2172 -0.9937
 5717TIP3    H238567   1.592   4.525   4.147  0.4891  0.6363  2.2010
 5718TIP3   OH238568   0.417   2.169   0.162  0.5114 -0.2947 -0.1644
 5718TIP3    H138569   0.375   2.138   0.242 -2.2083  1.0840 -0.9729
 5718TIP3    H238570   0.494   2.113   0.151 -0.6361 -2.3563  1.8771
 5719TIP3   OH238571   5.297   2.006   1.118  0.2976 -0.2335 -0.7687
 5719TIP3    H138572   5.246   2.077   1.157  1.2608  0.3172 -0.4841
 5719TIP3    H238573   5.327   1.954   1.193  1.0115  0.0379 -0.8640
 5720TIP3   OH238574   4.544   5.812   5.349 -0.2239  0.5480  0.1705
 5720TIP3    H138575   4.508   5.900   5.361 -0.0797  0.6644 -0.2656
 5720TIP3    H238576   4.488   5.756   5.404  0.2856  1.0499  1.2052
 5721TIP3   OH238577   3.153   1.753   3.317 -0.5573 -0.4888  0.0633
 5721TIP3    H138578   3.146   1.848   3.323 -0.5964 -0.5612  1.1377
 5721TIP3    H238579   3.247   1.736   3.305 -0.5204 -0.3386  0.1542
 5722TIP3   OH238580   4.147   5.185  14.704 -0.1826 -0.1775  0.0354
 5722TIP3    H138581   4.127   5.251  14.770  0.9760 -0.5049  0.7279
 5722TIP3    H238582   4.240   5.198  14.684 -0.4897 -0.1767 -1.4279
 5723TIP3   OH238583   4.648   5.836   2.995  0.8057  0.0427 -0.4968
 5723TIP3    H138584   4.573   5.838   3.054  1.6557  0.7796  0.5519
 5723TIP3    H238585   4.724   5.851   3.050  1.4177  3.1833 -2.0992
 5724TIP3   OH238586   2.423   6.736  14.132  0.4326 -0.1159 -0.1568
 5724TIP3    H138587   2.335   6.749  14.097  1.2966  2.1641 -1.5533
 5724TIP3    H238588   2.418   6.652  14.178 -3.0280  0.9409  1.5914
 5725TIP3   OH238589   3.939   6.274   0.107 -0.3073 -0.0084 -0.2184
 5725TIP3    H138590   3.868   6.223   0.146 -0.6722  0.4249 -0.3227
 5725TIP3    H238591   4.018   6.228   0.134 -0.6325 -0.5750 -0.2260
 5726TIP3   OH238592   3.350   1.311   1.950 -0.5992 -0.6760 -0.0721
 5726TIP3    H138593   3.262   1.347   1.961 -0.3482  0.2066 -0.8992
 5726TIP3    H238594   3.345   1.259   1.870  0.2676  1.4575 -1.5634
 5727TIP3   OH238595   4.715   6.752  16.138 -0.5277  0.7766  0.4940
 5727TIP3    H138596   4.784   6.689  16.160 -1.7374 -0.0319  2.0272
 5727TIP3    H238597   4.760   6.817  16.084  1.0072 -0.7585 -0.1587
 5728TIP3   OH238598   5.956   0.845  14.474  1.0161  0.4576  0.3988
 5728TIP3    H138599   5.944   0.780  14.404  2.4110 -0.7630  1.2755
 5728TIP3    H238600   5.884   0.828  14.535  2.6037 -1.7373  1.7278
 5729TIP3   OH238601   6.292   5.946  11.364 -0.5561 -0.2214  0.0158
 5729TIP3    H138602   6.242   5.874  11.326 -0.0281 -1.6470  1.9655
 5729TIP3    H238603   6.339   5.907  11.437  0.3692  1.9468  0.6171
 5730TIP3   OH238604   2.353   2.599  10.839  0.4103  0.8330 -0.0043
 5730TIP3    H138605   2.348   2.650  10.920 -0.2892 -0.1426  0.5750
 5730TIP3    H238606   2.294   2.645  10.779  0.0534  0.9178  0.4029
 5731TIP3   OH238607   1.071   6.760  15.789 -0.0651  0.1067 -0.0140
 5731TIP3    H138608   1.025   6.764  15.873  0.0645  0.1069  0.0587
 5731TIP3    H238609   1.150   6.710  15.808  0.4234  0.9044  0.0887
 5732TIP3   OH238610   2.127   5.396  10.504 -0.5611 -0.1606  0.6331
 5732TIP3    H138611   2.219   5.369  10.494 -0.1123  1.1210  1.2215
 5732TIP3    H238612   2.084   5.320  10.543  0.6610 -0.0776  2.1863
 5733TIP3   OH238613   0.969   6.359  11.658  0.6442 -0.6097  0.1574
 5733TIP3    H138614   0.990   6.355  11.565 -0.0982  0.2821 -0.0582
 5733TIP3    H238615   1.028   6.426  11.693 -0.6088  0.6553 -0.1129
 5734TIP3   OH238616   1.652   6.088   4.954  0.0396 -0.1638  0.3266
 5734TIP3    H138617   1.585   6.096   5.022  0.4046  1.9658  0.4926
 5734TIP3    H238618   1.687   6.177   4.945 -0.4661 -0.2413 -3.0810
 5735TIP3   OH238619   1.704   3.450  15.592  0.6344 -0.5130 -0.1374
 5735TIP3    H138620   1.631   3.506  15.568  0.2262 -0.8307  0.3417
 5735TIP3    H238621   1.770   3.510  15.627  1.6264  0.0640 -2.8667
 5736TIP3   OH238622   3.798   0.800  17.077 -0.2378 -0.5815 -0.2600
 5736TIP3    H138623   3.812   0.842  17.162 -1.4402  0.3576 -0.5213
 5736TIP3    H238624   3.777   0.709  17.098 -1.5438 -0.1067  0.4957
 5737TIP3   OH238625   2.296   3.741   3.478 -0.0030  0.6090  0.6506
 5737TIP3    H138626   2.278   3.690   3.399  2.0356  0.5082  0.2041
 5737TIP3    H238627   2.274   3.682   3.551 -2.7330  1.0155  0.1871
 5738TIP3   OH238628   0.144   5.348  16.018  0.1138  1.0616  0.0510
 5738TIP3    H138629   0.161   5.316  15.929 -1.2485 -0.7746  0.4205
 5738TIP3    H238630   0.052   5.373  16.018 -0.0540  0.4945  1.0876
 5739TIP3   OH238631   3.663   2.432  14.216  0.1315 -0.0248  0.0986
 5739TIP3    H138632   3.708   2.490  14.155 -0.8391  1.4738  0.7918
 5739TIP3    H238633   3.602   2.382  14.161  2.6871 -2.2279 -0.8888
 5740TIP3   OH238634   0.972   3.358   2.211  0.5544  0.0356  0.0326
 5740TIP3    H138635   0.944   3.450   2.210 -1.1804 -0.4913 -1.2263
 5740TIP3    H238636   0.951   3.328   2.300  2.6103  1.2843  0.9635
 5741TIP3   OH238637   4.509   3.099   3.891 -0.0127  0.4126  0.6371
 5741TIP3    H138638   4.583   3.146   3.851  0.0434 -0.9801 -0.9221
 5741TIP3    H238639   4.437   3.162   3.887  0.0232  0.3554 -1.5734
 5742TIP3   OH238640   2.238   6.218  14.562 -0.1956 -0.1370 -0.1885
 5742TIP3    H138641   2.190   6.231  14.479 -3.1548  1.8805  1.7238
 5742TIP3    H238642   2.207   6.134  14.594 -2.2395  0.9557  0.8188
 5743TIP3   OH238643   1.069   0.097  14.739  0.4414 -0.0570  0.0035
 5743TIP3    H138644   0.980   0.062  14.744  0.6673 -0.6859 -0.3117
 5743TIP3    H238645   1.122   0.033  14.785  1.0024 -0.6234 -1.4104
 5744TIP3   OH238646   0.036   3.936  12.705 -0.6250  0.0399 -0.5188
 5744TIP3    H138647   0.092   3.967  12.776 -2.0458  1.8479 -0.1600
 5744TIP3    H238648   0.053   3.998  12.633  0.9261 -1.8631 -1.8492
 5745TIP3   OH238649   4.255   6.261  11.380 -0.1156  0.7182 -0.6615
 5745TIP3    H138650   4.293   6.256  11.467  1.1332  0.9221 -1.1813
 5745TIP3    H238651   4.202   6.341  11.381 -0.4983  0.4611  0.0503
 5746TIP3   OH238652   5.207   0.259   0.687  0.4902 -0.2617  0.3522
 5746TIP3    H138653   5.144   0.310   0.636 -0.9826 -1.4669  0.9011
 5746TIP3    H238654   5.158   0.235   0.766  1.6744 -1.1601  0.8190
 5747TIP3   OH238655   1.388   4.850  14.309 -0.3306 -0.1510 -0.1952
 5747TIP3    H138656   1.474   4.807  14.318 -0.5240 -0.7474 -1.1693
 5747TIP3    H238657   1.383   4.907  14.386  1.8613  1.5241 -1.2378
 5748TIP3   OH238658   3.748   6.055   6.027 -0.6355 -0.1491 -0.0851
 5748TIP3    H138659   3.804   6.132   6.014  0.0123 -0.5670  0.2264
 5748TIP3    H238660   3.809   5.983   6.043 -1.2553 -0.6510  0.0461
 5749TIP3   OH238661   0.184   1.687   2.274  0.3750 -0.2948 -0.2107
 5749TIP3    H138662   0.127   1.617   2.243  2.6325 -1.6184 -1.4729
 5749TIP3    H238663   0.216   1.656   2.359 -0.8492  0.5231  0.5773
 5750TIP3   OH238664   1.527   4.810  12.221  0.2435 -0.3737 -0.1855
 5750TIP3    H138665   1.613   4.809  12.177  0.2803 -0.8655 -0.0984
 5750TIP3    H238666   1.543   4.767  12.304  0.6099  2.1898  1.1323
 5751TIP3   OH238667   6.687   0.236  11.215 -0.3833  0.1016 -0.0272
 5751TIP3    H138668   6.725   0.304  11.272 -3.4557 -0.0495  2.3063
 5751TIP3    H238669   6.741   0.159  11.232 -0.3230  0.4682  1.5844
 5752TIP3   OH238670   1.655   6.575   4.817 -0.2517 -0.0723  0.0402
 5752TIP3    H138671   1.672   6.486   4.849 -2.2230 -0.8409 -1.0058
 5752TIP3    H238672   1.579   6.604   4.867 -1.0694  0.1111 -1.2792
 5753TIP3   OH238673   0.447   2.737   6.588 -0.6180 -0.6703  0.4066
 5753TIP3    H138674   0.442   2.832   6.595 -1.0458 -0.5833 -0.9763
 5753TIP3    H238675   0.385   2.714   6.519  0.3433 -1.8453 -0.0999
 5754TIP3   OH238676   6.559   2.728   3.059 -0.0228 -0.4391  0.6448
 5754TIP3    H138677   6.510   2.652   3.089 -0.1608 -0.1368  1.1944
 5754TIP3    H238678   6.645   2.719   3.100 -0.2431  0.0262  1.2070
 5755TIP3   OH238679   3.908   1.391  14.407 -0.0557  0.0735  0.2344
 5755TIP3    H138680   3.915   1.299  14.382 -1.6203  0.1858 -0.6989
 5755TIP3    H238681   3.815   1.405  14.421  0.1310  1.5808  0.0908
 5756TIP3   OH238682   2.173   4.917  17.183  0.1477 -0.2731  0.0136
 5756TIP3    H138683   2.192   4.999  17.137  0.4632 -0.6045 -0.4492
 5756TIP3    H238684   2.169   4.851  17.114 -0.0758 -0.6562  0.3874
 5757TIP3   OH238685   3.165   0.976   0.303 -0.2173  0.7087  0.6754
 5757TIP3    H138686   3.109   0.900   0.287  1.4619 -0.1955 -1.0942
 5757TIP3    H238687   3.209   0.992   0.220  1.2145  2.1808  1.6743
 5758TIP3   OH238688   3.049   1.427   3.912 -0.1071 -0.3091 -0.2124
 5758TIP3    H138689   2.972   1.440   3.857 -0.9822 -1.3785  0.7426
 5758TIP3    H238690   3.119   1.403   3.851 -1.4136 -2.9099 -0.7331
 5759TIP3   OH238691   4.018   2.646   5.919 -0.5206  0.4788 -0.2536
 5759TIP3    H138692   4.043   2.559   5.888 -2.5068 -0.5627  0.9686
 5759TIP3    H238693   4.062   2.707   5.859  1.8337 -1.3298 -0.3974
 5760TIP3   OH238694   3.315   0.777  15.191  0.4627  0.1353 -0.0043
 5760TIP3    H138695   3.355   0.739  15.112  2.1464 -1.1881  1.4454
 5760TIP3    H238696   3.317   0.706  15.255  0.0324  1.4997  1.5442
 5761TIP3   OH238697   6.151   4.002  16.475 -0.3203  0.5269  0.1773
 5761TIP3    H138698   6.139   3.908  16.484 -0.8818  0.5644 -0.1237
 5761TIP3    H238699   6.164   4.034  16.564  1.5167 -0.0424  0.1348
 5762TIP3   OH238700   1.959   4.616  16.110 -0.1897  0.1142 -0.0894
 5762TIP3    H138701   2.051   4.639  16.101  0.2851  0.2113  3.9676
 5762TIP3    H238702   1.914   4.699  16.122 -0.5000 -0.0800  0.0930
 5763TIP3   OH238703   6.463   0.349   5.336 -0.0786 -0.0550 -0.3548
 5763TIP3    H138704   6.499   0.428   5.376  0.4759 -0.3914 -0.1707
 5763TIP3    H238705   6.523   0.330   5.264 -0.2609 -0.2592 -0.4525
 5764TIP3   OH238706   2.434   6.422   2.378  0.0193  0.3366 -0.6531
 5764TIP3    H138707   2.352   6.431   2.330  0.1601  3.2300 -0.4251
 5764TIP3    H238708   2.501   6.418   2.310 -0.2075 -0.9457 -0.8115
 5765TIP3   OH238709   1.393   2.437  15.067  0.0846  0.1455 -0.1740
 5765TIP3    H138710   1.362   2.381  15.139  1.6895 -0.4083  0.1145
 5765TIP3    H238711   1.352   2.522  15.083 -0.1246 -0.1691  1.0214
 5766TIP3   OH238712   1.476   2.562   0.354 -0.4576 -0.2106 -0.0552
 5766TIP3    H138713   1.432   2.496   0.301 -1.6644 -0.7248  1.5599
 5766TIP3    H238714   1.510   2.625   0.290  2.2562 -3.2385 -1.7304
 5767TIP3   OH238715   2.713   4.324  15.055 -0.9340 -0.2688 -0.0130
 5767TIP3    H138716   2.722   4.241  15.102  0.5119 -0.1323 -0.0251
 5767TIP3    H238717   2.718   4.391  15.123 -2.8760 -0.1952  0.0886
 5768TIP3   OH238718   4.864   6.237  16.153  0.3133 -0.4434  0.1945
 5768TIP3    H138719   4.892   6.152  16.119 -0.4068  0.0283 -1.6205
 5768TIP3    H238720   4.792   6.217  16.213 -1.3739 -0.9685 -1.9544
 5769TIP3   OH238721   2.704   6.087   5.579 -0.2025 -0.3518  0.3129
 5769TIP3    H138722   2.610   6.067   5.585 -0.8993  2.3654 -0.9338
 5769TIP3    H238723   2.725   6.073   5.486  0.0341  1.4996  0.0814
 5770TIP3   OH238724   4.976   4.293   2.048 -0.4108 -0.1302  0.3980
 5770TIP3    H138725   4.907   4.263   1.989 -1.3777  2.6809  0.0469
 5770TIP3    H238726   5.057   4.282   1.998 -0.7442 -1.9346  0.2242
 5771TIP3   OH238727   6.669   2.998  10.537 -0.9107 -0.0443  0.2824
 5771TIP3    H138728   6.607   2.953  10.480 -1.3199  0.0423  0.6565
 5771TIP3    H238729   6.654   3.091  10.521  0.1984 -0.0417 -0.7684
 5772TIP3   OH238730   4.869   0.137  11.515 -0.7318  0.3943  0.1314
 5772TIP3    H138731   4.796   0.181  11.559 -1.3390  0.0763 -0.5653
 5772TIP3    H238732   4.836   0.050  11.494  0.5678 -0.5468  1.7806
 5773TIP3   OH238733   6.300   2.444  12.232 -0.3933  0.3545 -0.3488
 5773TIP3    H138734   6.368   2.505  12.203  0.1751 -0.3156 -0.4570
 5773TIP3    H238735   6.262   2.410  12.152  0.0323 -0.2458 -0.2969
 5774TIP3   OH238736   2.518   5.626   4.083 -0.4615  0.1514 -0.2315
 5774TIP3    H138737   2.507   5.683   4.007  0.9161  2.1137  1.0011
 5774TIP3    H238738   2.598   5.577   4.064 -1.6711 -1.4444 -1.3135
 5775TIP3   OH238739   2.986   2.179   2.387 -0.0997  0.9604 -0.3040
 5775TIP3    H138740   3.081   2.179   2.380 -0.1207  2.3508 -0.8013
 5775TIP3    H238741   2.958   2.101   2.339  0.7676  0.5737 -0.1981
 5776TIP3   OH238742   6.621   5.105   0.030  0.5664  0.0370 -0.3771
 5776TIP3    H138743   6.574   5.120  -0.051  0.4299  0.5219 -0.2048
 5776TIP3    H238744   6.666   5.187   0.048 -0.5262  0.3905  0.7770
 5777TIP3   OH238745   1.349   0.530  15.745  0.1642 -0.2029  0.0099
 5777TIP3    H138746   1.283   0.592  15.715 -0.6552 -0.6396  0.8990
 5777TIP3    H238747   1.405   0.581  15.803  1.0389  0.3432 -1.2873
 5778TIP3   OH238748   2.244   5.559   4.469  0.2048  0.6796  0.3798
 5778TIP3    H138749   2.240   5.601   4.383 -2.0022 -0.2938 -0.0181
 5778TIP3    H238750   2.211   5.471   4.455  1.6852 -0.1432  1.8685
 5779TIP3   OH238751   3.476   3.962  11.536  0.6629  0.4275 -0.0452
 5779TIP3    H138752   3.548   3.949  11.473  0.2876 -0.1246 -0.3697
 5779TIP3    H238753   3.400   3.925  11.492  0.3541  0.2212  0.6600
 5780TIP3   OH238754   1.166   3.584  12.157  0.0727 -0.2606 -0.7035
 5780TIP3    H138755   1.194   3.493  12.168  1.9637  0.2747 -0.9975
 5780TIP3    H238756   1.247   3.635  12.158 -1.0543  1.6006  1.0609
 5781TIP3   OH238757   1.930   1.231   2.067  0.0048 -0.6128  0.5420
 5781TIP3    H138758   1.996   1.300   2.061 -1.2083  0.3237 -3.8449
 5781TIP3    H238759   1.980   1.151   2.080  1.8786  0.3558 -0.5536
 5782TIP3   OH238760   3.352   2.050  13.218  0.3720 -0.6415 -0.3539
 5782TIP3    H138761   3.345   2.030  13.311  1.6484  0.8203  0.0737
 5782TIP3    H238762   3.312   1.974  13.174  0.5916 -1.7600  1.3336
 5783TIP3   OH238763   6.070   3.999  15.831  0.4226 -0.2077  0.3216
 5783TIP3    H138764   6.008   3.968  15.765 -1.0058 -0.8318  1.9035
 5783TIP3    H238765   6.063   4.094  15.827  1.7015 -0.1729 -1.6605
 5784TIP3   OH238766   3.164   1.189   0.118 -0.0044 -0.0876 -0.2837
 5784TIP3    H138767   3.133   1.260   0.062 -0.8721 -0.2268  0.0100
 5784TIP3    H238768   3.231   1.228   0.173  1.7758 -0.2383 -2.2899
 5785TIP3   OH238769   4.372   3.628  12.690 -0.0695  0.1565 -0.2383
 5785TIP3    H138770   4.370   3.593  12.779  0.0667 -0.0762 -0.3266
 5785TIP3    H238771   4.323   3.710  12.696  1.4290  1.0365  0.4349
 5786TIP3   OH238772   3.603   0.767   0.230 -0.6154  0.2870 -0.1242
 5786TIP3    H138773   3.661   0.717   0.173  0.2514  0.2104  0.8091
 5786TIP3    H238774   3.571   0.703   0.293 -0.6306  0.6169  0.2036
 5787TIP3   OH238775   2.524   0.602   5.461 -0.3354  0.0616 -0.0780
 5787TIP3    H138776   2.511   0.651   5.380  2.4273  0.0696 -0.5655
 5787TIP3    H238777   2.525   0.668   5.530  2.5410  0.6953 -0.6466
 5788TIP3   OH238778   4.689   2.345  12.003  0.1332 -0.0627  0.0787
 5788TIP3    H138779   4.704   2.255  11.974  2.0626 -0.1776  1.3696
 5788TIP3    H238780   4.698   2.398  11.924  0.9141 -0.8155 -0.3394
 5789TIP3   OH238781   5.596   0.075  16.877 -0.0989 -0.0586 -0.4197
 5789TIP3    H138782   5.594   0.013  16.950  3.9452 -0.3501 -0.4419
 5789TIP3    H238783   5.539   0.035  16.811  1.2052 -3.0238  0.1565
 5790TIP3   OH238784   2.768   1.070  12.135  0.5403 -0.0102  0.1309
 5790TIP3    H138785   2.751   1.047  12.227  1.0230  0.4735  0.3431
 5790TIP3    H238786   2.755   0.988  12.087  0.8614 -0.4059  0.7068
 5791TIP3   OH238787   0.707   0.186  17.154  0.1225  0.4674  0.5584
 5791TIP3    H138788   0.760   0.259  17.121  0.2137 -0.5443 -1.5824
 5791TIP3    H238789   0.621   0.226  17.171  0.1201  1.0609 -0.7701
 5792TIP3   OH238790   1.572   1.124   5.890  0.6975 -0.1487  0.6936
 5792TIP3    H138791   1.625   1.159   5.961  0.2219  1.0590  0.4724
 5792TIP3    H238792   1.592   1.181   5.815 -1.1738  0.5627  0.7071
 5793TIP3   OH238793   5.854   1.353   4.965  0.3739  0.4387  0.1085
 5793TIP3    H138794   5.804   1.422   4.921  0.7745 -0.0658 -1.1682
 5793TIP3    H238795   5.940   1.392   4.981  0.4543  0.3866 -0.1976
 5794TIP3   OH238796   4.434   2.306   2.341  0.4074 -0.0938 -0.3963
 5794TIP3    H138797   4.371   2.349   2.283  0.9481  1.7767  0.3403
 5794TIP3    H238798   4.474   2.238   2.288 -2.0172 -1.1385 -0.9732
 5795TIP3   OH238799   0.524   4.779  11.521  0.8840 -0.2893 -0.3091
 5795TIP3    H138800   0.459   4.724  11.477 -1.1929  0.2582  1.9698
 5795TIP3    H238801   0.534   4.855  11.463 -1.1010 -0.0220 -0.3397
 5796TIP3   OH238802   6.599   2.203  11.162  0.2045  0.4524  0.7732
 5796TIP3    H138803   6.647   2.284  11.146 -0.4741  1.0394  1.6595
 5796TIP3    H238804   6.525   2.229  11.217 -0.9763 -0.4739 -0.3272
 5797TIP3   OH238805   0.842   4.453   1.760  0.0523  0.0210  0.2179
 5797TIP3    H138806   0.791   4.405   1.826  0.0051  0.6283  0.6306
 5797TIP3    H238807   0.857   4.390   1.690 -1.0606 -0.2413  0.2022
 5798TIP3   OH238808   5.452   1.548  14.691 -0.4233  0.7802 -0.2106
 5798TIP3    H138809   5.513   1.621  14.702  0.9104 -0.2717 -0.4882
 5798TIP3    H238810   5.495   1.490  14.628 -0.2708 -1.4925  1.9055
 5799TIP3   OH238811   0.146   0.468  11.044 -0.0126 -0.0392 -0.0308
 5799TIP3    H138812   0.140   0.559  11.016 -1.7317  0.1468  0.8089
 5799TIP3    H238813   0.107   0.418  10.973 -0.2341  0.0080  0.0565
 5800TIP3   OH238814   5.415   5.621   0.379  0.3936  0.4082  0.3463
 5800TIP3    H138815   5.429   5.553   0.445 -0.7312  0.5020  0.6857
 5800TIP3    H238816   5.463   5.590   0.302 -0.2439 -0.8596  0.4476
 5801TIP3   OH238817   1.980   5.969  16.502  0.1841 -0.0327  0.8148
 5801TIP3    H138818   1.999   6.037  16.438 -0.4752  0.5129  1.1993
 5801TIP3    H238819   1.903   5.924  16.468  0.8160 -0.8057  0.3917
 5802TIP3   OH238820   0.577   4.686  14.648 -0.3797 -0.1213 -0.0157
 5802TIP3    H138821   0.557   4.743  14.723  0.8074  0.4992 -0.1542
 5802TIP3    H238822   0.568   4.743  14.572  0.2530 -0.2620 -0.1986
 5803TIP3   OH238823   2.940   1.625   3.515 -0.4124 -0.3674 -0.2128
 5803TIP3    H138824   2.901   1.701   3.558 -1.8239 -1.1373 -0.1000
 5803TIP3    H238825   3.019   1.659   3.474 -1.3334  1.2928 -0.6665
 5804TIP3   OH238826   2.348   2.616   0.814 -0.1126  0.2241  0.1321
 5804TIP3    H138827   2.358   2.521   0.807 -0.9410  0.1870 -0.7771
 5804TIP3    H238828   2.345   2.646   0.723 -0.0319  1.0979  0.4137
 5805TIP3   OH238829   3.150   6.463   3.786 -0.4132  0.1919  0.5267
 5805TIP3    H138830   3.168   6.383   3.737 -0.0829  0.9742 -0.6707
 5805TIP3    H238831   3.226   6.473   3.845  0.7366  0.8635 -1.0139
 5806TIP3   OH238832   3.928   4.570   3.608  0.0489  0.2350 -0.0169
 5806TIP3    H138833   3.934   4.665   3.605  1.5520  0.1808  0.7844
 5806TIP3    H238834   3.890   4.551   3.693  0.9924  0.0770  0.3744
 5807TIP3   OH238835   0.612   1.555   5.509  0.3347 -0.0873 -0.5711
 5807TIP3    H138836   0.637   1.496   5.437  0.1447 -1.1316  0.1980
 5807TIP3    H238837   0.672   1.532   5.580  0.7982  1.2387 -0.5256
 5808TIP3   OH238838   3.261   0.827   1.127  0.2925 -0.4582 -0.3601
 5808TIP3    H138839   3.235   0.811   1.036  2.5134  1.7013 -1.4392
 5808TIP3    H238840   3.336   0.769   1.140  0.5092 -0.1347 -0.1813
 5809TIP3   OH238841   4.996   2.430  14.865  0.2734 -0.0426  0.6971
 5809TIP3    H138842   5.015   2.400  14.954 -2.3841 -1.3482  0.8690
 5809TIP3    H238843   5.048   2.372  14.809  1.0922  0.0468  1.3559
 5810TIP3   OH238844   3.110   2.130  12.516 -0.0529  0.4755  0.0163
 5810TIP3    H138845   3.138   2.039  12.512 -0.6438  0.4010 -3.3562
 5810TIP3    H238846   3.077   2.141  12.606 -0.5609 -2.7833  0.2707
 5811TIP3   OH238847   0.240   4.914  11.461  0.1884 -0.0203 -0.1502
 5811TIP3    H138848   0.272   4.829  11.431 -1.6497 -0.5398 -0.6979
 5811TIP3    H238849   0.297   4.978  11.417  2.1446 -0.9628  0.9461
 5812TIP3   OH238850   4.246   5.405   0.394 -0.4726  0.1771 -0.4615
 5812TIP3    H138851   4.156   5.415   0.363 -0.2610 -0.5086 -1.3234
 5812TIP3    H238852   4.289   5.487   0.367 -0.8945  0.6161  0.1811
 5813TIP3   OH238853   1.632   2.767  14.004  0.3709  0.0544 -0.8527
 5813TIP3    H138854   1.589   2.769  13.918  0.7232  1.9799 -1.0194
 5813TIP3    H238855   1.634   2.859  14.031 -0.3729 -0.6250  1.5653
 5814TIP3   OH238856   2.996   2.483   5.874  0.0407  0.0109 -0.7392
 5814TIP3    H138857   3.017   2.528   5.792  0.1771 -0.8882 -1.1985
 5814TIP3    H238858   2.901   2.472   5.872 -0.3110  2.3571  0.4594
 5815TIP3   OH238859   1.537   6.251  11.373  0.3370 -0.0043 -0.6830
 5815TIP3    H138860   1.469   6.258  11.439  0.9297 -2.6211  0.2933
 5815TIP3    H238861   1.491   6.223  11.294 -0.0258  0.4454 -0.6272
 5816TIP3   OH238862   2.805   2.553  16.579  0.1713 -0.3455 -0.0163
 5816TIP3    H138863   2.799   2.567  16.673  1.2296 -1.4361  0.2325
 5816TIP3    H238864   2.782   2.461  16.567 -0.5424 -0.0563 -0.8851
 5817TIP3   OH238865   2.468   2.987  13.164 -0.4030 -0.3333  0.0358
 5817TIP3    H138866   2.476   2.909  13.109  0.1745 -0.3838  0.1844
 5817TIP3    H238867   2.406   3.043  13.118 -1.1886 -1.0817  0.1604
 5818TIP3   OH238868   0.742   2.285  14.960 -0.2002  0.5346  0.5576
 5818TIP3    H138869   0.668   2.232  14.933  1.4282 -1.8181  0.5851
 5818TIP3    H238870   0.715   2.324  15.043 -1.1644 -0.8122  0.8888
 5819TIP3   OH238871   3.659   3.228  15.604  0.0152  0.1566 -0.4539
 5819TIP3    H138872   3.700   3.220  15.517  0.4188  0.4690 -0.2893
 5819TIP3    H238873   3.731   3.247  15.663 -0.4238  1.1517 -0.2281
 5820TIP3   OH238874   3.390   2.793   3.332  0.1207  1.1270  0.1754
 5820TIP3    H138875   3.401   2.710   3.286  2.3549  1.3925  0.1821
 5820TIP3    H238876   3.367   2.855   3.263  0.8646  0.9963 -0.1945
 5821TIP3   OH238877   4.697   2.320   6.147 -0.2006  0.1298  0.5919
 5821TIP3    H138878   4.748   2.262   6.203 -1.3161 -1.0992  0.3617
 5821TIP3    H238879   4.760   2.352   6.081  0.8616  0.7385  1.8752
 5822TIP3   OH238880   2.594   0.258   5.848  0.0309  0.3096  0.1561
 5822TIP3    H138881   2.506   0.289   5.824 -0.2538 -0.1937  0.5260
 5822TIP3    H238882   2.648   0.336   5.849 -0.9812  1.0276  2.4335
 5823TIP3   OH238883   3.920   3.279   4.924 -0.5405 -0.3650  0.1468
 5823TIP3    H138884   3.905   3.298   5.016 -0.5919 -4.2070  1.0343
 5823TIP3    H238885   4.008   3.243   4.921 -0.2170  0.5235 -1.4502
 5824TIP3   OH238886   1.337   2.192   4.991  0.0540 -0.1733 -0.3486
 5824TIP3    H138887   1.421   2.225   5.024  0.5346 -2.1511  0.5419
 5824TIP3    H238888   1.309   2.128   5.057 -2.4401  0.8603 -0.3589
 5825TIP3   OH238889   2.208   4.723   2.608 -0.0516  0.2942  0.2100
 5825TIP3    H138890   2.141   4.782   2.576  0.6348 -0.1982 -2.1927
 5825TIP3    H238891   2.188   4.639   2.566  0.4234 -0.5672  1.6707
 5826TIP3   OH238892   5.437   1.963   1.971 -0.0935  0.5631  0.4872
 5826TIP3    H138893   5.444   1.991   2.063 -1.8264 -0.7507  1.0592
 5826TIP3    H238894   5.505   1.898   1.960  0.2076  0.8202  0.8151
 5827TIP3   OH238895   6.608   0.510   1.215 -0.0274  0.4651 -0.3735
 5827TIP3    H138896   6.626   0.431   1.266 -2.3265 -0.7517 -1.3819
 5827TIP3    H238897   6.673   0.509   1.145  0.7273  0.1394  0.3257
 5828TIP3   OH238898   3.698   3.588  15.843 -0.0447 -0.2703  0.6530
 5828TIP3    H138899   3.605   3.602  15.825  0.2780  1.9468  0.5283
 5828TIP3    H238900   3.709   3.617  15.934  0.4011 -1.2303  0.9160
 5829TIP3   OH238901   2.721   5.454   5.861  0.0629 -1.0854 -0.2340
 5829TIP3    H138902   2.776   5.394   5.810  0.2677 -0.7444 -0.4182
 5829TIP3    H238903   2.771   5.469   5.942  0.0548 -1.0947 -0.2272
 5830TIP3   OH238904   2.179   5.217   2.865 -0.0887 -0.6290  0.5818
 5830TIP3    H138905   2.094   5.261   2.864 -0.0270 -0.4159 -3.2501
 5830TIP3    H238906   2.162   5.132   2.825  1.2256 -1.2434  1.2890
 5831TIP3   OH238907   5.826   5.450  12.108 -0.2919  0.2788 -0.0496
 5831TIP3    H138908   5.761   5.382  12.123 -1.0551  1.3385  1.6980
 5831TIP3    H238909   5.905   5.418  12.152 -0.6620  0.5041  0.8060
 5832TIP3   OH238910   0.030   5.332   3.545  0.0215  0.2625 -0.3998
 5832TIP3    H138911   0.031   5.349   3.451  0.2569 -1.1784 -0.6703
 5832TIP3    H238912   0.123   5.320   3.567 -0.1511 -0.9774 -0.2983
 5833TIP3   OH238913   5.367   5.250   3.170  0.5540  0.3563  0.3096
 5833TIP3    H138914   5.346   5.222   3.259 -1.2531  0.0340 -0.1993
 5833TIP3    H238915   5.335   5.180   3.113 -0.2902  1.5429 -0.7199
 5834TIP3   OH238916   1.657   3.167   4.776 -0.0619 -0.2755 -0.3427
 5834TIP3    H138917   1.718   3.119   4.833  1.0698  0.8563 -0.5863
 5834TIP3    H238918   1.604   3.098   4.736 -0.1273 -1.1692  1.2128
 5835TIP3   OH238919   6.547   1.867  12.374 -0.0670  0.3008 -0.0149
 5835TIP3    H138920   6.592   1.951  12.380  0.0506  0.2511 -0.2355
 5835TIP3    H238921   6.603   1.812  12.320  0.5631 -0.3866  1.3199
 5836TIP3   OH238922   2.790   0.541   4.341 -0.0153  0.0208 -0.0230
 5836TIP3    H138923   2.840   0.522   4.262  0.9924  0.7858  0.4182
 5836TIP3    H238924   2.744   0.460   4.360 -1.4797  0.2794 -2.2535
 5837TIP3   OH238925   2.004   3.910  14.818 -0.4903  0.2165  0.4103
 5837TIP3    H138926   1.985   4.003  14.827 -2.6433 -0.4108  2.8124
 5837TIP3    H238927   1.957   3.883  14.739 -0.8328  0.8949  0.3832
 5838TIP3   OH238928   2.827   1.748  12.758  0.2755 -0.2579  0.1657
 5838TIP3    H138929   2.864   1.677  12.811  1.9962 -0.0103 -0.6760
 5838TIP3    H238930   2.772   1.704  12.693 -0.4224 -0.6700  1.0319
 5839TIP3   OH238931   0.816   1.380  15.197 -0.0987  0.5215 -0.3838
 5839TIP3    H138932   0.824   1.293  15.235 -0.0150  1.1306  1.0092
 5839TIP3    H238933   0.888   1.386  15.135  0.8985  0.2070  0.7343
 5840TIP3   OH238934   0.527   6.293  12.693 -0.0823  0.3463 -0.1201
 5840TIP3    H138935   0.546   6.220  12.635 -0.5512  0.7187 -0.7433
 5840TIP3    H238936   0.541   6.257  12.781  1.1264 -0.0657 -0.4710
 5841TIP3   OH238937   1.883   1.635   1.663  0.5541  0.6069 -0.2788
 5841TIP3    H138938   1.909   1.543   1.659  0.3544  0.5268  0.2240
 5841TIP3    H238939   1.791   1.632   1.689  0.3312  0.9215 -1.0252
 5842TIP3   OH238940   3.722   3.093  14.342  0.3693 -0.6502 -0.5723
 5842TIP3    H138941   3.816   3.082  14.358  0.4163  2.5787  2.0959
 5842TIP3    H238942   3.679   3.036  14.405  0.5156 -1.0813 -0.8584
 5843TIP3   OH238943   3.128   3.239   5.957  0.2481  0.1736 -0.3792
 5843TIP3    H138944   3.048   3.221   5.907  0.7428  1.5419 -1.7472
 5843TIP3    H238945   3.111   3.324   5.998  1.1727  0.6994 -1.0769
 5844TIP3   OH238946   1.486   3.627  13.492 -0.5490  0.0717 -0.7977
 5844TIP3    H138947   1.402   3.671  13.480  0.0456  1.6557  0.5328
 5844TIP3    H238948   1.531   3.680  13.558  0.7955 -1.7550 -0.2169
 5845TIP3   OH238949   5.262   1.807  14.713 -0.0599  0.7076  0.6292
 5845TIP3    H138950   5.217   1.728  14.742  0.5498  0.7485  1.7025
 5845TIP3    H238951   5.344   1.808  14.763  0.9063  0.9028 -0.9007
 5846TIP3   OH238952   6.541   2.407  17.182 -0.6019  0.7728  0.1867
 5846TIP3    H138953   6.478   2.469  17.219  0.4039  2.0414 -0.1982
 5846TIP3    H238954   6.607   2.462  17.140  1.0010 -0.5215  0.9599
 5847TIP3   OH238955   1.172   5.008   2.835  0.2043  0.6369  0.0248
 5847TIP3    H138956   1.186   5.072   2.766  0.2385  0.2747 -0.3101
 5847TIP3    H238957   1.136   5.058   2.908  0.1687  1.0242 -0.2570
 5848TIP3   OH238958   0.916   0.136   2.802 -0.5584  0.2555 -0.0085
 5848TIP3    H138959   0.888   0.202   2.866  1.7506  0.1957  1.1037
 5848TIP3    H238960   0.908   0.053   2.850  0.7183  0.1666  0.0642
 5849TIP3   OH238961   0.498   5.605  14.192  0.6056  0.3040 -0.0091
 5849TIP3    H138962   0.565   5.536  14.198  0.6298  0.3578  0.3687
 5849TIP3    H238963   0.547   5.686  14.205  0.1488  0.2103  2.4784
 5850TIP3   OH238964   4.206   0.498   2.569 -0.6232  0.7458  0.3234
 5850TIP3    H138965   4.120   0.540   2.579  0.2388  2.9213 -1.0948
 5850TIP3    H238966   4.198   0.445   2.490 -1.0930 -0.2282  1.0104
 5851TIP3   OH238967   3.439   3.116  15.477 -0.3177  0.2029 -0.3720
 5851TIP3    H138968   3.511   3.173  15.504 -0.2243 -0.1475  0.1436
 5851TIP3    H238969   3.438   3.047  15.544  1.8024 -2.3225 -2.8159
 5852TIP3   OH238970   2.564   0.480   3.643  0.4065  0.2928  0.6200
 5852TIP3    H138971   2.629   0.420   3.678 -0.7136 -1.0646  0.4016
 5852TIP3    H238972   2.602   0.567   3.656  0.9237 -0.3025  3.2527
 5853TIP3   OH238973   1.750   5.059   3.004 -0.1779 -0.1005 -0.1644
 5853TIP3    H138974   1.818   4.992   3.002  0.2460  0.2364  2.0823
 5853TIP3    H238975   1.671   5.014   2.975  0.5208 -1.0623 -0.6024
 5854TIP3   OH238976   0.247   2.329  14.227  0.1479  0.2596  0.2216
 5854TIP3    H138977   0.285   2.245  14.254 -0.6522 -0.6297 -1.3656
 5854TIP3    H238978   0.313   2.368  14.171  1.2499  1.5063  2.3257
 5855TIP3   OH238979   5.022   1.079   4.346  0.6669  0.2281  0.0718
 5855TIP3    H138980   4.984   1.024   4.278  0.0124 -0.0623  0.6581
 5855TIP3    H238981   4.992   1.039   4.428  1.3038  0.6691  0.5209
 5856TIP3   OH238982   6.448   3.786  15.298  0.3644  0.4122  0.1167
 5856TIP3    H138983   6.426   3.765  15.389  2.4216 -1.2648  0.2524
 5856TIP3    H238984   6.365   3.778  15.251 -0.1690 -1.5738  1.3340
 5857TIP3   OH238985   3.238   4.381   4.669  0.1798 -0.0706  0.0954
 5857TIP3    H138986   3.286   4.318   4.722  1.0341  2.0295  1.8705
 5857TIP3    H238987   3.188   4.432   4.732 -1.2587  0.4119 -1.4008
 5858TIP3   OH238988   0.146   4.764   1.321  0.1143  0.0839  0.5751
 5858TIP3    H138989   0.145   4.849   1.278  2.0301  1.0335  2.3209
 5858TIP3    H238990   0.061   4.757   1.364 -0.6378  0.4306 -0.8588
 5859TIP3   OH238991   0.580   3.138  13.775  0.2879  0.3213  0.0088
 5859TIP3    H138992   0.504   3.162  13.829  1.0154 -0.3025  1.3130
 5859TIP3    H238993   0.618   3.222  13.749 -0.5767  0.6339 -0.2988
 5860TIP3   OH238994   1.477   2.586  14.165  0.4543  0.2976 -0.3158
 5860TIP3    H138995   1.515   2.653  14.108  0.7891 -0.5352 -1.0763
 5860TIP3    H238996   1.540   2.577  14.236 -0.4434  2.0510  0.7187
 5861TIP3   OH238997   0.513   0.073   0.862  0.0475 -0.0495  0.0159
 5861TIP3    H138998   0.518   0.167   0.876  0.7718 -0.2143  0.9081
 5861TIP3    H238999   0.420   0.055   0.850  0.0693  1.0351 -2.0576
 5862TIP3   OH239000   0.501   4.616   2.863  0.4455 -0.0229  0.1069
 5862TIP3    H139001   0.486   4.630   2.769 -0.2001  0.1732  0.2404
 5862TIP3    H239002   0.549   4.694   2.891 -0.0240  0.2650  0.1021
 5863TIP3   OH239003   4.002   2.431   3.248 -0.1081 -0.3233 -0.0864
 5863TIP3    H139004   3.959   2.359   3.293 -0.2511  0.2685  0.7311
 5863TIP3    H239005   4.041   2.390   3.170  0.9500 -1.5426  1.0491
 5864TIP3   OH239006   1.532   3.118   2.405 -0.5932 -0.0088 -0.0369
 5864TIP3    H139007   1.455   3.166   2.434  1.2704  2.7850  0.4702
 5864TIP3    H239008   1.575   3.090   2.486  0.4834  1.0386 -0.2311
 5865TIP3   OH239009   1.914   6.196  11.294 -0.0312 -0.3633 -0.5937
 5865TIP3    H139010   1.934   6.216  11.202  1.1593  2.4103  0.2209
 5865TIP3    H239011   1.939   6.105  11.304  0.5371 -0.4926 -2.8325
 5866TIP3   OH239012   1.308   4.593   1.352 -0.0682 -0.3386 -0.1764
 5866TIP3    H139013   1.260   4.585   1.270  0.1095  0.3706 -0.3505
 5866TIP3    H239014   1.296   4.508   1.396  0.0395 -0.8052 -1.0427
 5867TIP3   OH239015   5.412   2.782   2.262  0.5341  0.2202  0.2074
 5867TIP3    H139016   5.320   2.802   2.242  0.4186  0.5440  1.0515
 5867TIP3    H239017   5.427   2.822   2.347  1.5842  0.5042 -0.1131
 5868TIP3   OH239018   5.557   5.428  14.214 -0.6588 -0.0453  0.2578
 5868TIP3    H139019   5.547   5.335  14.192 -2.3942 -0.1337  1.3349
 5868TIP3    H239020   5.474   5.468  14.188 -0.0571  1.1492  0.1306
 5869TIP3   OH239021   0.836   0.423  13.818 -0.5509 -0.0582  0.3459
 5869TIP3    H139022   0.853   0.330  13.827  0.0364  0.1662  1.7104
 5869TIP3    H239023   0.914   0.458  13.774 -1.1100 -0.3185 -0.8804
 5870TIP3   OH239024   3.258   3.501   5.085  0.4087  0.0480 -0.4269
 5870TIP3    H139025   3.247   3.433   5.018  1.2440 -1.1149  0.5820
 5870TIP3    H239026   3.350   3.496   5.109 -0.0661 -0.1605  1.4300
 5871TIP3   OH239027   2.055   6.365   3.387  0.9055 -0.2813 -0.6037
 5871TIP3    H139028   2.071   6.449   3.431  1.9803 -0.1996 -1.1361
 5871TIP3    H239029   2.025   6.389   3.300  1.2322 -0.4394 -0.7633
 5872TIP3   OH239030   4.758   1.339   4.941 -0.5651  0.0300  0.4488
 5872TIP3    H139031   4.679   1.301   4.980 -0.5322  0.4650  0.9465
 5872TIP3    H239032   4.755   1.432   4.967  0.6356 -0.1668  1.3378
 5873TIP3   OH239033   2.889   5.352  11.889 -0.2908 -0.4492 -0.3365
 5873TIP3    H139034   2.917   5.436  11.853 -0.9722  0.2582  0.7999
 5873TIP3    H239035   2.914   5.288  11.821  1.4493  0.4936 -0.6089
 5874TIP3   OH239036   4.607   2.628   2.133 -0.4447  0.5902 -0.0512
 5874TIP3    H139037   4.547   2.698   2.109 -2.3816 -0.6115  1.1255
 5874TIP3    H239038   4.577   2.552   2.082  2.0019  0.7367 -1.7776
 5875TIP3   OH239039   3.945   1.203   4.654  0.6700  0.4370 -0.1956
 5875TIP3    H139040   3.867   1.170   4.611  0.4894  1.0060 -0.3088
 5875TIP3    H239041   3.973   1.278   4.600  0.9363  0.6186  0.1850
 5876TIP3   OH239042   3.664   4.475   4.497  0.3106 -0.1598 -0.1220
 5876TIP3    H139043   3.694   4.396   4.452  1.7131  0.1310  0.2610
 5876TIP3    H239044   3.645   4.446   4.586  0.5444 -0.1229 -0.0605
 5877TIP3   OH239045   5.029   2.958  15.220 -0.0846 -0.3259  0.0736
 5877TIP3    H139046   5.018   3.020  15.148  0.4281  0.1387  0.3998
 5877TIP3    H239047   4.939   2.936  15.246 -0.2818  2.0787  1.5056
 5878TIP3   OH239048   3.753   4.877  11.191  0.0890 -0.2612  0.3511
 5878TIP3    H139049   3.777   4.928  11.114  0.2174 -2.7457 -1.2992
 5878TIP3    H239050   3.760   4.939  11.264  1.7503  1.6502 -1.3800
 5879TIP3   OH239051   2.635   2.994   6.151 -0.2396 -1.2404 -0.2697
 5879TIP3    H139052   2.695   3.060   6.186 -0.4594 -0.8694 -0.5852
 5879TIP3    H239053   2.617   2.935   6.224  0.8036 -1.5673 -0.2715
 5880TIP3   OH239054   4.367   6.066  11.717  0.0426  0.4349  0.0898
 5880TIP3    H139055   4.313   6.143  11.705  0.6448  0.8001 -0.3257
 5880TIP3    H239056   4.402   6.073  11.806  1.7117  1.6972 -0.6315
 5881TIP3   OH239057   4.629   1.150   0.088  0.4337  0.4361 -0.8627
 5881TIP3    H139058   4.534   1.143   0.083  0.4766  0.0550 -1.1921
 5881TIP3    H239059   4.654   1.092   0.160  0.4469  0.2545 -1.0130
 5882TIP3   OH239060   2.885   4.137   0.290  0.4113 -0.2897  0.2043
 5882TIP3    H139061   2.930   4.207   0.338 -1.1974  0.0167  1.3028
 5882TIP3    H239062   2.820   4.182   0.236 -0.5999 -0.9161  0.8753
 5883TIP3   OH239063   4.354   3.001  16.043 -0.3111  0.2290  0.0369
 5883TIP3    H139064   4.390   2.947  16.113 -2.0872 -0.0228  0.7655
 5883TIP3    H239065   4.272   2.959  16.020  0.5255 -0.0192 -2.6322
 5884TIP3   OH239066   4.943   6.472   0.938  0.1746  0.2562 -0.7981
 5884TIP3    H139067   4.868   6.530   0.927  0.3650  0.1382 -3.0067
 5884TIP3    H239068   4.963   6.442   0.849  1.2812 -1.6726  0.0694
 5885TIP3   OH239069   2.727   1.405  13.686  0.3526 -0.1134 -0.0268
 5885TIP3    H139070   2.744   1.371  13.774  2.1672  0.4409 -0.1517
 5885TIP3    H239071   2.651   1.462  13.697 -0.3445 -1.1964  0.9023
 5886TIP3   OH239072   6.068   4.118   4.748 -0.2225 -0.2767 -0.6736
 5886TIP3    H139073   6.031   4.204   4.768 -0.4837 -0.6061  0.2867
 5886TIP3    H239074   6.159   4.137   4.723 -0.0364  0.1977  0.3448
 5887TIP3   OH239075   6.072   1.975   0.941  0.0599 -0.4024 -0.1862
 5887TIP3    H139076   5.983   1.944   0.961  0.5084 -0.1889  2.3226
 5887TIP3    H239077   6.129   1.904   0.969  0.9617  1.5969  3.3929
 5888TIP3   OH239078   6.090   3.558  17.118 -0.0841  0.8079 -0.1892
 5888TIP3    H139079   6.137   3.519  17.044  1.4245  0.7906  0.7715
 5888TIP3    H239080   6.085   3.651  17.096 -1.4917  0.4934 -1.2928
 5889TIP3   OH239081   1.236   0.693   4.902 -0.3253 -0.0164  0.3646
 5889TIP3    H139082   1.185   0.768   4.933 -0.6173  0.2452 -0.7340
 5889TIP3    H239083   1.231   0.630   4.974  0.1344  1.1102  1.3965
 5890TIP3   OH239084   4.945   3.727  16.845  0.3080  0.2514  0.0320
 5890TIP3    H139085   4.902   3.653  16.802 -0.1696  0.7027 -0.2677
 5890TIP3    H239086   5.004   3.762  16.779  1.2030 -0.4125  0.4693
 5891TIP3   OH239087   0.711   2.133  15.384  0.6956 -0.0904 -0.0519
 5891TIP3    H139088   0.712   2.062  15.449  1.6387 -0.2813 -0.2615
 5891TIP3    H239089   0.643   2.192  15.415 -0.2796 -1.2058 -0.0071
 5892TIP3   OH239090   6.178   0.300   0.446  0.7074  0.0362 -0.2697
 5892TIP3    H139091   6.238   0.323   0.376  0.9245  1.5646  0.3992
 5892TIP3    H239092   6.096   0.345   0.424  0.5723 -0.0131  0.1289
 5893TIP3   OH239093   2.040   1.839   5.677  0.0777  0.5532 -0.4293
 5893TIP3    H139094   2.055   1.751   5.641  1.7654 -1.4498  4.7366
 5893TIP3    H239095   2.124   1.884   5.664  0.8027 -0.2846  1.1965
 5894TIP3   OH239096   0.086   2.987   2.971  0.4428 -0.3607  0.1476
 5894TIP3    H139097  -0.007   2.967   2.966 -0.0518  2.1237 -1.5984
 5894TIP3    H239098   0.096   3.037   3.052  0.2105 -0.4414  0.2260
 5895TIP3   OH239099   2.939   4.769  13.558  0.1800 -0.3196 -0.9805
 5895TIP3    H139100   2.876   4.817  13.612 -1.0673 -1.4725 -1.3756
 5895TIP3    H239101   2.980   4.707  13.619  0.3022 -0.1662 -0.9070
 5896TIP3   OH239102   2.361   3.876  15.498  0.1533 -0.5894 -0.3279
 5896TIP3    H139103   2.356   3.971  15.499 -4.2635 -0.6894  1.0054
 5896TIP3    H239104   2.383   3.852  15.588 -1.9961 -0.8275  0.1735
 5897TIP3   OH239105   6.660   5.313  13.214  0.6048 -0.9490 -0.7666
 5897TIP3    H139106   6.565   5.301  13.213  0.4016  0.5763 -2.3904
 5897TIP3    H239107   6.678   5.360  13.295 -0.3394  1.0397 -1.6999
 5898TIP3   OH239108   4.443   2.747   5.296  0.0180 -1.0516  0.1016
 5898TIP3    H139109   4.350   2.761   5.310  0.2490  0.7462  0.0181
 5898TIP3    H239110   4.465   2.804   5.222  1.4688 -0.2984  1.0763
 5899TIP3   OH239111   4.414   2.284  11.064  0.2928  1.0792  0.6769
 5899TIP3    H139112   4.354   2.329  11.006 -0.0144  1.6270  1.4100
 5899TIP3    H239113   4.442   2.206  11.015 -1.1107  0.7525  0.3872
 5900TIP3   OH239114   2.870   0.525  15.922 -0.0522 -0.5436 -0.2885
 5900TIP3    H139115   2.909   0.508  15.836 -0.0589  0.1041 -0.4158
 5900TIP3    H239116   2.878   0.619  15.935 -0.8151 -0.5245  0.0611
 5901TIP3   OH239117   1.261   3.070  13.309 -0.1075 -0.6773  0.5802
 5901TIP3    H139118   1.208   3.045  13.385  0.0864 -0.0118  0.9373
 5901TIP3    H239119   1.237   3.161  13.292  0.9073 -0.3691  0.7378
 5902TIP3   OH239120   1.672   2.068   0.724 -0.2166 -0.0470  0.3077
 5902TIP3    H139121   1.645   1.983   0.690  1.1413 -1.6734  3.0229
 5902TIP3    H239122   1.757   2.051   0.765  0.6611  2.9092 -0.1421
 5903TIP3   OH239123   2.020   1.588  13.473  0.2312  0.2645 -0.0913
 5903TIP3    H139124   1.950   1.535  13.510  1.0191 -1.9580 -1.7233
 5903TIP3    H239125   2.098   1.562  13.522  0.3098  1.2644  0.3364
 5904TIP3   OH239126   0.624   6.626  16.213  0.1186  0.1222  0.4010
 5904TIP3    H139127   0.544   6.575  16.200  0.0497  0.0932  0.9403
 5904TIP3    H239128   0.615   6.663  16.301  2.9220 -3.8915  2.5098
 5905TIP3   OH239129   2.652   0.134  10.478 -0.0720 -0.7523 -0.1288
 5905TIP3    H139130   2.663   0.227  10.497 -0.7145 -0.4298 -1.2812
 5905TIP3    H239131   2.733   0.108  10.434 -0.2184 -0.5468 -0.5203
 5906TIP3   OH239132   4.181   4.448  11.016  0.0460  0.3260  0.4570
 5906TIP3    H139133   4.112   4.511  10.996  0.2831  0.3174 -0.3850
 5906TIP3    H239134   4.134   4.366  11.032 -0.0575 -0.0312 -1.5385
 5907TIP3   OH239135   6.695   5.639  14.589 -0.1639  0.0575  0.6600
 5907TIP3    H139136   6.721   5.731  14.591  0.4238 -0.0695 -0.5862
 5907TIP3    H239137   6.623   5.637  14.525  0.1123 -0.4243  0.3669
 5908TIP3   OH239138   5.203   2.641   4.596  0.0709 -0.1118  0.8359
 5908TIP3    H139139   5.246   2.715   4.638 -1.3096  1.0763  0.1872
 5908TIP3    H239140   5.138   2.680   4.539 -0.8190 -1.8370  0.6338
 5909TIP3   OH239141   2.311   4.487  13.935 -0.0920  0.2036 -0.0843
 5909TIP3    H139142   2.312   4.507  14.029  0.9719  0.0533 -0.0504
 5909TIP3    H239143   2.311   4.391  13.931 -0.0044  0.2105 -0.2355
 5910TIP3   OH239144   2.090   0.971  15.233  0.4654 -0.3807  0.1682
 5910TIP3    H139145   2.039   0.895  15.206 -0.7166 -0.5627  2.7247
 5910TIP3    H239146   2.024   1.041  15.243  0.8043 -0.4052  2.7423
 5911TIP3   OH239147   5.427   2.464  16.046 -0.0871 -0.0772 -0.1090
 5911TIP3    H139148   5.485   2.538  16.026 -1.2765  0.9033 -0.0077
 5911TIP3    H239149   5.473   2.416  16.115  0.7718  0.4862 -0.2782
 5912TIP3   OH239150   2.036   5.634  13.282  0.0623 -0.1451 -0.2427
 5912TIP3    H139151   1.994   5.565  13.231  0.8623 -1.9370  1.4621
 5912TIP3    H239152   2.092   5.588  13.344  1.5651  2.0828  0.1245
 5913TIP3   OH239153   3.820   3.433   3.656 -0.2790  0.3662 -0.0861
 5913TIP3    H139154   3.767   3.376   3.600 -0.0289 -1.4906  1.4707
 5913TIP3    H239155   3.757   3.469   3.719 -0.0119 -0.4535  0.6717
 5914TIP3   OH239156   3.278   4.346  11.655  0.1508  0.1013 -0.3851
 5914TIP3    H139157   3.276   4.287  11.579  1.5561 -1.4682  0.7565
 5914TIP3    H239158   3.350   4.406  11.636 -0.0024  0.2080 -0.6398
 5915TIP3   OH239159   2.739   0.667  15.170  0.2355  0.4205  0.1613
 5915TIP3    H139160   2.718   0.579  15.138  1.1330  0.1876  0.2226
 5915TIP3    H239161   2.655   0.714  15.166 -0.1140 -0.2456 -0.4646
 5916TIP3   OH239162   4.210   5.908   2.526  0.6587 -0.2078  0.4489
 5916TIP3    H139163   4.195   5.852   2.602 -0.5202  0.2390  0.5664
 5916TIP3    H239164   4.149   5.876   2.460  0.8104  0.1802  0.1163
 5917TIP3   OH239165   6.117   3.031   5.597  0.0336  0.0009  0.3159
 5917TIP3    H139166   6.032   3.021   5.640 -0.0450 -0.5318  0.0390
 5917TIP3    H239167   6.166   2.952   5.620 -0.0826 -0.3917 -0.7270
 5918TIP3   OH239168   0.837   0.351   0.782 -0.5638 -0.0640 -0.4448
 5918TIP3    H139169   0.911   0.379   0.835 -0.1990 -0.7325 -0.5986
 5918TIP3    H239170   0.872   0.282   0.726 -1.0747  0.2746 -1.1891
 5919TIP3   OH239171   6.738   4.794  12.943  0.4280  0.0089 -0.7602
 5919TIP3    H139172   6.802   4.847  12.990  0.0715  0.7184 -1.0734
 5919TIP3    H239173   6.654   4.814  12.984 -0.0018  1.2394 -2.2075
 5920TIP3   OH239174   4.777   1.799   3.941 -0.7353 -0.0869  0.0841
 5920TIP3    H139175   4.682   1.786   3.934 -0.7913 -1.4616  2.9512
 5920TIP3    H239176   4.790   1.836   4.028  1.2956  1.0198 -0.6658
 5921TIP3   OH239177   0.751   5.229  14.057 -0.3926 -0.6097  0.4655
 5921TIP3    H139178   0.669   5.197  14.021 -1.3096  0.6118  1.4499
 5921TIP3    H239179   0.808   5.152  14.058 -0.5743 -0.8781 -2.8333
 5922TIP3   OH239180   5.024   6.713   4.408 -0.5084  0.4286  0.2314
 5922TIP3    H139181   5.003   6.782   4.345 -2.0649 -0.2757 -0.0158
 5922TIP3    H239182   5.013   6.756   4.493 -1.0154  0.6270  0.0691
 5923TIP3   OH239183   1.165   1.893  12.773 -0.2593 -0.4862  0.1547
 5923TIP3    H139184   1.232   1.828  12.798  0.7484  1.5228  2.9398
 5923TIP3    H239185   1.085   1.861  12.814 -0.2800 -1.1485 -0.3899
 5924TIP3   OH239186   4.028   3.735   0.796 -0.4018 -0.0262  0.0123
 5924TIP3    H139187   4.017   3.708   0.705 -1.3406 -1.2316  0.4798
 5924TIP3    H239188   4.095   3.676   0.832  1.0215  1.3624 -0.2637
 5925TIP3   OH239189   2.624   1.005  11.054 -0.8041  0.0556 -0.1955
 5925TIP3    H139190   2.625   0.921  11.101 -0.9312  0.5578  0.7289
 5925TIP3    H239191   2.577   0.988  10.973 -2.8367 -0.2300  1.0188
 5926TIP3   OH239192   3.722   5.242   0.517 -0.2414  0.3769  0.4625
 5926TIP3    H139193   3.700   5.317   0.573 -2.7656  0.1467 -0.1618
 5926TIP3    H239194   3.746   5.173   0.578 -0.7011  0.8336  1.1805
 5927TIP3   OH239195   2.447   5.865   5.478  0.0202  0.1744 -0.5883
 5927TIP3    H139196   2.485   5.906   5.400 -0.0366  2.7891  0.6932
 5927TIP3    H239197   2.372   5.920   5.499  0.2615 -0.2847  1.5342
 5928TIP3   OH239198   0.294   4.283  11.543 -0.3946  0.1388  0.2931
 5928TIP3    H139199   0.265   4.364  11.585  1.6492  0.4976  1.0400
 5928TIP3    H239200   0.220   4.258  11.487 -1.8032  1.4758  1.4964
 5929TIP3   OH239201   4.952   2.388   3.793 -0.1791  0.2827  0.0845
 5929TIP3    H139202   4.872   2.418   3.836  1.2141  2.4756  1.2502
 5929TIP3    H239203   4.935   2.402   3.700 -0.7396  1.8816  0.3982
 5930TIP3   OH239204   3.917   4.827  14.180 -0.8567 -0.4026  0.0547
 5930TIP3    H139205   3.925   4.923  14.186  1.7150 -0.4402 -1.8017
 5930TIP3    H239206   3.845   4.813  14.119  0.0116  0.4077 -1.1871
 5931TIP3   OH239207   2.511   5.706  12.203 -0.2619 -0.3038 -0.3286
 5931TIP3    H139208   2.538   5.644  12.135  0.0826  0.8423 -1.2646
 5931TIP3    H239209   2.416   5.715  12.191 -0.0957  0.4548 -1.1593
 5932TIP3   OH239210   5.468   1.649   1.010 -0.0555 -0.6283  0.4370
 5932TIP3    H139211   5.529   1.704   1.059 -0.0445 -1.3758  1.2943
 5932TIP3    H239212   5.523   1.596   0.954  0.0311 -0.7407  0.6270
 5933TIP3   OH239213   2.837   0.968   3.980  0.3258  0.2582  0.3705
 5933TIP3    H139214   2.899   0.968   3.907  1.5845  0.1762  1.4247
 5933TIP3    H239215   2.752   0.955   3.939  1.1915 -1.4277 -0.9342
 5934TIP3   OH239216   2.381   4.932   5.972 -0.3913 -0.2680  0.1484
 5934TIP3    H139217   2.421   4.851   6.003 -0.0684 -0.4659 -0.7820
 5934TIP3    H239218   2.441   4.965   5.905  0.2256  1.5032  1.5277
 5935TIP3   OH239219   1.527   3.665  11.626  0.6323  0.0592  0.4794
 5935TIP3    H139220   1.456   3.602  11.637  1.5660 -1.2866 -1.0025
 5935TIP3    H239221   1.485   3.744  11.593  0.0317 -1.3620 -2.3223
 5936TIP3   OH239222   3.759   1.046   6.412 -0.1473  0.0854 -1.0576
 5936TIP3    H139223   3.782   1.133   6.445  1.6908 -0.9916  0.6103
 5936TIP3    H239224   3.709   1.006   6.484 -0.4050 -0.4878 -1.5512
 5937TIP3   OH239225   5.323   4.553  14.528 -0.3174  0.3374 -0.0205
 5937TIP3    H139226   5.376   4.608  14.470 -0.6409 -0.7789 -1.4014
 5937TIP3    H239227   5.233   4.580  14.512 -0.5564 -1.2081 -1.3923
 5938TIP3   OH239228   4.852   6.761   1.092  0.2910  0.2208 -0.3478
 5938TIP3    H139229   4.792   6.691   1.066  0.2796  0.0512  0.1396
 5938TIP3    H239230   4.897   6.727   1.169  0.0135  0.9033  0.1166
 5939TIP3   OH239231   4.066   4.057  12.244 -0.0239 -0.0989 -0.2678
 5939TIP3    H139232   4.036   4.091  12.160  1.8341 -0.8292 -1.2663
 5939TIP3    H239233   4.034   3.967  12.247 -1.0077  0.2692  0.2941
 5940TIP3   OH239234   6.322   6.746   2.643  0.4377 -0.2465 -0.3710
 5940TIP3    H139235   6.287   6.669   2.688 -0.1172 -1.0741 -2.1633
 5940TIP3    H239236   6.246   6.802   2.629  0.5844 -0.0540 -0.3974
 5941TIP3   OH239237   6.066   3.295   5.484  0.4450 -0.4770 -0.2814
 5941TIP3    H139238   6.096   3.215   5.528 -0.8160 -0.9687 -0.2919
 5941TIP3    H239239   5.975   3.276   5.461  0.8329  0.1082 -2.3340
 5942TIP3   OH239240   1.901   4.332  12.790 -0.1654  0.2676 -0.8334
 5942TIP3    H139241   1.856   4.329  12.706 -0.7946 -1.6722 -0.4699
 5942TIP3    H239242   1.858   4.264  12.842  0.9105  0.7275  0.6950
 5943TIP3   OH239243   0.597   4.833   5.468 -0.1370  0.0896  0.2297
 5943TIP3    H139244   0.632   4.752   5.505  1.1059  0.8994  0.8902
 5943TIP3    H239245   0.509   4.811   5.439  0.8090 -1.9769 -1.2371
 5944TIP3   OH239246   1.999   4.298   4.516 -0.6089 -0.0968 -0.2709
 5944TIP3    H139247   2.068   4.354   4.481  1.0706 -1.7479  0.2946
 5944TIP3    H239248   2.021   4.287   4.608 -2.0595 -0.0400  0.0956
 5945TIP3   OH239249   5.655   3.736  12.085  0.2765  0.0246 -1.0544
 5945TIP3    H139250   5.654   3.801  12.155  1.1211 -1.5432  0.4533
 5945TIP3    H239251   5.570   3.693  12.089  0.1284  0.2882 -1.3399
 5946TIP3   OH239252   3.984   2.489   0.694 -0.1089 -0.3072  0.4298
 5946TIP3    H139253   3.977   2.400   0.729 -0.2192 -0.2037  0.6662
 5946TIP3    H239254   3.904   2.533   0.723  0.0447 -0.0661  0.4924
 5947TIP3   OH239255   4.071   2.233  16.427  0.2247  0.2689 -0.1159
 5947TIP3    H139256   4.041   2.322  16.441 -0.9715 -0.4970  2.4219
 5947TIP3    H239257   4.036   2.183  16.501  1.8094 -2.0799 -0.8725
 5948TIP3   OH239258   1.288   0.233   2.181  0.0519 -0.0248 -0.3729
 5948TIP3    H139259   1.260   0.307   2.235 -0.1383 -1.2392  1.2098
 5948TIP3    H239260   1.306   0.272   2.095 -0.2696  1.8178  0.3715
 5949TIP3   OH239261   4.843   0.476   5.541  0.4496 -0.2043  0.1111
 5949TIP3    H139262   4.826   0.567   5.567  1.0999 -0.3565  1.0910
 5949TIP3    H239263   4.810   0.423   5.613  0.8384 -0.7069 -0.0730
 5950TIP3   OH239264   6.709   1.483   5.646  0.2747  0.1517 -0.2939
 5950TIP3    H139265   6.797   1.514   5.627 -1.2910  5.0258 -0.2612
 5950TIP3    H239266   6.706   1.477   5.742  1.3174 -2.5371 -0.4102
 5951TIP3   OH239267   4.548   1.976   1.221 -0.3255 -0.2768 -0.2006
 5951TIP3    H139268   4.608   1.961   1.295 -0.1739  0.5191 -0.1550
 5951TIP3    H239269   4.472   2.019   1.260  0.2420  1.2143 -0.6570
 5952TIP3   OH239270   6.021   3.017  12.758 -0.6759 -0.2008 -0.0437
 5952TIP3    H139271   6.106   3.023  12.800 -0.6200 -2.0518  0.1407
 5952TIP3    H239272   6.040   2.993  12.667 -0.9767 -0.3570 -0.0686
 5953TIP3   OH239273   5.885   4.614  15.511  0.0698  0.0220  0.4296
 5953TIP3    H139274   5.836   4.697  15.508 -0.6372 -0.3726  1.0647
 5953TIP3    H239275   5.921   4.605  15.423  0.3938  1.1544  0.4377
 5954TIP3   OH239276   2.476   2.220   5.018 -0.1837 -0.1215 -0.1199
 5954TIP3    H139277   2.404   2.161   5.040 -0.3802  0.5535  1.0268
 5954TIP3    H239278   2.441   2.277   4.950  0.3636 -2.0557 -2.1215
 5955TIP3   OH239279   2.055   2.056  10.618  0.2323 -0.1795  0.7640
 5955TIP3    H139280   2.066   1.977  10.565  0.1085  1.1739 -1.3033
 5955TIP3    H239281   2.143   2.092  10.626  0.5553 -1.4093  3.1500
 5956TIP3   OH239282   4.380   6.038  16.589 -0.7339  0.4987 -0.0729
 5956TIP3    H139283   4.348   6.125  16.612  1.2699  1.3113 -0.2561
 5956TIP3    H239284   4.402   5.997  16.674 -1.1411  0.3939 -0.0193
 5957TIP3   OH239285   4.737   1.967   6.253 -0.3386 -0.1552 -0.7358
 5957TIP3    H139286   4.698   2.036   6.306 -0.0221 -0.0689 -0.6111
 5957TIP3    H239287   4.826   1.957   6.288  0.2111  0.5631 -1.8551
 5958TIP3   OH239288   0.430   1.477   1.211  0.2120 -0.1746 -0.3993
 5958TIP3    H139289   0.407   1.497   1.302 -0.2213 -1.9616 -0.1028
 5958TIP3    H239290   0.525   1.466   1.213  0.1072 -1.0638  0.0180
 5959TIP3   OH239291   6.770   6.461  11.313 -0.4013 -0.1148 -0.5548
 5959TIP3    H139292   6.679   6.475  11.336 -0.8485 -2.1408 -0.9915
 5959TIP3    H239293   6.767   6.413  11.230  1.0090 -1.6248  0.2288
 5960TIP3   OH239294   2.162   1.368   3.538  0.2553  0.6863 -0.3000
 5960TIP3    H139295   2.151   1.344   3.630 -1.6743 -1.2765 -1.0070
 5960TIP3    H239296   2.254   1.394   3.531  0.6193  0.1563  2.0239
 5961TIP3   OH239297   1.002   5.141  13.013  0.5676  0.5200  0.4661
 5961TIP3    H139298   1.013   5.063  13.067 -0.7859  0.1073  0.1563
 5961TIP3    H239299   1.055   5.124  12.935 -0.5013 -0.5178 -0.0441
 5962TIP3   OH239300   5.686   0.232   0.897 -0.7801 -0.4328  0.6458
 5962TIP3    H139301   5.678   0.321   0.931  0.4481  0.0530 -0.3342
 5962TIP3    H239302   5.765   0.198   0.939  0.2076 -0.1603 -0.9800
 5963TIP3   OH239303   5.814   5.067  16.412 -0.0822 -0.3863 -0.0295
 5963TIP3    H139304   5.746   5.116  16.458 -0.6999 -1.2864  0.0111
 5963TIP3    H239305   5.889   5.069  16.472 -0.4222 -0.3227  0.3942
 5964TIP3   OH239306   0.276   5.272   0.912  0.0383 -0.5688 -0.8478
 5964TIP3    H139307   0.190   5.314   0.912  0.3726  0.1333 -1.0312
 5964TIP3    H239308   0.336   5.341   0.941  0.2116 -1.7669  1.7884
 5965TIP3   OH239309   0.255   1.150  14.734  0.4969 -0.4448 -0.1705
 5965TIP3    H139310   0.257   1.055  14.742  0.3231 -0.4437 -0.1291
 5965TIP3    H239311   0.168   1.170  14.701  0.6412 -0.3245 -0.4832
 5966TIP3   OH239312   3.944   4.653  16.847  0.0449  0.3612  0.2291
 5966TIP3    H139313   3.961   4.578  16.904  0.0379  0.6563  0.6232
 5966TIP3    H239314   3.925   4.725  16.907 -0.8412  0.4679 -0.1587
 5967TIP3   OH239315   5.053   5.094   4.034 -0.2851  0.2106  0.2125
 5967TIP3    H139316   5.032   5.023   4.094 -1.4500  1.1558  0.9471
 5967TIP3    H239317   5.117   5.057   3.973  2.5536 -0.2042  3.3058
 5968TIP3   OH239318   5.185   5.479   1.350 -0.8691 -0.3034 -0.0860
 5968TIP3    H139319   5.193   5.484   1.255 -3.2215  1.4602 -0.2161
 5968TIP3    H239320   5.206   5.568   1.380  0.5444 -1.0200  1.1288
 5969TIP3   OH239321   0.189   5.143   3.244  0.4045 -0.7580 -0.1758
 5969TIP3    H139322   0.230   5.107   3.322 -0.0849 -0.5344  0.1786
 5969TIP3    H239323   0.145   5.223   3.273  1.7423  0.3240 -1.0016
 5970TIP3   OH239324   4.607   2.665   4.680 -0.2358  0.4649 -0.3296
 5970TIP3    H139325   4.655   2.736   4.638 -0.0647  2.3854  2.9416
 5970TIP3    H239326   4.674   2.598   4.698 -0.0171  0.3442 -1.5684
 5971TIP3   OH239327   5.086   5.077  11.938  0.1580  0.3129  0.4636
 5971TIP3    H139328   5.181   5.075  11.928  0.1251 -1.9237  0.3851
 5971TIP3    H239329   5.065   5.170  11.951  2.1630  1.0255 -1.1887
 5972TIP3   OH239330   1.775   2.547   2.331  0.4302 -0.7795  0.7297
 5972TIP3    H139331   1.781   2.590   2.416 -1.0363 -0.1477  0.5317
 5972TIP3    H239332   1.840   2.477   2.334  1.1161 -0.0922  1.9695
 5973TIP3   OH239333   3.360   4.346   6.580 -0.3310  0.4149 -0.2334
 5973TIP3    H139334   3.347   4.441   6.573 -1.6062  0.2400 -0.3306
 5973TIP3    H239335   3.289   4.308   6.529 -0.8105 -0.6181  1.1601
 5974TIP3   OH239336   0.692   3.002   3.655  0.8560 -0.0712  0.3608
 5974TIP3    H139337   0.724   3.024   3.742 -0.6215  0.5218  0.7510
 5974TIP3    H239338   0.772   2.991   3.603  1.7052  2.6036  1.0237
 5975TIP3   OH239339   5.127   0.068  11.133 -0.2665  0.2938  0.1258
 5975TIP3    H139340   5.189   0.020  11.079  0.1693 -0.9060  1.6591
 5975TIP3    H239341   5.139   0.160  11.109  0.6578 -0.1383 -1.0373
 5976TIP3   OH239342   0.380   5.891   6.659  0.5909  0.1124 -0.0916
 5976TIP3    H139343   0.431   5.813   6.679  1.7430  1.0009  0.5433
 5976TIP3    H239344   0.320   5.864   6.589  0.3245 -1.5725  0.7623
 5977TIP3   OH239345   6.240   3.890  16.006  0.2318 -0.4304  0.0235
 5977TIP3    H139346   6.176   3.927  15.945 -0.5716 -3.6276 -1.1701
 5977TIP3    H239347   6.317   3.872  15.952  1.5043  1.6608  1.0803
 5978TIP3   OH239348   0.762   3.646  15.236 -0.3639 -0.1593 -0.3635
 5978TIP3    H139349   0.700   3.707  15.197  1.5541  0.7132 -2.1529
 5978TIP3    H239350   0.761   3.570  15.177  1.1728  0.3863 -1.1232
 5979TIP3   OH239351   4.708   5.130   3.184  0.1350 -0.2365  0.4691
 5979TIP3    H139352   4.708   5.169   3.271 -0.4320  0.4110  0.1928
 5979TIP3    H239353   4.632   5.170   3.141  0.9696  0.1741 -0.6404
 5980TIP3   OH239354   4.018   2.940   3.246  0.1181  0.3248  0.3584
 5980TIP3    H139355   3.996   2.953   3.339 -1.5104  1.5159 -0.1702
 5980TIP3    H239356   3.976   3.013   3.201  0.0091 -0.8142 -1.4493
 5981TIP3   OH239357   0.410   4.507   4.791 -0.0079 -0.0105 -0.0573
 5981TIP3    H139358   0.353   4.469   4.858  0.9371 -0.4109  0.5194
 5981TIP3    H239359   0.360   4.581   4.757 -0.1531  0.7051  1.6799
 5982TIP3   OH239360   3.975   2.089  16.637  0.5556  0.1946  0.0349
 5982TIP3    H139361   3.953   1.996  16.649 -2.6410  0.6570 -1.7773
 5982TIP3    H239362   3.948   2.130  16.719  0.2238 -0.1719  0.1116
 5983TIP3   OH239363   2.790   2.681   2.144 -0.0035 -0.0905 -0.0408
 5983TIP3    H139364   2.850   2.628   2.198 -0.4993  0.3337  0.9507
 5983TIP3    H239365   2.791   2.767   2.185 -0.0144  0.3818 -1.0236
 5984TIP3   OH239366   1.418   0.013  16.045 -0.0067  0.0151  0.7995
 5984TIP3    H139367   1.382   0.021  16.134  0.3262  0.7768  0.8666
 5984TIP3    H239368   1.395   0.096  16.003  2.1428  0.7297  1.0117
 5985TIP3   OH239369   5.945   5.115   5.794 -0.8233  0.1041  0.5841
 5985TIP3    H139370   5.996   5.145   5.869 -1.7008 -0.6224  1.4720
 5985TIP3    H239371   6.008   5.069   5.739 -0.2015  0.5652  0.9031
 5986TIP3   OH239372   4.054   4.607   6.206 -0.8238  0.5651  0.5716
 5986TIP3    H139373   4.147   4.627   6.218 -0.3416 -1.4104  0.2956
 5986TIP3    H239374   4.009   4.665   6.267  0.3563  3.7252 -1.4115
 5987TIP3   OH239375   3.578   0.924   1.827  0.2171 -0.0831 -0.0433
 5987TIP3    H139376   3.653   0.961   1.780  0.7874 -0.7950  0.2940
 5987TIP3    H239377   3.580   0.967   1.912  0.9423 -0.9444  0.3868
 5988TIP3   OH239378   3.730   6.071  13.854 -0.5792 -0.2596  0.3476
 5988TIP3    H139379   3.807   6.127  13.866  1.3786 -2.7689 -0.0633
 5988TIP3    H239380   3.762   5.997  13.803 -3.2954 -1.3593  0.1503
 5989TIP3   OH239381   5.895   4.019   4.953 -0.5377  0.4104 -0.5789
 5989TIP3    H139382   5.935   4.087   5.007  0.2659 -0.5214 -0.0108
 5989TIP3    H239383   5.938   4.028   4.868  1.1293 -0.8108  0.1246
 5990TIP3   OH239384   0.414   1.186  10.818 -0.4095  0.0862  0.4008
 5990TIP3    H139385   0.501   1.225  10.820 -0.3672 -0.0182  0.5989
 5990TIP3    H239386   0.371   1.218  10.897 -1.0943  1.3788 -0.4692
 5991TIP3   OH239387   6.098   2.015  16.224 -0.3291  0.0724 -0.4657
 5991TIP3    H139388   6.095   1.925  16.254 -2.8282 -0.3266 -1.6973
 5991TIP3    H239389   6.058   2.066  16.295  2.6012  0.4875  0.9486
 5992TIP3   OH239390   3.594   0.539  14.313 -0.2375 -0.2134 -0.0721
 5992TIP3    H139391   3.587   0.450  14.280  0.7867 -0.4784  0.4001
 5992TIP3    H239392   3.671   0.538  14.370 -0.2791  0.9430  0.0272
 5993TIP3   OH239393   1.080   2.602   1.881 -0.6845 -0.1233  0.7699
 5993TIP3    H139394   1.174   2.612   1.894 -0.6893  0.0320  0.6929
 5993TIP3    H239395   1.071   2.573   1.790 -0.6953 -0.4261  0.8663
 5994TIP3   OH239396   1.255   2.028  14.786  0.0322  0.1127 -0.3369
 5994TIP3    H139397   1.299   2.110  14.809  1.0401 -0.9884  1.8142
 5994TIP3    H239398   1.176   2.027  14.840 -1.2223  0.7456 -2.1040
 5995TIP3   OH239399   2.166   6.021   1.607  0.2536  0.1046  0.5253
 5995TIP3    H139400   2.120   6.093   1.649  0.5968  0.2646  0.6256
 5995TIP3    H239401   2.169   6.045   1.514 -0.0540 -0.0082  0.4852
 5996TIP3   OH239402   2.530   2.803   2.825  0.3234  0.3286  0.4939
 5996TIP3    H139403   2.545   2.782   2.917  1.3659 -0.4399  0.1422
 5996TIP3    H239404   2.616   2.823   2.790 -0.0674  0.5984 -0.3309
 5997TIP3   OH239405   0.236   6.143   6.356 -0.4117  0.3177  0.2597
 5997TIP3    H139406   0.234   6.231   6.318 -1.0128  0.0893 -0.2476
 5997TIP3    H239407   0.242   6.085   6.280 -0.6894 -0.1065  0.5631
 5998TIP3   OH239408   5.898   3.982  12.949 -0.0542  0.3284  0.3452
 5998TIP3    H139409   5.880   3.929  12.871 -0.7653  0.2790  0.5378
 5998TIP3    H239410   5.905   3.918  13.020  0.7260  0.3628  0.3020
 5999TIP3   OH239411   0.123   6.121  17.212 -0.1239  1.0227  0.4200
 5999TIP3    H139412   0.131   6.026  17.210 -0.5176  0.9904  0.0858
 5999TIP3    H239413   0.170   6.151  17.134  0.0098  1.1046  0.5333
 6000TIP3   OH239414   5.525   2.534   4.921 -0.0437  0.2360 -0.0339
 6000TIP3    H139415   5.514   2.445   4.956 -1.0976  1.6612  3.4164
 6000TIP3    H239416   5.495   2.527   4.830  0.6866 -3.1111 -0.1028
 6001TIP3   OH239417   4.576   1.633   1.520  0.1909  0.1289 -0.8090
 6001TIP3    H139418   4.635   1.700   1.554  0.6715 -2.0623  2.8939
 6001TIP3    H239419   4.494   1.680   1.502  0.9455  1.9504  0.3832
 6002TIP3   OH239420   5.904   0.659   5.482  0.3385 -0.3904 -0.3367
 6002TIP3    H139421   5.876   0.732   5.537 -0.3128 -0.9626  0.1024
 6002TIP3    H239422   5.837   0.652   5.415  0.2339 -0.7831 -0.1932
 6003TIP3   OH239423   4.446   4.834  10.826  0.0206 -0.2253 -0.7178
 6003TIP3    H139424   4.500   4.790  10.761 -1.3460 -1.0313 -1.3248
 6003TIP3    H239425   4.477   4.925  10.826  0.2816 -0.3129 -2.2134
 6004TIP3   OH239426   3.968   5.506   2.786 -0.4641  0.0830 -0.2802
 6004TIP3    H139427   4.063   5.502   2.777 -0.3398 -1.6438  1.4355
 6004TIP3    H239428   3.936   5.515   2.697  1.3383  1.3603 -0.8213
 6005TIP3   OH239429   3.107   1.119  14.108 -0.3990 -0.0628  0.2851
 6005TIP3    H139430   3.027   1.070  14.091  0.3339 -0.9555 -0.6789
 6005TIP3    H239431   3.090   1.167  14.189 -2.2960  0.6314 -0.5108
 6006TIP3   OH239432   6.457   1.307   0.862 -0.4611  0.0876 -0.2920
 6006TIP3    H139433   6.438   1.397   0.838  0.0295  0.5697  1.0929
 6006TIP3    H239434   6.380   1.278   0.912  0.4026  0.5570  1.3687
 6007TIP3   OH239435   6.512   4.937  13.313  0.4831 -0.5209  0.7412
 6007TIP3    H139436   6.486   4.963  13.224 -0.3686  1.3772  1.5058
 6007TIP3    H239437   6.440   4.882  13.344  0.6805 -1.0099  0.3492
 6008TIP3   OH239438   5.484   5.027   5.111  0.2675  0.2220 -0.2147
 6008TIP3    H139439   5.432   5.085   5.056 -0.6571 -0.4762 -0.0911
 6008TIP3    H239440   5.568   5.072   5.121 -0.5717  1.7255  0.2073
 6009TIP3   OH239441   1.564   1.768  10.880 -0.0977 -0.3764  0.3186
 6009TIP3    H139442   1.471   1.760  10.859 -0.0741  0.8239 -0.2400
 6009TIP3    H239443   1.607   1.777  10.795  0.6077 -1.6353  0.5266
 6010TIP3   OH239444   3.084   5.279  16.496 -0.2879  0.0579 -0.1147
 6010TIP3    H139445   3.120   5.195  16.466 -0.8231  0.2292 -1.2590
 6010TIP3    H239446   2.995   5.281  16.461 -0.8127  0.4278  1.2084
 6011TIP3   OH239447   4.370   3.141  12.019  0.4219  0.6865  0.3679
 6011TIP3    H139448   4.442   3.082  11.997 -0.9798 -1.5090  1.4637
 6011TIP3    H239449   4.361   3.132  12.114 -3.8382 -2.1823 -0.1854
 6012TIP3   OH239450   1.163   1.189  14.640 -0.0624 -0.2759 -0.1995
 6012TIP3    H139451   1.164   1.276  14.679  0.3040  0.5492 -1.9881
 6012TIP3    H239452   1.210   1.134  14.703 -2.1737  0.3335  1.9782
 6013TIP3   OH239453   1.740   5.275  16.359 -0.0587 -0.2886 -0.1560
 6013TIP3    H139454   1.718   5.219  16.285 -0.7776  0.9700 -0.9120
 6013TIP3    H239455   1.659   5.322  16.378  0.1145 -0.6178  1.4528
 6014TIP3   OH239456   3.166   4.370   5.897  0.0944 -0.4062  0.7348
 6014TIP3    H139457   3.115   4.434   5.848  1.3618  0.7811  0.9260
 6014TIP3    H239458   3.156   4.288   5.849 -0.7209  0.1666 -0.0747
 6015TIP3   OH239459   3.192   3.891   1.525 -0.2770 -0.6254  0.2030
 6015TIP3    H139460   3.141   3.972   1.517 -0.7757 -1.0038 -0.5448
 6015TIP3    H239461   3.241   3.886   1.443 -1.4793 -1.9081 -0.4571
 6016TIP3   OH239462   5.999   4.275  15.862 -0.5480  0.6239 -0.6582
 6016TIP3    H139463   6.044   4.268  15.946 -0.1614 -1.8273 -1.0109
 6016TIP3    H239464   5.907   4.291  15.886 -0.3173  0.6948  0.2037
 6017TIP3   OH239465   2.933   2.613  15.533 -0.1216 -0.4702  0.7534
 6017TIP3    H139466   2.924   2.605  15.438  0.3990  1.9093  0.4670
 6017TIP3    H239467   2.844   2.603  15.566 -1.0057  2.8705 -0.3838
 6018TIP3   OH239468   4.404   5.773  12.157 -0.3112 -0.9293 -0.2275
 6018TIP3    H139469   4.451   5.814  12.085 -1.1420  0.0822 -0.2087
 6018TIP3    H239470   4.472   5.726  12.206  0.4797 -0.4785 -0.8733
 6019TIP3   OH239471   5.502   1.647  15.291  0.2929  0.0141  0.0735
 6019TIP3    H139472   5.465   1.733  15.270  1.9525  0.6808 -0.1789
 6019TIP3    H239473   5.547   1.620  15.211  0.3648 -0.7766  0.3800
 6020TIP3   OH239474   1.602   3.192  15.641  0.0675 -0.6829 -0.1431
 6020TIP3    H139475   1.620   3.285  15.647  0.5931 -0.8792  1.5088
 6020TIP3    H239476   1.680   3.149  15.676 -0.3541 -1.7293 -0.4436
 6021TIP3   OH239477   4.324   4.720   4.205  0.0879 -0.4960 -0.3635
 6021TIP3    H139478   4.397   4.662   4.224 -0.4902 -0.9667  0.4963
 6021TIP3    H239479   4.322   4.781   4.279  1.5930  1.5809 -1.9645
 6022TIP3   OH239480   4.543   5.555  14.825  0.6121 -0.3736 -0.3605
 6022TIP3    H139481   4.518   5.466  14.802  0.5622 -0.0983 -1.4081
 6022TIP3    H239482   4.617   5.544  14.885 -1.0778 -1.1578  1.6241
 6023TIP3   OH239483   3.718   2.272  16.080 -0.4988  0.2023 -0.0425
 6023TIP3    H139484   3.642   2.322  16.050 -0.8865  0.4111  1.2441
 6023TIP3    H239485   3.688   2.230  16.161  0.5625 -0.2066  0.1399
 6024TIP3   OH239486   5.225   5.410  13.666  0.3962 -0.2764 -0.2449
 6024TIP3    H139487   5.320   5.402  13.672  0.2505 -0.6279  1.8253
 6024TIP3    H239488   5.201   5.346  13.599  1.8004  1.4331 -2.4669
 6025TIP3   OH239489   6.473   6.599   1.967  0.4973 -0.4010  0.3357
 6025TIP3    H139490   6.542   6.632   1.909 -1.1219 -0.6958 -1.8191
 6025TIP3    H239491   6.444   6.518   1.926 -1.1570 -0.2691  1.1887
 6026TIP3   OH239492   5.748   3.553  13.065  0.4097  1.1334  0.6901
 6026TIP3    H139493   5.750   3.463  13.099 -1.7370  0.3271 -1.1712
 6026TIP3    H239494   5.739   3.608  13.142 -2.5279 -0.5422  1.6153
 6027TIP3   OH239495   5.477   5.081   2.137 -0.0481  0.2510  0.2832
 6027TIP3    H139496   5.561   5.034   2.139 -1.1709 -1.8263 -0.2393
 6027TIP3    H239497   5.445   5.076   2.227 -0.8244 -1.2399 -0.0605
 6028TIP3   OH239498   5.273   1.148  13.843 -0.1057  0.4825 -0.2825
 6028TIP3    H139499   5.344   1.174  13.784  0.4276  0.7850  0.4881
 6028TIP3    H239500   5.282   1.053  13.850 -1.0114  0.2597 -1.7535
 6029TIP3   OH239501   2.545   5.999  15.103  0.1493  0.3488  0.3955
 6029TIP3    H139502   2.496   6.003  15.185  1.1510 -0.3647  1.0397
 6029TIP3    H239503   2.604   6.075  15.107 -0.4443  0.8432 -0.0918
 6030TIP3   OH239504   5.934   0.635   2.588  0.2656  0.4170 -0.2798
 6030TIP3    H139505   5.845   0.634   2.624  0.5068 -0.6906  0.3110
 6030TIP3    H239506   5.981   0.699   2.641  0.1881 -0.0273  0.3316
 6031TIP3   OH239507   5.679   2.952  12.432 -0.2710 -0.0543 -0.7854
 6031TIP3    H139508   5.628   2.913  12.503  1.2617  0.8913  0.8457
 6031TIP3    H239509   5.614   3.002  12.381 -1.1514  0.4259  0.7740
 6032TIP3   OH239510   0.830   2.653  13.644 -0.0500  0.3834 -0.2101
 6032TIP3    H139511   0.878   2.736  13.641  1.2196 -0.1901  2.6123
 6032TIP3    H239512   0.878   2.600  13.707 -3.1753 -1.0224  1.0927
 6033TIP3   OH239513   1.297   3.512  15.644  0.3450 -0.0925 -0.1249
 6033TIP3    H139514   1.260   3.463  15.571 -1.7686  0.6037  0.4370
 6033TIP3    H239515   1.360   3.572  15.604 -0.6528  0.1479 -1.3591
 6034TIP3   OH239516   6.340   1.708  12.433  0.3102 -0.4241 -0.6753
 6034TIP3    H139517   6.264   1.758  12.402  1.8773  1.0655 -2.2882
 6034TIP3    H239518   6.413   1.770  12.427  2.1361 -2.6018 -1.6971
 6035TIP3   OH239519   3.005   6.598   6.333 -0.0630  0.4746  0.3554
 6035TIP3    H139520   2.937   6.628   6.394  1.0835  0.4217  1.6827
 6035TIP3    H239521   3.009   6.503   6.346 -1.1243  0.2025 -1.1856
 6036TIP3   OH239522   2.583   3.194   2.797 -0.0055  0.0155  0.2535
 6036TIP3    H139523   2.604   3.252   2.724  0.2435 -0.0482  0.2724
 6036TIP3    H239524   2.517   3.135   2.763  1.0755 -0.8741 -0.3344
 6037TIP3   OH239525   6.087   1.678  12.972 -0.2710  0.2198 -0.0919
 6037TIP3    H139526   6.032   1.662  13.048  0.2247 -0.2921  0.1607
 6037TIP3    H239527   6.155   1.611  12.977 -0.2551  0.1609 -1.0047
 6038TIP3   OH239528   1.374   0.192  12.494  0.5463  0.3031 -0.0687
 6038TIP3    H139529   1.294   0.224  12.537  2.2985  2.1263  1.9289
 6038TIP3    H239530   1.385   0.250  12.418 -1.1248 -1.2743 -1.5671
 6039TIP3   OH239531   4.230   5.727  13.010 -0.2031 -0.2864 -0.4566
 6039TIP3    H139532   4.222   5.723  13.105  1.2980  3.3474 -0.0791
 6039TIP3    H239533   4.297   5.662  12.989 -0.1046 -0.6850  1.0610
 6040TIP3   OH239534   5.166   4.571  12.504  0.5230  0.5435 -0.3114
 6040TIP3    H139535   5.127   4.510  12.442  2.4653 -0.9276 -0.1279
 6040TIP3    H239536   5.101   4.579  12.574 -0.4946  0.0438 -1.1973
 6041TIP3   OH239537   3.149   0.324  10.288  0.1565  0.0531 -0.4854
 6041TIP3    H139538   3.159   0.419  10.289 -0.2818  0.1260 -1.9158
 6041TIP3    H239539   3.228   0.291  10.330  0.3724  1.0500 -0.1115
 6042TIP3   OH239540   0.083   3.186  17.009 -0.7190  0.3260 -0.2845
 6042TIP3    H139541   0.035   3.212  16.930  0.4457  1.4359 -0.6546
 6042TIP3    H239542   0.141   3.116  16.979 -0.7121  0.3298 -0.2800
 6043TIP3   OH239543   4.050   0.399  15.258 -0.0735  0.3386  0.1061
 6043TIP3    H139544   4.125   0.457  15.275 -0.9053  1.0131  1.5968
 6043TIP3    H239545   3.974   0.457  15.261 -0.9572 -0.8955  1.9978
 6044TIP3   OH239546   0.545   1.061  14.909 -0.5027 -0.4965  0.3113
 6044TIP3    H139547   0.605   0.995  14.875 -0.7730 -0.8778  0.5667
 6044TIP3    H239548   0.601   1.123  14.955 -0.1365  0.0098 -0.7918
 6045TIP3   OH239549   4.822   6.429  10.986  0.0044 -0.0474  0.1373
 6045TIP3    H139550   4.843   6.505  11.041  2.4271  0.1459 -0.9716
 6045TIP3    H239551   4.823   6.464  10.897  0.7000 -1.2723 -0.3404
 6046TIP3   OH239552   2.608   1.680   1.627 -0.0644 -0.6833 -0.2333
 6046TIP3    H139553   2.619   1.762   1.578  1.7521 -0.5432  0.3876
 6046TIP3    H239554   2.521   1.687   1.665 -0.2736  0.5777 -0.9039
 6047TIP3   OH239555   6.386   6.150  15.978  0.4264  0.6597 -0.0085
 6047TIP3    H139556   6.424   6.217  16.034 -0.6684 -0.4376  2.0901
 6047TIP3    H239557   6.458   6.122  15.922  2.0552  0.4058  2.1768
 6048TIP3   OH239558   2.664   5.977  16.518 -0.2979 -0.0880 -0.0837
 6048TIP3    H139559   2.676   6.037  16.444  1.6526  1.2194  1.2460
 6048TIP3    H239560   2.749   5.934  16.526 -0.9573 -1.2877  0.5011
 6049TIP3   OH239561   2.845   1.417   3.699 -0.1175 -0.5800 -0.3820
 6049TIP3    H139562   2.861   1.444   3.608 -0.2587 -0.4155 -0.3583
 6049TIP3    H239563   2.762   1.459   3.722  0.4356  0.2304  0.1724
 6050TIP3   OH239564   2.694   0.761   0.566  0.2265  0.3029 -0.3176
 6050TIP3    H139565   2.690   0.737   0.473 -2.3742  0.0142 -0.1768
 6050TIP3    H239566   2.779   0.727   0.595  0.5332 -0.7452 -2.2840
 6051TIP3   OH239567   5.461   4.781  16.262  0.2858  0.2902 -0.3991
 6051TIP3    H139568   5.553   4.767  16.286  0.0567 -0.2048  0.2227
 6051TIP3    H239569   5.445   4.873  16.283 -0.5042 -0.6283  3.5798
 6052TIP3   OH239570   4.642   2.264  12.406 -0.2799 -0.2290  0.3597
 6052TIP3    H139571   4.570   2.202  12.399 -0.3663 -0.1691  0.6912
 6052TIP3    H239572   4.606   2.347  12.373 -0.5362 -0.0627  1.0558
 6053TIP3   OH239573   4.266   3.519  17.185 -0.0630 -0.8563  0.0603
 6053TIP3    H139574   4.345   3.507  17.133 -1.0700 -1.7846 -1.2993
 6053TIP3    H239575   4.208   3.572  17.130 -0.3556 -0.1159  1.0684
 6054TIP3   OH239576   2.692   6.029   2.538  0.6869  0.2048 -0.3096
 6054TIP3    H139577   2.637   5.957   2.511  0.1927 -0.3759  2.0847
 6054TIP3    H239578   2.632   6.101   2.554  1.1736  1.1686 -2.6536
 6055TIP3   OH239579   5.408   2.718  15.534  0.0843 -1.1637  0.3571
 6055TIP3    H139580   5.423   2.773  15.611  0.0720 -0.8874  0.1648
 6055TIP3    H239581   5.345   2.652  15.564 -1.4963  0.1679  0.0299
 6056TIP3   OH239582   2.848   6.594   4.661  0.3795 -0.5195 -0.2765
 6056TIP3    H139583   2.806   6.652   4.724 -1.1398 -0.8806 -0.9500
 6056TIP3    H239584   2.779   6.533   4.634  1.5879 -1.7759 -0.6094
 6057TIP3   OH239585   4.375   4.477  11.643  0.3176  0.5910 -0.1815
 6057TIP3    H139586   4.392   4.500  11.552  0.1290 -0.8533 -0.5891
 6057TIP3    H239587   4.415   4.548  11.694 -0.1196  1.7156 -1.4057
 6058TIP3   OH239588   1.545   5.549  15.114  0.1359  0.1695 -0.0765
 6058TIP3    H139589   1.498   5.534  15.196  2.0804  1.1896  1.2813
 6058TIP3    H239590   1.627   5.501  15.126  1.0843  1.5862 -0.7846
 6059TIP3   OH239591   0.303   3.580  16.512 -0.0166  0.1579  0.7235
 6059TIP3    H139592   0.294   3.617  16.600 -2.2031 -0.0740  0.6308
 6059TIP3    H239593   0.339   3.493  16.526 -0.9717 -0.1330  1.4572
 6060TIP3   OH239594   0.576   3.935  12.290 -0.0173 -0.2355 -0.8286
 6060TIP3    H139595   0.634   3.890  12.351  1.0046  2.0489 -0.0604
 6060TIP3    H239596   0.631   3.954  12.214  0.6616  3.0470  0.4133
 6061TIP3   OH239597   6.562   0.870  14.323  0.1123  0.5343  0.6522
 6061TIP3    H139598   6.629   0.889  14.389  0.9192 -0.1928  0.0472
 6061TIP3    H239599   6.490   0.830  14.371  0.3629  0.7551  1.2091
 6062TIP3   OH239600   2.480   4.121  16.950  0.1498  0.3473  0.7498
 6062TIP3    H139601   2.553   4.071  16.914 -0.1238  0.9988 -0.7422
 6062TIP3    H239602   2.519   4.204  16.978 -0.3016  1.4391 -1.7467
 6063TIP3   OH239603   0.422   5.456   4.678  0.1211  0.2687  0.1686
 6063TIP3    H139604   0.406   5.549   4.692 -0.5719 -0.0849  1.7938
 6063TIP3    H239605   0.377   5.437   4.595 -0.7412  1.1171  0.4349
 6064TIP3   OH239606   3.700   6.300   3.911  0.5203 -0.0848  0.0978
 6064TIP3    H139607   3.608   6.272   3.905  1.1795 -2.4156  0.1035
 6064TIP3    H239608   3.744   6.226   3.953  2.0888  1.7844  1.8294
 6065TIP3   OH239609   6.554   5.791  14.869 -0.4341  0.4455 -0.0304
 6065TIP3    H139610   6.648   5.775  14.877 -0.7336 -0.4814  2.1448
 6065TIP3    H239611   6.546   5.886  14.880  0.2584  0.5239 -0.1794
 6066TIP3   OH239612   2.174   1.565   5.645  0.1666  0.2027  0.2584
 6066TIP3    H139613   2.126   1.496   5.691 -1.4849  0.7921 -0.5241
 6066TIP3    H239614   2.207   1.522   5.566 -0.2482  0.1093  0.1304
 6067TIP3   OH239615   3.216   4.057  12.655  0.1237 -0.0198 -0.6059
 6067TIP3    H139616   3.234   4.135  12.707  0.4076  0.1179 -0.9045
 6067TIP3    H239617   3.265   4.071  12.574 -1.1044  0.2423 -1.3182
 6068TIP3   OH239618   4.752   2.127  11.114  0.4102  0.4718  0.5945
 6068TIP3    H139619   4.678   2.123  11.053  1.6546 -0.4542 -0.9058
 6068TIP3    H239620   4.803   2.203  11.085  0.8695  0.1829  0.6309
 6069TIP3   OH239621   1.148   0.576  11.496  0.8790  0.2912  0.0657
 6069TIP3    H139622   1.169   0.484  11.481  1.4892 -0.2197  3.5482
 6069TIP3    H239623   1.213   0.624  11.445  1.3227 -1.2085 -0.8128
 6070TIP3   OH239624   3.527   6.488   3.710  0.3485  0.1229 -0.3083
 6070TIP3    H139625   3.482   6.410   3.677  0.5343  0.3173 -1.0286
 6070TIP3    H239626   3.620   6.470   3.696  0.3817  0.5381 -0.6320
 6071TIP3   OH239627   0.700   6.575   1.625 -0.0895 -0.2024 -0.3647
 6071TIP3    H139628   0.782   6.528   1.638 -0.5522 -0.1716  3.3970
 6071TIP3    H239629   0.633   6.507   1.620 -0.5102 -0.1368  2.9997
 6072TIP3   OH239630   4.702   3.954   6.172 -0.0035 -0.0107  0.6412
 6072TIP3    H139631   4.609   3.958   6.194 -0.4121 -1.3128 -0.7542
 6072TIP3    H239632   4.737   3.885   6.229 -0.0791 -0.1586  0.5079
 6073TIP3   OH239633   0.451   1.388   5.259 -0.0626  0.1766  0.8638
 6073TIP3    H139634   0.545   1.373   5.262 -0.3038 -1.3858  0.5840
 6073TIP3    H239635   0.418   1.356   5.343 -0.4198  0.2821  0.7693
 6074TIP3   OH239636   2.610   0.300   4.442  0.1911 -0.4176 -0.4317
 6074TIP3    H139637   2.541   0.349   4.487 -0.3455 -0.2343 -1.4319
 6074TIP3    H239638   2.655   0.252   4.511  0.1226  0.7651  0.4392
 6075TIP3   OH239639   4.068   0.638  16.057 -0.2266 -0.2332  1.0441
 6075TIP3    H139640   4.011   0.651  15.982  3.2254  0.1449 -1.6561
 6075TIP3    H239641   4.037   0.558  16.098 -2.1386 -0.4863 -0.8169
 6076TIP3   OH239642   3.909   4.837   3.541 -0.3281  0.0213 -0.4197
 6076TIP3    H139643   3.833   4.883   3.505  0.0576 -0.0550 -1.3397
 6076TIP3    H239644   3.981   4.861   3.483  0.7217  1.4846  1.4506
 6077TIP3   OH239645   2.195   3.374  13.159 -0.1385  1.0420 -0.0680
 6077TIP3    H139646   2.120   3.426  13.188  1.2634  2.4788  1.1006
 6077TIP3    H239647   2.270   3.433  13.169  1.1537 -0.3570 -1.2358
 6078TIP3   OH239648   1.790   3.768   2.051  0.1087  0.2092 -0.3878
 6078TIP3    H139649   1.885   3.762   2.051  0.2056  0.8972 -2.9333
 6078TIP3    H239650   1.760   3.678   2.061  1.0163 -0.0082  0.4258
 6079TIP3   OH239651   3.788   6.584   2.814  0.0023  0.1498  0.2949
 6079TIP3    H139652   3.816   6.596   2.723  3.5784  0.5904  1.3678
 6079TIP3    H239653   3.803   6.670   2.854 -1.8924  0.0588  1.2128
 6080TIP3   OH239654   5.623   1.683   1.650  0.8781  0.3772 -0.1541
 6080TIP3    H139655   5.660   1.718   1.731 -2.4465  0.1169  1.5376
 6080TIP3    H239656   5.613   1.589   1.667 -0.3976  0.4197 -0.6486
 6081TIP3   OH239657   2.897   5.029  14.871  0.3232 -0.2349 -0.1957
 6081TIP3    H139658   2.961   5.003  14.938 -0.7945 -0.4421  0.8137
 6081TIP3    H239659   2.865   4.946  14.836 -0.6932 -0.1695  0.5648
 6082TIP3   OH239660   6.199   3.879   4.857  0.2306  0.1841 -0.1594
 6082TIP3    H139661   6.225   3.955   4.805  0.8391 -0.5132 -0.8813
 6082TIP3    H239662   6.161   3.917   4.936 -0.4529  1.2607 -0.9754
 6083TIP3   OH239663   5.196   0.286  12.290 -0.6906 -0.2478 -0.2699
 6083TIP3    H139664   5.132   0.240  12.344 -1.1678  1.3205  0.5512
 6083TIP3    H239665   5.237   0.349  12.350  0.4202 -0.0724 -1.1957
 6084TIP3   OH239666   4.323   0.801   3.751 -0.1636 -0.2955 -0.7011
 6084TIP3    H139667   4.339   0.875   3.693 -0.7344  0.7373  0.4160
 6084TIP3    H239668   4.332   0.724   3.696 -0.0899  0.6344 -2.0104
 6085TIP3   OH239669   1.166   3.935   2.262 -0.2206 -0.3478 -0.0376
 6085TIP3    H139670   1.135   3.966   2.347 -0.2456 -0.9827  0.1883
 6085TIP3    H239671   1.089   3.940   2.205 -0.8410 -2.2030  0.5992
 6086TIP3   OH239672   5.820   1.891  13.835 -0.3727  0.6996 -0.4156
 6086TIP3    H139673   5.883   1.953  13.797 -0.4325  1.3148  0.4581
 6086TIP3    H239674   5.872   1.814  13.856  0.0233  1.0513 -0.0722
 6087TIP3   OH239675   1.364   6.783   3.523 -0.7488  0.3647 -0.1564
 6087TIP3    H139676   1.379   6.716   3.590 -1.1778  1.3587  0.9575
 6087TIP3    H239677   1.430   6.850   3.541 -0.5983  0.4533 -1.0000
 6088TIP3   OH239678   2.786   6.283   2.603 -0.1994  0.2766 -0.3220
 6088TIP3    H139679   2.766   6.194   2.573 -0.8416  1.1017 -2.4191
 6088TIP3    H239680   2.872   6.276   2.643 -0.5191 -1.4220  0.1133
 6089TIP3   OH239681   6.021   2.146   4.574 -0.1613  0.0339  0.2766
 6089TIP3    H139682   5.990   2.102   4.494 -0.0018  1.4427 -0.5792
 6089TIP3    H239683   6.040   2.235   4.546  2.2232 -0.1024  1.3513
 6090TIP3   OH239684   0.915   0.384   3.588 -0.3301 -0.4022 -0.0799
 6090TIP3    H139685   0.989   0.326   3.607 -0.8001 -1.0719 -0.2653
 6090TIP3    H239686   0.948   0.443   3.519  0.7636  0.8205  1.4503
 6091TIP3   OH239687   3.090   0.493   2.208 -0.3938 -0.3443 -0.3424
 6091TIP3    H139688   3.145   0.506   2.286 -0.9135  0.0327 -0.0364
 6091TIP3    H239689   3.015   0.443   2.241 -0.4577 -0.4598 -0.6687
 6092TIP3   OH239690   6.351   2.694   0.052 -0.2476  0.0962 -1.0072
 6092TIP3    H139691   6.423   2.718  -0.007  1.1488 -1.3318  0.0667
 6092TIP3    H239692   6.381   2.723   0.138 -0.9786 -0.4706 -0.5570
 6093TIP3   OH239693   4.570   1.414  12.059  0.1284 -0.0112  0.0891
 6093TIP3    H139694   4.644   1.460  12.099  0.2119 -1.8471  2.1874
 6093TIP3    H239695   4.606   1.329  12.034 -0.5720  0.1864 -1.6017
 6094TIP3   OH239696   1.629   5.010  10.664 -0.1963 -0.2927 -0.5418
 6094TIP3    H139697   1.556   4.953  10.641 -0.2985  0.2050 -1.4696
 6094TIP3    H239698   1.600   5.097  10.638  0.5236 -0.0212 -0.4343
 6095TIP3   OH239699   3.118   1.145   3.457 -0.3115  0.4924  0.5649
 6095TIP3    H139700   3.195   1.177   3.411 -0.0611  0.4938  0.9831
 6095TIP3    H239701   3.048   1.149   3.392 -0.0081  0.6995  0.2493
 6096TIP3   OH239702   3.575   2.071  12.632 -0.3393 -0.8772 -0.4964
 6096TIP3    H139703   3.562   1.989  12.585  1.0134 -1.2125 -0.2929
 6096TIP3    H239704   3.649   2.113  12.588 -0.0458 -0.4771  0.3599
 6097TIP3   OH239705   4.696   3.007  14.404 -0.2614  0.1912  0.4600
 6097TIP3    H139706   4.659   3.022  14.317 -1.3162  0.7082  0.9791
 6097TIP3    H239707   4.709   3.095  14.440  1.7818  0.0211  0.1771
 6098TIP3   OH239708   2.124   4.654   1.340 -0.3888  0.0911 -0.2526
 6098TIP3    H139709   2.066   4.622   1.271 -0.2368 -1.7800  0.4380
 6098TIP3    H239710   2.140   4.746   1.319 -0.3054 -0.4645 -2.6987
 6099TIP3   OH239711   2.213   3.948   5.356  0.2473 -0.0168  0.1421
 6099TIP3    H139712   2.227   3.854   5.355 -0.3603 -0.1010 -0.9709
 6099TIP3    H239713   2.295   3.985   5.321 -0.0710 -0.2150 -0.8339
 6100TIP3   OH239714   1.063   0.426  14.776 -0.6331  0.3053 -0.0948
 6100TIP3    H139715   0.977   0.403  14.811 -1.3941  0.0356 -2.0363
 6100TIP3    H239716   1.124   0.364  14.817 -1.5984 -0.4819  0.1720
 6101TIP3   OH239717   4.768   1.739   5.236 -0.1065  0.0146  0.2095
 6101TIP3    H139718   4.848   1.792   5.247 -0.6837  0.8953  0.2333
 6101TIP3    H239719   4.696   1.802   5.248 -0.8030 -0.3405 -1.9941
 6102TIP3   OH239720   1.127   5.867   0.435 -0.1520  0.0111  0.0574
 6102TIP3    H139721   1.167   5.907   0.513 -2.2044 -1.2145  1.8047
 6102TIP3    H239722   1.133   5.773   0.451 -0.6526 -0.2414 -1.2446
 6103TIP3   OH239723   0.706   5.840  15.234 -0.2033  0.0270 -0.5623
 6103TIP3    H139724   0.748   5.799  15.158  0.4451  1.5759 -1.0510
 6103TIP3    H239725   0.774   5.896  15.271 -0.4655 -0.8154  1.2599
 6104TIP3   OH239726   2.359   3.045   6.267 -0.5105 -0.2611  0.1893
 6104TIP3    H139727   2.404   2.963   6.286  1.7972  1.2986  1.8324
 6104TIP3    H239728   2.312   3.065   6.348 -2.5966 -0.8832 -0.8481
 6105TIP3   OH239729   6.466   5.627  14.413 -0.1067 -0.9512  0.1251
 6105TIP3    H139730   6.468   5.637  14.318  0.7594 -0.0322  0.2349
 6105TIP3    H239731   6.386   5.578  14.430  0.7393 -2.8669 -1.2404
 6106TIP3   OH239732   1.180   5.894   0.147 -0.1271  0.1119  0.0464
 6106TIP3    H139733   1.138   5.890   0.233  1.7038 -0.9999  0.9265
 6106TIP3    H239734   1.148   5.816   0.101 -1.9688  1.2911 -0.7163
 6107TIP3   OH239735   1.747   4.437  11.926 -0.4820  0.6489  0.3743
 6107TIP3    H139736   1.654   4.415  11.930 -0.1047 -1.4125 -1.5325
 6107TIP3    H239737   1.767   4.444  11.833  1.1410  1.6612  0.7699
 6108TIP3   OH239738   6.022   4.974   0.313  0.4596  0.1041 -0.1557
 6108TIP3    H139739   5.984   4.971   0.401  0.0767  2.7739 -0.1805
 6108TIP3    H239740   6.113   5.001   0.327  0.3415  0.7328 -0.5936
 6109TIP3   OH239741   5.367   1.338   0.331 -1.0238 -0.2543  0.3996
 6109TIP3    H139742   5.356   1.299   0.244 -0.3824  1.7404 -0.6021
 6109TIP3    H239743   5.456   1.315   0.356 -1.2394 -0.9084  0.5917
 6110TIP3   OH239744   4.017   1.541   3.981 -0.2360 -0.6726  0.3271
 6110TIP3    H139745   4.042   1.524   4.072  1.1500 -0.6709 -0.0426
 6110TIP3    H239746   4.087   1.595   3.946 -0.4640 -1.1514 -0.9125
 6111TIP3   OH239747   0.456   6.683   0.234  0.4764 -0.4793  0.1734
 6111TIP3    H139748   0.533   6.707   0.285  0.8587  1.7874 -1.4229
 6111TIP3    H239749   0.432   6.762   0.187 -1.9369 -1.5758 -0.5356
 6112TIP3   OH239750   0.027   2.334   5.989 -0.0299 -0.2070  0.0323
 6112TIP3    H139751   0.056   2.282   6.064 -1.8217  0.4274  1.1857
 6112TIP3    H239752  -0.023   2.406   6.028  0.3324  0.9967 -1.6918
 6113TIP3   OH239753   3.887   1.566   3.203 -0.2378 -0.3263  0.2170
 6113TIP3    H139754   3.868   1.474   3.185  2.1825 -0.9277  0.6497
 6113TIP3    H239755   3.847   1.613   3.129 -0.8555 -1.7596 -0.3869
 6114TIP3   OH239756   2.912   5.524   0.855 -0.2610 -0.8980  0.2647
 6114TIP3    H139757   2.968   5.491   0.926  0.6955  1.0377  0.4357
 6114TIP3    H239758   2.858   5.592   0.897 -2.8437 -2.7893  0.1336
 6115TIP3   OH239759   0.914   4.317  15.961 -0.0642  0.0716  0.2216
 6115TIP3    H139760   0.911   4.382  15.890 -1.4767 -0.7850 -0.5100
 6115TIP3    H239761   1.006   4.292  15.966  0.2353  0.9945 -0.5342
 6116TIP3   OH239762   4.312   0.531   5.349 -0.0499  0.3076 -0.4426
 6116TIP3    H139763   4.402   0.535   5.318  0.0612 -1.8710 -0.5320
 6116TIP3    H239764   4.313   0.463   5.417 -1.0945  2.1859  1.4979
 6117TIP3   OH239765   6.425   1.018   1.860 -0.2516 -0.0363 -0.5288
 6117TIP3    H139766   6.505   1.024   1.808  0.0296 -0.5668 -0.1615
 6117TIP3    H239767   6.455   0.997   1.948 -0.8941 -2.0172 -0.7578
 6118TIP3   OH239768   6.109   0.834  15.183  0.0335 -0.1163 -0.0852
 6118TIP3    H139769   6.026   0.795  15.157  0.2594 -0.7151  0.0867
 6118TIP3    H239770   6.111   0.918  15.137  0.3012 -1.0433 -1.8212
 6119TIP3   OH239771   1.985   5.992  10.821  0.4296  0.1056 -0.3271
 6119TIP3    H139772   1.901   6.024  10.787  0.7960 -0.0346 -1.3600
 6119TIP3    H239773   1.962   5.914  10.871  0.1065 -0.7102 -1.7423
 6120TIP3   OH239774   2.557   3.721   1.426 -0.0815 -0.0879  0.0766
 6120TIP3    H139775   2.472   3.716   1.470  0.0561 -0.8431  0.2586
 6120TIP3    H239776   2.609   3.652   1.466  0.2979 -0.2707 -0.7286
 6121TIP3   OH239777   2.087   0.597  16.565  0.3471 -0.0924 -0.6078
 6121TIP3    H139778   2.046   0.549  16.493 -0.3775 -0.9228  0.3371
 6121TIP3    H239779   2.015   0.614  16.626  0.7120  1.6914 -0.6411
 6122TIP3   OH239780   1.904   6.029   1.373 -0.6356  0.6822  0.5241
 6122TIP3    H139781   1.970   6.096   1.386 -0.4106  0.2608  1.6328
 6122TIP3    H239782   1.923   5.963   1.441 -1.8712  0.3176  0.5315
 6123TIP3   OH239783   1.975   0.034  10.496 -0.4170 -0.1664 -0.4604
 6123TIP3    H139784   1.968   0.044  10.591 -1.5841  1.1014 -0.6621
 6123TIP3    H239785   2.059  -0.008  10.483  0.8982  1.8935  1.0030
 6124TIP3   OH239786   0.833   1.099  15.171 -0.3163  0.4265  0.1736
 6124TIP3    H139787   0.902   1.082  15.107 -0.4766  0.5113 -0.0203
 6124TIP3    H239788   0.776   1.022  15.166 -0.0593  0.2103  0.5614
 6125TIP3   OH239789   5.381   2.856   3.252  0.1727 -0.1738  0.3672
 6125TIP3    H139790   5.415   2.791   3.314 -0.6339 -0.5887  0.3896
 6125TIP3    H239791   5.305   2.893   3.297 -2.0475 -2.3583 -1.4056
 6126TIP3   OH239792   0.778   1.259  15.752  0.6643 -0.0738 -0.2808
 6126TIP3    H139793   0.747   1.349  15.762  2.3492  0.2362  2.8872
 6126TIP3    H239794   0.873   1.265  15.766  0.5548 -2.5872  1.9825
 6127TIP3   OH239795   3.072   5.852   1.453 -0.0733 -0.0956  0.2020
 6127TIP3    H139796   3.091   5.789   1.522  0.2162 -2.5968 -2.0946
 6127TIP3    H239797   3.157   5.881   1.422 -0.1831 -0.4874 -0.4650
 6128TIP3   OH239798   1.785   2.279   2.885 -0.7960 -0.2502 -0.6153
 6128TIP3    H139799   1.729   2.349   2.851  0.3293  1.2153  0.4646
 6128TIP3    H239800   1.787   2.295   2.980  1.3984 -0.3116 -0.6360
 6129TIP3   OH239801   6.535   4.611   1.491  0.0737  0.1297  1.3136
 6129TIP3    H139802   6.461   4.671   1.498 -1.0529 -1.2995  1.9784
 6129TIP3    H239803   6.527   4.554   1.567  1.4164 -0.5456  0.9683
 6130TIP3   OH239804   1.599   0.306  17.231 -0.1721 -0.2189  0.4204
 6130TIP3    H139805   1.639   0.231  17.275 -3.1326 -0.7167  2.3797
 6130TIP3    H239806   1.509   0.308  17.262 -1.2962  1.8087 -2.6589
 6131TIP3   OH239807   2.699   0.656   6.064 -1.0195  0.9800 -0.1091
 6131TIP3    H139808   2.683   0.583   6.003  2.0059 -0.1234  0.3178
 6131TIP3    H239809   2.783   0.692   6.036 -0.3630  1.4958  2.3928
 6132TIP3   OH239810   0.631   4.482   6.003 -0.4150 -0.0755 -0.4679
 6132TIP3    H139811   0.564   4.480   6.072  0.4366  1.0185  0.4109
 6132TIP3    H239812   0.678   4.564   6.017  1.8015 -1.3020 -0.4108
 6133TIP3   OH239813   3.976   2.418   1.122  0.0020 -0.2429 -0.3549
 6133TIP3    H139814   4.032   2.401   1.198 -0.3810 -0.2682 -0.0711
 6133TIP3    H239815   3.888   2.424   1.159 -0.1736 -0.1415 -0.7867
 6134TIP3   OH239816   0.186   4.077   5.137  0.2423 -0.1443 -0.6032
 6134TIP3    H139817   0.257   4.016   5.119 -3.0182 -5.1698  2.3461
 6134TIP3    H239818   0.194   4.097   5.230 -1.5368  0.0418 -0.4636
 6135TIP3   OH239819   6.239   3.182  16.150  0.3381 -0.3873 -0.2015
 6135TIP3    H139820   6.154   3.209  16.115  0.5182 -0.8504 -1.0131
 6135TIP3    H239821   6.220   3.101  16.197 -0.1795  1.0397  2.1260
 6136TIP3   OH239822   2.327   5.656  16.400 -0.3013  0.1949  0.0230
 6136TIP3    H139823   2.241   5.666  16.360  0.0799  1.1184 -0.5847
 6136TIP3    H239824   2.327   5.567  16.434 -1.9355  0.5843  1.1121
 6137TIP3   OH239825   4.149   5.419  16.608 -0.3401  0.1827 -0.0236
 6137TIP3    H139826   4.107   5.335  16.628  0.9370 -0.7375 -1.1188
 6137TIP3    H239827   4.152   5.464  16.692  1.0741 -1.8638  1.0904
 6138TIP3   OH239828   4.670   0.319   5.385  0.0358 -0.2305  0.6236
 6138TIP3    H139829   4.626   0.300   5.468  1.9984 -1.2962  1.4480
 6138TIP3    H239830   4.749   0.367   5.409  0.0867  0.3826 -0.7068
 6139TIP3   OH239831   4.982   4.470  11.121 -0.2066 -0.2037  0.0399
 6139TIP3    H139832   5.034   4.540  11.080 -1.2700  1.5157  1.5256
 6139TIP3    H239833   5.039   4.433  11.188  0.4497 -0.9210 -0.9193
 6140TIP3   OH239834   1.937   4.799   4.868  0.3890  0.0666  0.2021
 6140TIP3    H139835   1.913   4.886   4.900 -0.6870  0.1580 -0.8308
 6140TIP3    H239836   1.895   4.738   4.928  0.7682  0.2535  0.6592
 6141TIP3   OH239837   6.016   1.859  15.510 -0.4498 -0.1923  0.9275
 6141TIP3    H139838   5.988   1.775  15.546  1.2821 -0.4778  1.6821
 6141TIP3    H239839   6.051   1.907  15.585 -0.3426  0.7438  0.2894
 6142TIP3   OH239840   5.814   0.136   2.250  0.9082 -0.1896  0.1156
 6142TIP3    H139841   5.824   0.144   2.345  3.5755  0.8556 -0.1908
 6142TIP3    H239842   5.895   0.173   2.214 -0.9084  1.3206 -2.6506
 6143TIP3   OH239843   2.362   3.940  12.035  0.0648 -0.3956  0.8300
 6143TIP3    H139844   2.407   4.024  12.025 -2.9938  1.1481 -0.9459
 6143TIP3    H239845   2.284   3.961  12.086 -1.2564 -1.9421 -0.4898
 6144TIP3   OH239846   3.161   2.014   4.726 -0.0622 -0.3036 -0.3072
 6144TIP3    H139847   3.081   1.985   4.770  0.6580  0.7029  1.7365
 6144TIP3    H239848   3.164   2.108   4.742  0.7598 -0.0781 -1.6875
 6145TIP3   OH239849   4.853   0.338   4.144 -0.4428 -0.1265  0.4545
 6145TIP3    H139850   4.800   0.271   4.188 -2.0317 -0.1199 -1.3527
 6145TIP3    H239851   4.789   0.391   4.097  1.0098  1.2575  0.0078
 6146TIP3   OH239852   3.668   2.872  12.753  0.1901 -0.4943  0.2326
 6146TIP3    H139853   3.601   2.921  12.705 -1.8148  0.0903  3.4345
 6146TIP3    H239854   3.622   2.794  12.785  1.4866 -0.9563  1.0021
 6147TIP3   OH239855   6.203   1.219   4.037 -0.6998 -0.4877 -0.1021
 6147TIP3    H139856   6.238   1.194   4.122 -0.7147  1.2930  0.4458
 6147TIP3    H239857   6.109   1.203   4.044 -0.6622 -0.6027  0.1313
 6148TIP3   OH239858   5.193   2.539   3.321  0.4918 -0.0680 -0.1385
 6148TIP3    H139859   5.260   2.492   3.371 -0.2982 -1.8464 -0.6946
 6148TIP3    H239860   5.123   2.556   3.384  0.5005 -0.2325 -0.0843
 6149TIP3   OH239861   5.125   5.362   0.113 -0.0592  0.1576 -0.2955
 6149TIP3    H139862   5.108   5.283   0.163 -0.5681 -0.4392 -1.3987
 6149TIP3    H239863   5.067   5.428   0.151 -1.9105 -0.8185 -1.3886
 6150TIP3   OH239864   6.326   6.653   3.680 -0.0161 -0.1038 -0.2969
 6150TIP3    H139865   6.238   6.627   3.652 -0.3729  0.3630  0.3785
 6150TIP3    H239866   6.364   6.696   3.603  0.1089 -1.4745 -1.0141
 6151TIP3   OH239867   4.038   3.909   1.514  0.9348  0.0232  0.5264
 6151TIP3    H139868   4.113   3.958   1.478  0.5592 -0.1144 -0.4753
 6151TIP3    H239869   3.978   3.977   1.545  0.2694  0.2445 -1.1582
 6152TIP3   OH239870   0.851   5.498   2.432  0.2040  0.0992 -0.0280
 6152TIP3    H139871   0.899   5.505   2.349 -1.4857 -0.4343 -1.0748
 6152TIP3    H239872   0.821   5.587   2.450  0.2073  0.1345 -0.1972
 6153TIP3   OH239873   2.286   0.998  15.951  0.0291  0.2230 -0.4299
 6153TIP3    H139874   2.227   0.926  15.972  0.0470  0.3889  0.2111
 6153TIP3    H239875   2.240   1.076  15.983  1.1544  0.2243  1.2747
 6154TIP3   OH239876   4.025   2.122   1.426  0.3009  0.0119  0.1386
 6154TIP3    H139877   3.982   2.136   1.511  0.1998  0.4296  0.0179
 6154TIP3    H239878   3.985   2.186   1.368 -0.2197 -0.8318 -0.4401
 6155TIP3   OH239879   1.065   5.620  14.935 -0.5595  0.2582 -0.4033
 6155TIP3    H139880   1.150   5.650  14.903 -1.7150  1.0522 -2.8445
 6155TIP3    H239881   1.058   5.529  14.905 -0.9484  0.4854 -1.0120
 6156TIP3   OH239882   4.422   3.243   0.609  0.2048  0.4806  0.5548
 6156TIP3    H139883   4.327   3.249   0.598 -0.1276  0.3047  3.1284
 6156TIP3    H239884   4.441   3.297   0.685  2.3485  1.4706 -0.6227
 6157TIP3   OH239885   3.757   2.196  15.691 -0.1595 -0.6875 -0.1783
 6157TIP3    H139886   3.705   2.163  15.764 -0.0267 -1.3418 -0.3756
 6157TIP3    H239887   3.703   2.264  15.651 -0.9225 -1.4940 -0.4988
 6158TIP3   OH239888   4.381   5.285   4.195 -0.6310 -0.5254 -0.1896
 6158TIP3    H139889   4.448   5.272   4.128 -0.6027 -1.2019 -0.0367
 6158TIP3    H239890   4.406   5.366   4.239  1.5127 -2.0376  1.4986
 6159TIP3   OH239891   5.286   6.678  14.719  0.9336 -1.3400 -0.4291
 6159TIP3    H139892   5.329   6.650  14.800  2.9829  0.3756 -0.9119
 6159TIP3    H239893   5.238   6.757  14.744  1.6882 -0.7258 -0.9145
 6160TIP3   OH239894   5.269   0.008  12.224  0.0022 -0.0515  0.6567
 6160TIP3    H139895   5.240   0.098  12.237  0.4146 -0.1067  2.0994
 6160TIP3    H239896   5.193  -0.038  12.188 -0.8786  0.3948  1.9186
 6161TIP3   OH239897   3.310   1.421  15.423 -0.3068  0.6513 -0.3158
 6161TIP3    H139898   3.396   1.462  15.418 -0.3327  0.6945 -0.4192
 6161TIP3    H239899   3.256   1.483  15.473  0.0022  0.1321  0.6804
 6162TIP3   OH239900   4.620   1.585  13.916 -0.2769  0.3387 -0.2862
 6162TIP3    H139901   4.687   1.519  13.934  1.2012  1.7411 -0.5195
 6162TIP3    H239902   4.564   1.584  13.993 -0.0875 -0.9694 -0.1516
 6163TIP3   OH239903   5.182   3.843  16.281  0.2892 -0.0309  0.1548
 6163TIP3    H139904   5.248   3.888  16.333  0.0750  0.9199 -0.3779
 6163TIP3    H239905   5.209   3.857  16.190  0.1859 -0.9319 -0.0211
 6164TIP3   OH239906   4.097   4.874  15.384 -0.1408 -0.3707  0.0960
 6164TIP3    H139907   4.152   4.890  15.461 -0.6368  2.2070 -0.0374
 6164TIP3    H239908   4.015   4.839  15.421 -0.1506  0.2737  0.7009
 6165TIP3   OH239909   2.870   5.955  13.260 -0.3625  0.3355 -0.5262
 6165TIP3    H139910   2.780   5.946  13.290 -0.3201  2.4368  0.3475
 6165TIP3    H239911   2.922   5.922  13.333 -0.3807  1.1933 -0.1184
 6166TIP3   OH239912   3.544   1.659  14.660 -0.0295  0.0906  0.3152
 6166TIP3    H139913   3.627   1.694  14.628 -0.0408 -0.2265 -0.0629
 6166TIP3    H239914   3.558   1.643  14.753  1.2318 -2.6299 -0.3016
 6167TIP3   OH239915   4.900   4.850  13.301  0.5648 -0.2156 -0.1595
 6167TIP3    H139916   4.889   4.801  13.219  3.6061  2.0790 -2.0667
 6167TIP3    H239917   4.995   4.849  13.316  0.1889  0.7489  2.5045
 6168TIP3   OH239918   5.426   1.740   3.633 -0.5198 -0.5455 -0.3044
 6168TIP3    H139919   5.363   1.719   3.564  0.8563  0.8080 -2.0497
 6168TIP3    H239920   5.416   1.835   3.646 -1.5626 -0.9812  2.2076
 6169TIP3   OH239921   3.092   5.195   5.050 -0.1501 -0.3434  0.0560
 6169TIP3    H139922   3.175   5.150   5.033  0.0358  0.5582 -1.4602
 6169TIP3    H239923   3.036   5.170   4.977 -0.3414  1.1720 -0.3316
 6170TIP3   OH239924   2.958   4.299  12.800  0.1163  0.2568 -0.3151
 6170TIP3    H139925   2.953   4.323  12.707 -0.2186 -0.5192 -0.5041
 6170TIP3    H239926   2.873   4.259  12.819  0.6409 -0.7440 -0.0081
 6171TIP3   OH239927   1.073   2.877   0.180 -0.3434 -0.2246 -0.1765
 6171TIP3    H139928   1.007   2.945   0.187  0.5078  0.6339 -0.4430
 6171TIP3    H239929   1.112   2.872   0.267 -1.0964 -1.0929  0.1253
 6172TIP3   OH239930   1.394   0.452  16.146 -0.4897 -0.5855 -0.4178
 6172TIP3    H139931   1.371   0.538  16.109 -2.2772 -1.4224 -1.3148
 6172TIP3    H239932   1.444   0.473  16.224 -0.3038  1.2761 -0.9978
 6173TIP3   OH239933   3.494   3.643  15.420 -0.5841 -0.7551 -0.3391
 6173TIP3    H139934   3.507   3.729  15.382  1.5145 -0.4403  0.9980
 6173TIP3    H239935   3.408   3.648  15.463 -0.4412  0.6899 -0.2104
 6174TIP3   OH239936   1.841   3.932  11.701 -0.1357  0.2097  0.2632
 6174TIP3    H139937   1.762   3.986  11.709 -0.1745  0.2515 -0.3960
 6174TIP3    H239938   1.900   3.966  11.768  0.0922  1.5044 -0.5695
 6175TIP3   OH239939   3.179   1.924   0.758 -0.4356 -0.3011  0.6971
 6175TIP3    H139940   3.106   1.880   0.802 -0.1912 -0.9053  0.5106
 6175TIP3    H239941   3.256   1.897   0.807  0.0655 -2.5435 -1.2441
 6176TIP3   OH239942   6.011   1.746  11.857 -0.0543 -0.3658  0.0899
 6176TIP3    H139943   6.078   1.777  11.918 -0.4574  1.2288 -0.2508
 6176TIP3    H239944   6.040   1.658  11.831  1.3084 -0.1354  0.8082
 6177TIP3   OH239945   5.288   6.614   1.240  0.1803  0.3693 -0.3724
 6177TIP3    H139946   5.193   6.616   1.252  0.2376 -0.6542  0.2819
 6177TIP3    H239947   5.315   6.528   1.273  1.4184  0.9134  0.0792
 6178TIP3   OH239948   4.054   2.717   2.713 -0.1404 -0.3911  0.3083
 6178TIP3    H139949   4.096   2.649   2.660 -0.3338 -0.4736  0.2571
 6178TIP3    H239950   4.126   2.765   2.752 -0.0020 -0.6796  0.4122
 6179TIP3   OH239951   6.736   2.738  14.547  0.5739 -0.2744 -0.1837
 6179TIP3    H139952   6.672   2.807  14.531  0.5868 -0.7189 -2.3864
 6179TIP3    H239953   6.811   2.762  14.493  2.5793  0.5691  2.8424
 6180TIP3   OH239954   5.724   5.628   6.299 -0.2146  0.2905 -1.0404
 6180TIP3    H139955   5.802   5.664   6.341  0.1848  0.3819 -1.8498
 6180TIP3    H239956   5.709   5.684   6.224  0.0258 -0.8245 -1.9397
 6181TIP3   OH239957   1.707   0.821   4.978  0.0646  0.4388  0.4864
 6181TIP3    H139958   1.655   0.901   4.987 -0.0560  0.3288  0.7960
 6181TIP3    H239959   1.702   0.780   5.065  2.0539  1.2890  1.0527
 6182TIP3   OH239960   4.359   6.543   3.151 -0.3124 -0.0672 -0.5241
 6182TIP3    H139961   4.431   6.512   3.206 -0.3919 -1.2736 -1.0899
 6182TIP3    H239962   4.284   6.490   3.176 -0.8388  0.7103 -0.4312
 6183TIP3   OH239963   5.440   6.141   5.825 -0.6433  0.2156  0.1482
 6183TIP3    H139964   5.409   6.206   5.888 -0.0342  0.1534  0.5129
 6183TIP3    H239965   5.519   6.105   5.865 -0.5448 -0.1913 -0.4150
 6184TIP3   OH239966   1.601   0.514  11.290  0.4618  0.3173 -0.3059
 6184TIP3    H139967   1.646   0.443  11.243 -0.4921  1.7005 -3.4871
 6184TIP3    H239968   1.659   0.589  11.282 -0.1184  0.7984 -0.0064
 6185TIP3   OH239969   4.786   5.104  16.164 -0.1538 -0.8163 -0.1418
 6185TIP3    H139970   4.729   5.029  16.181 -0.4545 -1.1998 -2.6533
 6185TIP3    H239971   4.728   5.180  16.174 -0.8464 -1.1438 -1.5117
 6186TIP3   OH239972   1.570   1.615  11.112  0.4986  0.5137  0.6829
 6186TIP3    H139973   1.569   1.531  11.066 -0.2317  0.8579  0.0577
 6186TIP3    H239974   1.596   1.679  11.045 -2.8836  1.3817  0.0859
 6187TIP3   OH239975   3.367   6.113   5.799  0.5468  0.4225 -0.3113
 6187TIP3    H139976   3.326   6.176   5.740  0.4929  0.8296  0.1624
 6187TIP3    H239977   3.294   6.077   5.850  0.6846  0.6409  0.0468
 6188TIP3   OH239978   5.996   1.320  11.201  0.6248 -0.1512 -0.0125
 6188TIP3    H139979   6.035   1.405  11.219  1.0356 -0.2187 -0.5755
 6188TIP3    H239980   6.012   1.305  11.108  0.5229 -0.8257  0.0743
 6189TIP3   OH239981   0.827   3.429   1.347 -0.3657 -0.2129  0.2221
 6189TIP3    H139982   0.752   3.438   1.288 -0.1028  0.5192 -0.0046
 6189TIP3    H239983   0.899   3.400   1.290 -0.1415  0.3835  0.1939
 6190TIP3   OH239984   6.707   0.229   2.352 -0.0536  0.5009  0.2421
 6190TIP3    H139985   6.635   0.171   2.327  1.0614 -0.7615 -0.0257
 6190TIP3    H239986   6.673   0.276   2.429 -1.2894  0.1625 -0.0851
 6191TIP3   OH239987   1.122   0.429  11.786  0.8459 -0.6877  0.1341
 6191TIP3    H139988   1.215   0.407  11.797  0.5755 -2.0132 -0.1335
 6191TIP3    H239989   1.080   0.345  11.767  0.1813  0.4175 -3.7643
 6192TIP3   OH239990   5.410   6.304  15.624 -0.0290  0.1335 -0.2024
 6192TIP3    H139991   5.419   6.219  15.665  0.3466  0.2746  0.0121
 6192TIP3    H239992   5.488   6.312  15.568 -1.1744 -0.6014 -1.9361
 6193TIP3   OH239993   4.665   3.247  12.796  0.0705  0.2302 -0.0621
 6193TIP3    H139994   4.691   3.318  12.855  3.3500 -1.4651  0.6383
 6193TIP3    H239995   4.637   3.177  12.854  2.2180 -1.0436 -0.5465
 6194TIP3   OH239996   2.073   2.553   0.823 -0.0856 -0.0065  0.2828
 6194TIP3    H139997   2.166   2.574   0.830 -0.1914  0.3192  0.7353
 6194TIP3    H239998   2.028   2.637   0.832 -0.4485 -0.2399  0.6815
 6195TIP3   OH239999   1.093   6.559  13.882  0.3803 -0.4834 -0.0577
 6195TIP3    H140000   1.170   6.616  13.872 -0.5166  0.9158  0.8878
 6195TIP3    H240001   1.048   6.564  13.798  0.5611 -0.1621 -0.1358
 6196TIP3   OH240002   2.434   6.318  16.262  0.4965 -0.3884 -1.1246
 6196TIP3    H140003   2.523   6.299  16.288  0.1982 -1.4192 -0.8409
 6196TIP3    H240004   2.434   6.307  16.167  0.6380 -0.5298 -1.1091
 6197TIP3   OH240005   5.516   2.561   5.714 -0.1782 -0.3197  0.2009
 6197TIP3    H140006   5.490   2.607   5.634 -1.6827 -0.0491  0.8245
 6197TIP3    H240007   5.602   2.597   5.735  0.6432 -1.0726 -1.8022
 6198TIP3   OH240008   6.139   1.299  14.913 -0.4022 -0.1771 -0.1625
 6198TIP3    H140009   6.223   1.269  14.878 -0.7907 -2.5403  0.8821
 6198TIP3    H240010   6.084   1.312  14.835  0.2022 -0.8338 -0.7043
 6199TIP3   OH240011   3.635   4.633   3.300 -0.2872  0.1690  0.2156
 6199TIP3    H140012   3.717   4.596   3.331 -0.2197 -0.4229 -0.6573
 6199TIP3    H240013   3.646   4.641   3.206 -0.4179  2.1317  0.3401
 6200TIP3   OH240014   0.767   6.731   5.842 -0.0397 -0.0672 -0.4705
 6200TIP3    H140015   0.723   6.777   5.770  1.0301  1.3713 -0.2107
 6200TIP3    H240016   0.832   6.793   5.874  0.3648 -1.1896  0.9065
 6201TIP3   OH240017   5.776   4.031  15.866 -0.0517 -0.3737  0.5470
 6201TIP3    H140018   5.735   4.065  15.787  1.1609  1.5461  0.7137
 6201TIP3    H240019   5.835   3.962  15.836 -1.5218 -1.4328  0.0611
 6202TIP3   OH240020   6.330   3.704  16.825  0.4377 -0.9798  0.1776
 6202TIP3    H140021   6.361   3.647  16.896  3.2950 -0.6392 -0.7050
 6202TIP3    H240022   6.363   3.662  16.746  0.4286  0.5823 -0.6722
 6203TIP3   OH240023   3.004   3.227  10.830 -0.5207 -0.1791  0.2719
 6203TIP3    H140024   2.983   3.140  10.865 -2.1820  0.1973  0.2640
 6203TIP3    H240025   2.929   3.248  10.773 -1.5370  2.4652  2.4805
 6204TIP3   OH240026   2.784   4.898   2.900 -0.1934  0.1509 -0.3176
 6204TIP3    H140027   2.729   4.969   2.934  0.5886  0.2039  0.8635
 6204TIP3    H240028   2.739   4.818   2.926 -1.4085  0.1792 -2.1939
 6205TIP3   OH240029   4.795   2.163   1.173 -0.4394  0.4842  0.4024
 6205TIP3    H140030   4.779   2.243   1.122 -2.0262 -0.2023 -0.2218
 6205TIP3    H240031   4.727   2.102   1.144 -1.2152 -0.0396  3.1361
 6206TIP3   OH240032   1.154   1.674   4.731  0.5379 -0.6175  0.1349
 6206TIP3    H140033   1.213   1.601   4.747  0.2252 -1.1875 -1.2794
 6206TIP3    H240034   1.075   1.634   4.695 -0.0650  0.3095  0.4144
 6207TIP3   OH240035   2.632   4.881   1.823  0.3389 -0.0557 -0.8402
 6207TIP3    H140036   2.583   4.804   1.794  0.5986 -0.8692  0.8153
 6207TIP3    H240037   2.606   4.950   1.763 -2.8545 -0.4517 -0.0335
 6208TIP3   OH240038   6.515   4.172   5.144 -0.1132  0.3744  0.5495
 6208TIP3    H140039   6.488   4.100   5.201 -2.6537  0.4226 -0.5001
 6208TIP3    H240040   6.589   4.137   5.095  1.1143 -0.1934  2.7544
 6209TIP3   OH240041   2.144   5.836  16.823  0.5513 -0.5313 -0.0196
 6209TIP3    H140042   2.119   5.781  16.898  0.1122 -1.5808 -0.9250
 6209TIP3    H240043   2.181   5.915  16.863  1.6764 -1.6885  1.3027
 6210TIP3   OH240044   1.290   6.299   3.238 -0.8660 -0.3058  0.3487
 6210TIP3    H140045   1.217   6.306   3.175 -1.0037  3.0400  0.7570
 6210TIP3    H240046   1.365   6.334   3.191 -0.7439  1.2833  1.6773
 6211TIP3   OH240047   0.488   4.311  15.213 -0.0263 -0.4535 -0.5159
 6211TIP3    H140048   0.461   4.307  15.305 -1.0765  1.1151 -0.7442
 6211TIP3    H240049   0.548   4.237  15.203  1.9152  0.6851  2.0128
 6212TIP3   OH240050   6.722   6.072   1.390 -0.1228  0.4421 -0.2789
 6212TIP3    H140051   6.722   6.070   1.486  2.2741  3.1515 -0.1402
 6212TIP3    H240052   6.709   6.164   1.368 -0.1644 -0.0773 -2.5455
 6213TIP3   OH240053   6.082   3.951   3.232 -0.4209  0.2482 -0.0038
 6213TIP3    H140054   6.096   3.935   3.325  1.2959  3.6665  0.4061
 6213TIP3    H240055   6.153   3.905   3.188  0.6753  1.3204  0.6317
 6214TIP3   OH240056   0.324   5.438   4.924 -0.6148  0.0906 -0.4254
 6214TIP3    H140057   0.306   5.531   4.935 -0.7165  0.1405 -1.0313
 6214TIP3    H240058   0.378   5.433   4.845  0.2250 -0.2696  0.1622
 6215TIP3   OH240059   3.709   0.592   0.029 -0.0459 -0.0886  0.9559
 6215TIP3    H140060   3.793   0.550   0.048  0.5535  0.5260 -0.2819
 6215TIP3    H240061   3.644   0.524   0.047  0.9517 -1.8577 -1.7312
 6216TIP3   OH240062   2.648   3.848  15.241 -0.4761  0.0844 -0.0020
 6216TIP3    H140063   2.609   3.849  15.154  1.0077 -1.1059 -0.7031
 6216TIP3    H240064   2.573   3.838  15.300 -1.2617 -2.5017 -1.3328
 6217TIP3   OH240065   2.264   4.129  14.814 -0.1717  0.0109  0.0332
 6217TIP3    H140066   2.298   4.105  14.900 -1.2739 -3.9688 -0.5507
 6217TIP3    H240067   2.330   4.098  14.752 -0.5483  0.6105 -0.6801
 6218TIP3   OH240068   3.788   5.397  16.073 -0.0450  0.0079 -0.3265
 6218TIP3    H140069   3.819   5.391  16.164  1.6542  0.6458 -0.8568
 6218TIP3    H240070   3.738   5.478  16.070 -1.0430 -0.5693  0.3070
 6219TIP3   OH240071   2.998   5.528  11.175  0.0964  0.3552 -0.4885
 6219TIP3    H140072   3.048   5.499  11.099  0.1005  0.5879 -0.5746
 6219TIP3    H240073   2.907   5.508  11.153  0.2789 -1.2497  0.2042
 6220TIP3   OH240074   1.098   1.620  11.752  0.0832 -0.2777  0.3220
 6220TIP3    H140075   1.017   1.621  11.803  0.7809 -2.1479  1.5318
 6220TIP3    H240076   1.103   1.530  11.719  0.4420  0.4977 -1.7678
 6221TIP3   OH240077   1.677   3.424   3.392 -0.0859 -0.1403  0.2496
 6221TIP3    H140078   1.713   3.476   3.464 -0.0478 -1.0356  0.8987
 6221TIP3    H240079   1.595   3.467   3.370 -1.1969 -1.1014  2.3391
 6222TIP3   OH240080   2.308   0.489  13.212  0.4111  0.1485 -0.5125
 6222TIP3    H140081   2.223   0.532  13.205  1.4399  2.1518 -1.2051
 6222TIP3    H240082   2.288   0.399  13.237 -1.8707  0.7614 -0.0205
 6223TIP3   OH240083   1.717   4.911  15.156  0.2596 -0.1351  0.0569
 6223TIP3    H140084   1.746   4.890  15.246  1.1360 -0.7829 -0.3647
 6223TIP3    H240085   1.661   4.837  15.132 -1.0551  0.6814  0.5397
 6224TIP3   OH240086   1.604   0.311  12.253  0.2484 -0.0554 -0.2967
 6224TIP3    H140087   1.615   0.372  12.326 -0.1882 -0.9025  0.4869
 6224TIP3    H240088   1.513   0.321  12.227  0.6469  0.9164 -1.3375
 6225TIP3   OH240089   4.248   4.014  15.873  0.0245  0.1623  0.9144
 6225TIP3    H140090   4.221   4.089  15.821 -1.3634 -2.1276 -1.7914
 6225TIP3    H240091   4.343   4.025  15.884 -0.0994  2.0452  0.1830
 6226TIP3   OH240092   4.801   1.584  14.844 -0.4401 -0.4626  0.3287
 6226TIP3    H140093   4.849   1.659  14.880 -1.0554  0.1893 -0.2008
 6226TIP3    H240094   4.870   1.520  14.823  0.3322  0.9267 -1.5238
 6227TIP3   OH240095   2.741   5.341  14.014 -0.2502  0.2370 -0.3907
 6227TIP3    H140096   2.824   5.384  14.034  0.3315 -1.4125  0.9249
 6227TIP3    H240097   2.701   5.325  14.100 -1.8755  0.9141 -1.0093
 6228TIP3   OH240098   3.344   3.860   1.312  0.4348 -0.3148 -0.1602
 6228TIP3    H140099   3.391   3.912   1.246 -0.2317  0.6583  0.1265
 6228TIP3    H240100   3.404   3.859   1.387 -1.0193  3.1159  1.1544
 6229TIP3   OH240101   5.088   5.994  12.481 -0.3598 -0.1747  0.3935
 6229TIP3    H140102   5.118   5.969  12.394  0.2604 -0.9213  0.8192
 6229TIP3    H240103   5.010   5.941  12.496 -0.8162  0.3950  0.0503
 6230TIP3   OH240104   1.590   3.954   1.575  0.0731  0.1131 -0.5174
 6230TIP3    H140105   1.516   3.961   1.515 -1.4475  1.5957  1.4249
 6230TIP3    H240106   1.550   3.930   1.659  1.7711  1.0339  0.5864
 6231TIP3   OH240107   2.115   2.609   5.055  0.2191 -0.3660 -0.1191
 6231TIP3    H140108   2.045   2.617   5.120  0.0114  2.6329 -0.5955
 6231TIP3    H240109   2.102   2.523   5.015 -3.6489  0.3744 -0.6389
 6232TIP3   OH240110   2.557   3.528   0.008 -0.0490  0.3242 -0.6530
 6232TIP3    H140111   2.571   3.573  -0.075 -0.0417 -0.3472 -1.0200
 6232TIP3    H240112   2.464   3.504   0.006  0.3304 -1.1492 -1.2050
 6233TIP3   OH240113   6.309   4.479   2.371 -0.2218  0.0755  0.2703
 6233TIP3    H140114   6.306   4.518   2.459  0.7377  0.2203  0.2387
 6233TIP3    H240115   6.338   4.551   2.315  0.4261 -0.3729  0.0319
 6234TIP3   OH240116   3.437   5.178  17.038 -0.0379  0.2834  0.0065
 6234TIP3    H140117   3.441   5.273  17.035  0.2774  0.2710  0.0839
 6234TIP3    H240118   3.398   5.153  16.954 -1.3927  0.5480  0.5347
 6235TIP3   OH240119   0.424   3.815  14.085  0.2773 -0.3801  1.1160
 6235TIP3    H140120   0.493   3.826  14.020  0.5840 -0.0412  1.4971
 6235TIP3    H240121   0.470   3.793  14.165 -0.0788 -0.4633  1.2996
 6236TIP3   OH240122   5.805   1.564  17.157 -0.0523 -0.0230  0.0807
 6236TIP3    H140123   5.867   1.611  17.101  0.2050 -0.6110 -0.1291
 6236TIP3    H240124   5.759   1.633  17.205 -0.1422  0.4730 -0.7190
 6237TIP3   OH240125   1.947   3.115   2.597  0.0198 -0.0492  0.8793
 6237TIP3    H140126   1.858   3.129   2.630  0.4059 -0.2872  2.0467
 6237TIP3    H240127   1.985   3.202   2.592 -0.1762  0.0248  0.6992
 6238TIP3   OH240128   4.361   1.654  10.637  0.6989  0.1708  0.3492
 6238TIP3    H140129   4.399   1.742  10.637  1.7366 -0.2646  0.1928
 6238TIP3    H240130   4.268   1.667  10.620  0.8341  1.2459  0.4388
 6239TIP3   OH240131   1.184   6.770  16.580 -0.1671 -0.3574  0.0305
 6239TIP3    H140132   1.119   6.807  16.640 -0.0358 -0.6773  0.3746
 6239TIP3    H240133   1.229   6.704  16.632  0.2559 -0.3215 -0.2897
 6240TIP3   OH240134   1.024   6.637  16.401 -0.3601  0.4682 -0.1731
 6240TIP3    H140135   1.081   6.680  16.464  0.3350 -0.3442 -0.2460
 6240TIP3    H240136   0.949   6.608  16.453  0.3002 -0.3679  0.3189
 6241TIP3   OH240137   5.926   5.654  15.466  0.6910  0.4747  0.1575
 6241TIP3    H140138   5.884   5.568  15.471  0.8823  0.3254 -0.7497
 6241TIP3    H240139   5.860   5.715  15.498 -0.0827  0.1927 -0.8755
 6242TIP3   OH240140   4.751   3.895   1.940  0.6241 -0.1113 -0.2578
 6242TIP3    H140141   4.682   3.954   1.911  0.4739 -0.7414 -1.2060
 6242TIP3    H240142   4.780   3.850   1.861  2.0212  0.0266  0.1468
 6243TIP3   OH240143   4.360   3.688  16.036  0.0871  0.3216 -0.2977
 6243TIP3    H140144   4.456   3.695  16.034  0.1662 -0.6972 -0.3600
 6243TIP3    H240145   4.331   3.771  16.073  1.1180 -0.3036  1.9932
 6244TIP3   OH240146   3.258   0.778  12.183  0.2061 -0.6303 -0.7984
 6244TIP3    H140147   3.265   0.718  12.258 -0.9079 -1.5521 -1.4156
 6244TIP3    H240148   3.164   0.792  12.172  0.4593  1.5463 -0.4463
 6245TIP3   OH240149   0.379   2.203   1.079  0.0667 -0.0513 -0.5747
 6245TIP3    H140150   0.338   2.282   1.113  2.2471  0.0329  1.9869
 6245TIP3    H240151   0.359   2.136   1.145  2.2011 -0.5044 -0.3730
 6246TIP3   OH240152   3.196   2.122   3.233  0.0697  0.7492  0.4926
 6246TIP3    H140153   3.171   2.206   3.273  0.4718  1.1548 -0.0974
 6246TIP3    H240154   3.281   2.102   3.271  0.2863  0.9548  0.1235
 6247TIP3   OH240155   1.368   1.489   3.626  0.2362  0.2838 -0.3326
 6247TIP3    H140156   1.311   1.521   3.555 -2.0346 -2.0288  0.3584
 6247TIP3    H240157   1.330   1.526   3.706  0.2615 -0.4918  0.0428
 6248TIP3   OH240158   2.361   2.348   3.370 -0.1525 -0.4931  0.5927
 6248TIP3    H140159   2.314   2.408   3.427 -2.5751 -1.6218 -0.1741
 6248TIP3    H240160   2.322   2.360   3.284  0.0137 -2.4222  0.2195
 6249TIP3   OH240161   3.608   3.185  16.272  0.3567  0.3001 -0.3298
 6249TIP3    H140162   3.563   3.214  16.351 -1.6278  0.1463 -1.3863
 6249TIP3    H240163   3.694   3.156  16.303  0.0228  1.3215  1.6012
 6250TIP3   OH240164   3.350   1.829  12.644  0.1146  0.1398  0.3863
 6250TIP3    H140165   3.367   1.737  12.628 -1.8323 -0.1494 -0.1746
 6250TIP3    H240166   3.337   1.836  12.738 -1.4372 -0.4908  0.2396
 6251TIP3   OH240167   0.593   2.518  13.592  0.2388  0.1462 -0.5483
 6251TIP3    H140168   0.661   2.585  13.595  1.5187 -1.1665  0.3922
 6251TIP3    H240169   0.518   2.561  13.550  0.6548  2.4736  1.0433
 6252TIP3   OH240170   2.217   3.335  13.465 -0.6341  0.5680  0.1370
 6252TIP3    H140171   2.192   3.322  13.374  0.9290 -1.7926 -0.0087
 6252TIP3    H240172   2.311   3.356  13.461 -0.2180 -0.9893  1.2576
 6253TIP3   OH240173   1.632   0.042   0.096  0.1083  0.6661  0.5679
 6253TIP3    H140174   1.622  -0.053   0.102 -1.1644  0.8066  0.7246
 6253TIP3    H240175   1.709   0.061   0.150 -0.0514 -0.1939  1.1057
 6254TIP3   OH240176   3.062   4.718   1.133  0.1907 -0.1584 -0.6855
 6254TIP3    H140177   3.071   4.635   1.085 -0.7878 -0.6317 -0.0714
 6254TIP3    H240178   3.075   4.693   1.225  0.3531  0.4505 -0.5454
 6255TIP3   OH240179   1.821   6.393  13.338 -0.1106 -0.4944 -0.3477
 6255TIP3    H140180   1.857   6.312  13.373 -0.5447 -0.3080  0.5324
 6255TIP3    H240181   1.735   6.369  13.305  0.4331 -0.7432 -1.6272
 6256TIP3   OH240182   5.184   0.955   1.409 -0.2974 -0.2334 -0.5239
 6256TIP3    H140183   5.277   0.952   1.387 -0.3795  0.5376 -0.9724
 6256TIP3    H240184   5.170   0.876   1.462  0.7412 -0.0154  0.0868
 6257TIP3   OH240185   4.410   3.619  10.695 -0.5752 -0.4400 -0.5573
 6257TIP3    H140186   4.377   3.609  10.606  0.5187  0.5104 -1.0807
 6257TIP3    H240187   4.419   3.529  10.727  1.8430 -0.9372 -2.4864
 6258TIP3   OH240188   5.378   4.991   4.164 -0.0210 -0.3202  0.0843
 6258TIP3    H140189   5.473   4.983   4.171  0.0557  0.7085  0.2872
 6258TIP3    H240190   5.344   4.913   4.207  0.7182 -0.3727  0.5751
 6259TIP3   OH240191   0.821   3.016   5.072  0.0789 -0.0244 -0.9405
 6259TIP3    H140192   0.843   3.107   5.048 -0.4616 -0.1348 -1.8706
 6259TIP3    H240193   0.787   2.978   4.991 -0.4892 -0.8134 -0.3301
 6260TIP3   OH240194   1.658   4.484   2.791  0.1799  0.2267  0.6078
 6260TIP3    H140195   1.749   4.471   2.763  0.3499  2.6391 -0.0883
 6260TIP3    H240196   1.608   4.487   2.710 -0.4009 -0.1245  0.9474
 6261TIP3   OH240197   5.699   4.830  12.609  0.1118  0.3272  0.7435
 6261TIP3    H140198   5.642   4.777  12.554 -0.0681  0.3340  0.9232
 6261TIP3    H240199   5.783   4.785  12.607  0.5558  1.1950 -0.8367
 6262TIP3   OH240200   1.390   1.803  16.845  0.5578 -0.0844 -0.3773
 6262TIP3    H140201   1.387   1.731  16.909  3.0713  0.4914  0.4694
 6262TIP3    H240202   1.300   1.835  16.840 -0.2409 -2.0801  0.6409
 6263TIP3   OH240203   2.302   2.565  12.236  0.1981 -0.2023  0.5300
 6263TIP3    H140204   2.335   2.501  12.298  2.7856  0.3512 -0.1900
 6263TIP3    H240205   2.379   2.617  12.213 -1.2462  1.2571 -1.1363
 6264TIP3   OH240206   3.631   2.950   5.610  0.2502 -0.0645  0.1400
 6264TIP3    H140207   3.609   2.931   5.519 -1.1005  0.2255  0.3971
 6264TIP3    H240208   3.555   2.998   5.644  0.9502  0.2682  1.2761
 6265TIP3   OH240209   1.907   5.764  10.965  0.1447  0.7484 -0.0061
 6265TIP3    H140210   1.912   5.682  10.916  0.8785  1.0555 -0.4606
 6265TIP3    H240211   1.941   5.743  11.052  2.3013  1.0284 -0.7420
 6266TIP3   OH240212   5.947   1.239  12.501 -0.1040  0.9470  0.0644
 6266TIP3    H140213   5.900   1.297  12.441 -1.7753  0.5820  1.0132
 6266TIP3    H240214   6.004   1.297  12.551  0.7003  1.3542 -1.2686
 6267TIP3   OH240215   3.102   6.439   1.093  0.1882 -0.1272 -0.2645
 6267TIP3    H140216   3.037   6.370   1.104  0.9104 -0.8081 -0.2649
 6267TIP3    H240217   3.182   6.393   1.068  0.4321  0.7914 -1.1878
 6268TIP3   OH240218   0.875   6.470  15.939  0.3799  0.0384 -0.4221
 6268TIP3    H140219   0.897   6.539  16.002 -1.3752  0.1317  0.1140
 6268TIP3    H240220   0.780   6.479  15.925  0.4674 -1.0226 -1.8380
 6269TIP3   OH240221   5.044   4.707  13.742 -0.0418  0.0341  0.2367
 6269TIP3    H140222   5.055   4.640  13.674 -0.2905  0.7483 -0.5106
 6269TIP3    H240223   5.053   4.659  13.824  1.8556 -0.5725 -0.2905
 6270TIP3   OH240224   2.133   2.932   2.738  0.1368  0.0424  0.0431
 6270TIP3    H140225   2.070   3.003   2.727  0.2433  0.1810  0.3281
 6270TIP3    H240226   2.086   2.866   2.789  0.4601  0.4620  0.9037
 6271TIP3   OH240227   1.631   6.701   4.556  0.4086 -0.0846  0.7568
 6271TIP3    H140228   1.638   6.632   4.621  0.1231  0.3853  1.2875
 6271TIP3    H240229   1.538   6.722   4.553  0.6997  1.4185  1.8039
 6272TIP3   OH240230   1.825   2.746  14.524  0.4800  0.3582 -0.1288
 6272TIP3    H140231   1.838   2.727  14.617 -1.2472  1.4332  0.3582
 6272TIP3    H240232   1.860   2.835  14.513  0.1503  0.4563 -0.3813
 6273TIP3   OH240233   4.484   5.809   2.353  0.3620 -0.0101 -0.0876
 6273TIP3    H140234   4.533   5.891   2.357  0.0437  0.1468  0.5205
 6273TIP3    H240235   4.410   5.828   2.295  1.5932 -0.5540 -1.9167
 6274TIP3   OH240236   6.477   4.117   3.859 -0.4821  0.2366  0.0526
 6274TIP3    H140237   6.500   4.142   3.769 -1.2143 -1.2343 -0.5610
 6274TIP3    H240238   6.519   4.032   3.871 -1.2903 -0.0744  0.7260
 6275TIP3   OH240239   5.994   3.401   2.065 -0.7519  0.1468  0.0126
 6275TIP3    H140240   5.901   3.377   2.061 -1.2478  1.5754  2.0024
 6275TIP3    H240241   5.996   3.478   2.122  1.5827  0.5774 -0.6113
 6276TIP3   OH240242   0.974   5.310  13.661  0.3395 -0.1465 -0.5632
 6276TIP3    H140243   1.037   5.294  13.590  1.8646  1.1594  0.4587
 6276TIP3    H240244   0.911   5.371  13.625  0.2014 -0.7297 -1.3063
 6277TIP3   OH240245   5.451   3.437   2.040  0.3284  0.7637  0.2335
 6277TIP3    H140246   5.407   3.509   1.995  0.3984 -0.1395 -1.3049
 6277TIP3    H240247   5.512   3.480   2.099 -1.9662  2.0140  1.7717
 6278TIP3   OH240248   3.975   3.675  16.116 -0.6091  0.3542  0.1294
 6278TIP3    H140249   4.041   3.624  16.070  0.2819  0.7930  0.9110
 6278TIP3    H240250   3.894   3.626  16.103  0.2258 -1.2805  0.8594
 6279TIP3   OH240251   0.132   4.692   1.906 -0.3042 -0.4416 -0.0059
 6279TIP3    H140252   0.152   4.758   1.972 -0.4111 -0.7432  0.3271
 6279TIP3    H240253   0.148   4.608   1.949 -0.0306 -0.6324 -0.4742
 6280TIP3   OH240254   4.829   1.937   0.079  0.2551  0.3142 -0.0853
 6280TIP3    H140255   4.874   1.909   0.159 -1.0389 -1.8552 -0.0726
 6280TIP3    H240256   4.857   1.874   0.012 -1.9393 -0.4675 -0.3081
 6281TIP3   OH240257   0.285   4.209   4.038 -0.3373 -0.5612 -0.3701
 6281TIP3    H140258   0.265   4.124   4.078  0.8127  0.2335  1.9503
 6281TIP3    H240259   0.377   4.203   4.013  0.1467  0.4831  1.0988
 6282TIP3   OH240260   5.683   3.311   1.489  0.1708  0.0684  0.1380
 6282TIP3    H140261   5.749   3.281   1.426  0.7014  2.3339 -0.4673
 6282TIP3    H240262   5.652   3.394   1.452  0.3759  1.3633  2.7638
 6283TIP3   OH240263   4.814   0.312   3.680 -0.2180 -0.2399 -0.0917
 6283TIP3    H140264   4.810   0.226   3.722 -0.4107 -0.1553  0.0650
 6283TIP3    H240265   4.771   0.371   3.742  2.1415  0.4329  0.9878
 6284TIP3   OH240266   4.911   2.456  15.654  0.2448 -0.0150 -0.4316
 6284TIP3    H140267   4.867   2.517  15.713  1.3534  0.5055 -0.1182
 6284TIP3    H240268   4.846   2.389  15.635 -0.5651  0.5654  0.2801
 6285TIP3   OH240269   5.682   6.481  13.227  0.2850  0.0281 -0.1850
 6285TIP3    H140270   5.757   6.542  13.226  0.5375 -0.2864 -0.9606
 6285TIP3    H240271   5.644   6.489  13.140 -0.9059  0.5634  0.3712
 6286TIP3   OH240272   5.458   3.070   2.344 -0.3536  0.5815 -0.6522
 6286TIP3    H140273   5.493   2.993   2.390  0.9343  1.1335 -0.6983
 6286TIP3    H240274   5.365   3.068   2.363 -0.4708 -1.4001 -1.2109
 6287TIP3   OH240275   6.032   0.900  12.898  0.7220  0.1274  0.6919
 6287TIP3    H140276   6.037   0.809  12.926 -1.0624 -0.2683 -0.2008
 6287TIP3    H240277   6.063   0.950  12.973  1.0938 -1.1843  1.4246
 6288TIP3   OH240278   1.584   0.843   3.566 -0.2625  0.1591 -0.2410
 6288TIP3    H140279   1.546   0.837   3.479 -1.9524 -1.0432  0.5579
 6288TIP3    H240280   1.517   0.808   3.624  1.0738  0.3955  1.4875
 6289TIP3   OH240281   1.303   4.728   0.987  0.5097 -0.5194  0.0070
 6289TIP3    H140282   1.285   4.822   0.988  2.7980  0.0009 -2.0271
 6289TIP3    H240283   1.309   4.705   0.894 -4.0402 -3.5762  0.2762
 6290TIP3   OH240284   2.595   2.994   4.591  0.0596  0.0181 -0.2569
 6290TIP3    H140285   2.594   3.038   4.506 -0.3280  0.2138 -0.1522
 6290TIP3    H240286   2.636   2.909   4.573 -2.3457 -0.9782 -1.1456
 6291TIP3   OH240287   3.420   0.890  16.954 -0.3689  0.2907 -0.6838
 6291TIP3    H140288   3.434   0.824  17.021  0.5128  2.7410  1.6450
 6291TIP3    H240289   3.426   0.842  16.871  1.3930 -2.3103  0.8753
 6292TIP3   OH240290   0.138   1.338  12.446  0.0048  0.1777  0.9088
 6292TIP3    H140291   0.081   1.393  12.392 -0.6138  1.0794  2.4551
 6292TIP3    H240292   0.081   1.303  12.513  0.7702 -0.9676  0.9794
 6293TIP3   OH240293   4.146   0.339  14.144  0.2397  0.1532  0.0560
 6293TIP3    H140294   4.201   0.329  14.066  0.0795 -1.0322  0.0916
 6293TIP3    H240295   4.093   0.416  14.126  0.3612  0.0178 -0.9139
 6294TIP3   OH240296   5.361   4.076  10.718 -0.0922  0.0962  0.1942
 6294TIP3    H140297   5.395   4.165  10.710  1.1289 -0.2312  1.4905
 6294TIP3    H240298   5.308   4.063  10.640  0.3745  1.6781 -0.3982
 6295TIP3   OH240299   1.735   2.311   0.572  0.1528  0.1323  0.9320
 6295TIP3    H140300   1.728   2.242   0.637  0.4934  0.7267  1.6023
 6295TIP3    H240301   1.686   2.278   0.496  0.5428 -0.9565  1.1479
 6296TIP3   OH240302   3.522   5.113  14.576 -0.3772  0.3644  0.0693
 6296TIP3    H140303   3.575   5.146  14.504  0.1890  1.0530  0.8091
 6296TIP3    H240304   3.432   5.137  14.552 -0.0835  1.5101  0.0976
 6297TIP3   OH240305   1.928   0.055   0.843  0.3348 -0.3032  0.2787
 6297TIP3    H140306   1.996  -0.011   0.856  1.0231  0.5415  1.1318
 6297TIP3    H240307   1.871   0.046   0.919  0.4789  0.1210  0.4441
 6298TIP3   OH240308   3.206   3.509  14.941  0.0515 -0.0419  0.4925
 6298TIP3    H140309   3.234   3.594  14.977  0.2712 -0.7313  2.0030
 6298TIP3    H240310   3.125   3.490  14.988  0.1295 -0.7747  0.3238
 6299TIP3   OH240311   2.779   2.411   1.378  0.3754  0.4286 -0.3226
 6299TIP3    H140312   2.701   2.360   1.403  0.3837  1.4758  1.9574
 6299TIP3    H240313   2.746   2.475   1.315 -0.0437 -0.9770 -1.5625
 6300TIP3   OH240314   2.432   6.253  15.293 -0.1066 -0.0839 -0.1492
 6300TIP3    H140315   2.354   6.262  15.240  0.8011  1.3685 -1.2605
 6300TIP3    H240316   2.451   6.159  15.292 -2.1148 -0.5151  0.5713
 6301TIP3   OH240317   2.208   1.129   2.920 -0.3432  0.7326 -0.3605
 6301TIP3    H140318   2.212   1.038   2.951 -0.8819  1.2461  1.2334
 6301TIP3    H240319   2.194   1.121   2.825  1.7333 -0.8490 -0.5753
 6302TIP3   OH240320   2.801   4.482   4.026  0.4188  0.2078  0.1866
 6302TIP3    H140321   2.730   4.523   4.075  0.1497 -0.5911  0.4772
 6302TIP3    H240322   2.770   4.481   3.935  0.1168 -0.0114  0.2909
 6303TIP3   OH240323   6.470   5.420   2.747  0.2446  0.2584  0.1044
 6303TIP3    H140324   6.402   5.485   2.735 -0.2800 -0.0486  1.3140
 6303TIP3    H240325   6.436   5.362   2.815  0.3516 -1.7487 -1.4841
 6304TIP3   OH240326   1.431   2.308   4.265 -0.2166  0.0488 -0.1466
 6304TIP3    H140327   1.385   2.255   4.330  0.9209 -2.6947 -1.5035
 6304TIP3    H240328   1.481   2.371   4.316 -0.2508 -1.3093  1.5940
 6305TIP3   OH240329   4.528   0.573  11.920  0.0658  0.1072 -0.1867
 6305TIP3    H140330   4.489   0.549  12.004  0.4300  1.5494  0.3932
 6305TIP3    H240331   4.580   0.496  11.895 -0.4074 -0.4942  0.6746
 6306TIP3   OH240332   4.003   4.166   0.632 -0.5829  0.1720  0.2022
 6306TIP3    H140333   4.093   4.160   0.600 -1.0964 -1.2788 -1.0491
 6306TIP3    H240334   4.011   4.188   0.725  0.9733  3.2092 -0.5931
 6307TIP3   OH240335   1.114   4.987  12.541  0.2719 -0.0583  0.7123
 6307TIP3    H140336   1.089   4.894  12.544 -0.0666  0.0533  1.4484
 6307TIP3    H240337   1.041   5.030  12.497  0.8123 -0.2606 -0.3992
 6308TIP3   OH240338   5.868   4.260   3.732 -0.3390  0.1649  0.6154
 6308TIP3    H140339   5.780   4.268   3.695  0.2508 -2.3747 -1.4855
 6308TIP3    H240340   5.905   4.184   3.689  2.9205  1.1832  1.4873
 6309TIP3   OH240341   5.052   6.531   3.783 -0.0534  0.0597  0.8171
 6309TIP3    H140342   5.097   6.615   3.773 -1.0237  0.7165  1.9111
 6309TIP3    H240343   5.114   6.476   3.831  0.8482 -0.0850 -0.4771
 6310TIP3   OH240344   6.014   1.573   2.247  0.2345  0.0285 -0.2353
 6310TIP3    H140345   6.082   1.586   2.182  0.6765 -0.0644  0.2044
 6310TIP3    H240346   6.048   1.504   2.305 -0.7585 -0.9021 -0.7333
 6311TIP3   OH240347   6.488   0.729  15.910 -0.4855  0.5236  0.1391
 6311TIP3    H140348   6.499   0.638  15.939 -2.0451  0.3835  0.3480
 6311TIP3    H240349   6.569   0.749  15.864  0.0546 -0.8377  0.4486
 6312TIP3   OH240350   1.935   6.301   1.162 -0.3041  0.4350  0.0182
 6312TIP3    H140351   1.857   6.254   1.192  0.0117  0.8367  1.5077
 6312TIP3    H240352   1.973   6.243   1.096 -1.1175 -0.4053  0.2689
 6313TIP3   OH240353   1.602   5.466  16.120  0.5086 -0.0327 -0.1307
 6313TIP3    H140354   1.568   5.476  16.209  2.8684 -1.9477  1.0441
 6313TIP3    H240355   1.533   5.419  16.073 -0.3427  0.0995  0.9582
 6314TIP3   OH240356   2.037   0.427  13.413  0.0970 -0.0189  0.7593
 6314TIP3    H140357   2.034   0.507  13.359 -0.6357  0.4640  1.4934
 6314TIP3    H240358   1.949   0.390  13.405 -0.0053  0.0333  1.5754
 6315TIP3   OH240359   3.248   1.869  12.910  0.0783 -0.2110 -0.4174
 6315TIP3    H140360   3.218   1.861  13.000  1.5958  0.2533  0.1482
 6315TIP3    H240361   3.170   1.894  12.861 -0.4957  0.8546  0.9945
 6316TIP3   OH240362   5.805   5.826   1.072 -0.4077 -0.1835 -0.1838
 6316TIP3    H140363   5.830   5.809   1.163 -2.0024 -1.2437  0.0763
 6316TIP3    H240364   5.772   5.916   1.072  0.9334  0.3168 -0.0126
 6317TIP3   OH240365   1.713   3.958   2.525  0.3741  0.0444  0.0745
 6317TIP3    H140366   1.714   3.896   2.452  2.9051 -0.5003  0.5224
 6317TIP3    H240367   1.699   3.903   2.603 -0.1118  0.3608  0.2099
 6318TIP3   OH240368   5.662   3.479   6.138  0.3925  0.4153 -0.3053
 6318TIP3    H140369   5.667   3.457   6.231  0.3153  0.9345 -0.1785
 6318TIP3    H240370   5.699   3.402   6.094  0.8142  0.3354  0.1734
 6319TIP3   OH240371   0.430   0.928   2.873 -0.3158  0.4382 -0.2695
 6319TIP3    H140372   0.499   0.870   2.841 -2.3818 -1.2987 -1.7326
 6319TIP3    H240373   0.444   1.010   2.825 -1.0620 -0.8907 -2.8096
 6320TIP3   OH240374   4.581   1.757   3.294  0.7285  0.0594  0.3011
 6320TIP3    H140375   4.645   1.701   3.339  2.2986 -0.3415 -2.3096
 6320TIP3    H240376   4.512   1.696   3.267  0.0373  0.2166  1.6733
 6321TIP3   OH240377   4.849   0.592  13.680 -0.4160  0.3134 -0.3552
 6321TIP3    H140378   4.926   0.593  13.624 -0.3873 -0.4896 -0.3335
 6321TIP3    H240379   4.807   0.677  13.664 -1.1755 -0.4616 -2.6719
 6322TIP3   OH240380   0.572   1.126  14.228 -0.5095 -0.4784  0.2635
 6322TIP3    H140381   0.583   1.037  14.261  0.6067 -0.6267 -0.4639
 6322TIP3    H240382   0.482   1.150  14.251 -0.6534 -1.6022  0.9014
 6323TIP3   OH240383   1.192   4.983   1.646  0.4247  0.1546  0.4825
 6323TIP3    H140384   1.156   5.045   1.583  0.7722  0.3375  0.4591
 6323TIP3    H240385   1.244   4.922   1.593  0.0608 -0.1698  0.5029
 6324TIP3   OH240386   0.861   3.666  13.404 -0.4494 -0.2313 -0.6920
 6324TIP3    H140387   0.885   3.615  13.326 -0.0727  0.8009 -1.2537
 6324TIP3    H240388   0.937   3.721  13.422  0.0606 -1.5322  1.3192
 6325TIP3   OH240389   5.971   0.980   3.785  0.0901  0.0777  0.6395
 6325TIP3    H140390   5.878   0.995   3.768  0.3329 -0.5355 -1.3458
 6325TIP3    H240391   5.985   1.014   3.874 -1.5693  2.1409  0.1557
 6326TIP3   OH240392   0.432   5.767   2.615 -0.2504 -0.0993 -0.2856
 6326TIP3    H140393   0.444   5.685   2.663 -2.9002 -0.4720 -0.1893
 6326TIP3    H240394   0.507   5.770   2.555  0.1203 -2.3796  0.0015
 6327TIP3   OH240395   3.103   5.840  12.847  0.3149 -0.4000  0.0934
 6327TIP3    H140396   3.070   5.823  12.935 -1.2551 -2.0603 -0.7820
 6327TIP3    H240397   3.088   5.759  12.799  1.9000  0.2136 -1.4913
 6328TIP3   OH240398   5.293   6.566   3.567 -0.2696  0.1955 -0.0080
 6328TIP3    H140399   5.243   6.488   3.544  0.4642 -0.0492 -0.8204
 6328TIP3    H240400   5.251   6.637   3.517  0.1336  0.0062 -0.6219
 6329TIP3   OH240401   4.104   4.477   1.089  0.3502 -0.2330 -0.1189
 6329TIP3    H140402   4.052   4.519   1.157  0.6208 -3.2397  2.0521
 6329TIP3    H240403   4.194   4.481   1.121  1.1773  2.5321 -2.5884
 6330TIP3   OH240404   2.430   2.076  15.910 -0.5803 -0.3831  0.0056
 6330TIP3    H140405   2.354   2.081  15.968 -0.5844 -2.6352  0.2610
 6330TIP3    H240406   2.394   2.081  15.822 -0.7437  1.2541  0.1466
 6331TIP3   OH240407   2.560   3.570  15.418  0.0220 -0.2425 -0.3082
 6331TIP3    H140408   2.619   3.515  15.470 -1.7069 -1.4536  0.4441
 6331TIP3    H240409   2.618   3.627  15.368  1.8205 -1.3350  0.4690
 6332TIP3   OH240410   0.843   3.604  15.950 -0.0656  0.1016 -0.3760
 6332TIP3    H140411   0.925   3.568  15.983  1.0977  2.1390 -0.9641
 6332TIP3    H240412   0.807   3.655  16.023 -0.5182 -0.3007 -0.3117
 6333TIP3   OH240413   0.071   3.255   5.266 -0.0390 -0.7903 -0.3622
 6333TIP3    H140414   0.007   3.221   5.202  0.0508 -0.5433 -0.5827
 6333TIP3    H240415   0.027   3.330   5.306  0.4666 -0.0404 -1.1805
 6334TIP3   OH240416   6.231   5.315  15.564  0.1543 -0.0995 -0.2464
 6334TIP3    H140417   6.246   5.323  15.658 -0.6418  1.0793 -0.2047
 6334TIP3    H240418   6.303   5.261  15.532  0.1025 -1.0059  1.1314
 6335TIP3   OH240419   5.678   3.702   0.337 -0.0411  0.4883  0.2826
 6335TIP3    H140420   5.700   3.794   0.354 -0.2841  0.3948  1.1074
 6335TIP3    H240421   5.690   3.658   0.421  1.2754 -0.4789 -0.3888
 6336TIP3   OH240422   0.250   2.691   3.740  0.5488 -0.3856  0.3444
 6336TIP3    H140423   0.317   2.739   3.691  0.4231  0.7378  1.2489
 6336TIP3    H240424   0.217   2.626   3.678  3.0704 -1.5495  0.1648
 6337TIP3   OH240425   2.747   2.278  16.497  0.2808 -0.3063  0.2858
 6337TIP3    H140426   2.674   2.224  16.529 -0.1024  0.0999  0.0926
 6337TIP3    H240427   2.735   2.281  16.402  1.1316 -1.0840  0.1360
 6338TIP3   OH240428   0.105   4.323  16.265  0.2196 -0.0247 -0.0058
 6338TIP3    H140429   0.027   4.275  16.237  0.8591 -0.2549 -1.4086
 6338TIP3    H240430   0.082   4.357  16.352  0.1067 -3.6065  1.4241
 6339TIP3   OH240431   2.186   5.290   5.936 -0.0623 -0.2869 -0.0611
 6339TIP3    H140432   2.246   5.306   6.008  0.3130 -1.9151  0.0116
 6339TIP3    H240433   2.139   5.210   5.960 -1.0058 -0.0104 -0.9218
 6340TIP3   OH240434   3.604   0.748  12.669 -0.4872 -0.0064 -0.3504
 6340TIP3    H140435   3.630   0.669  12.622 -2.3335 -1.7147  1.4624
 6340TIP3    H240436   3.524   0.724  12.715 -0.7574  2.7499  0.7026
 6341TIP3   OH240437   0.983   0.029   3.923  0.2289  0.2247 -0.3241
 6341TIP3    H140438   0.904  -0.017   3.951  0.6785 -0.5993 -0.3942
 6341TIP3    H240439   0.998   0.095   3.990  1.0998 -1.4989  1.1959
 6342TIP3   OH240440   1.021   2.350  14.897 -0.1066  0.3483  0.2257
 6342TIP3    H140441   0.928   2.350  14.874 -0.0748  2.8296 -0.0338
 6342TIP3    H240442   1.041   2.442  14.916  2.5394  0.0286 -0.8089
 6343TIP3   OH240443   4.313   3.709   2.428  0.4760  0.3853  0.0446
 6343TIP3    H140444   4.394   3.682   2.384 -0.2309 -0.3198 -0.8360
 6343TIP3    H240445   4.334   3.706   2.521  1.6618  0.8369 -0.2001
 6344TIP3   OH240446   2.901   1.549  11.138 -0.2840 -0.0021 -0.0345
 6344TIP3    H140447   2.900   1.633  11.092 -0.7587  0.4172  0.7354
 6344TIP3    H240448   2.947   1.489  11.078  0.4348  0.9056 -0.3933
 6345TIP3   OH240449   3.805   4.001  12.704 -0.5290 -0.4722  0.4947
 6345TIP3    H140450   3.753   3.948  12.643 -0.4027  0.3668 -0.3542
 6345TIP3    H240451   3.751   4.077  12.722  0.3940  0.4107 -0.3997
 6346TIP3   OH240452   2.794   6.659   1.932  0.4167  0.2828  0.3656
 6346TIP3    H140453   2.758   6.571   1.920  0.3182  0.2810  0.6807
 6346TIP3    H240454   2.744   6.713   1.870  1.4248 -0.1268 -0.8353
 6347TIP3   OH240455   0.738   4.394  11.066 -0.0517  0.1661 -0.1560
 6347TIP3    H140456   0.802   4.457  11.032  1.3729 -0.5615  1.0747
 6347TIP3    H240457   0.718   4.337  10.992 -0.2479  1.1835 -0.8895
 6348TIP3   OH240458   2.931   1.606  14.542  0.1479  0.0372  0.5278
 6348TIP3    H140459   2.900   1.525  14.501  0.0233  0.7236 -0.7707
 6348TIP3    H240460   2.964   1.659  14.469 -0.1016  1.3045  1.3085
 6349TIP3   OH240461   1.498   2.431   1.993 -0.4744  0.6390 -0.2471
 6349TIP3    H140462   1.566   2.479   1.944  0.1878 -0.6710 -0.6509
 6349TIP3    H240463   1.425   2.423   1.931  1.4377 -3.5784 -2.2148
 6350TIP3   OH240464   4.771   1.711  12.304 -0.5190 -0.5731  0.5691
 6350TIP3    H140465   4.765   1.803  12.279  2.8233 -0.3097  0.5740
 6350TIP3    H240466   4.726   1.706  12.388 -2.5129  0.6238 -0.3839
 6351TIP3   OH240467   4.762   2.909   0.375 -0.0211 -0.5878  0.1019
 6351TIP3    H140468   4.730   2.831   0.419  1.2803 -0.4823  1.2429
 6351TIP3    H240469   4.690   2.972   0.383 -1.2950 -1.8186 -1.3047
 6352TIP3   OH240470   2.174   2.323  11.998  0.1372  0.3809 -0.3214
 6352TIP3    H140471   2.115   2.397  11.984  0.0247  0.1343 -1.1512
 6352TIP3    H240472   2.260   2.363  12.007  0.1755  0.5694 -1.4386
 6353TIP3   OH240473   4.930   3.969  10.585 -0.3180 -0.0700 -0.3546
 6353TIP3    H140474   5.003   3.932  10.636 -1.7632 -3.3942 -0.5359
 6353TIP3    H240475   4.893   4.036  10.642  0.5140 -1.0123  1.3596
 6354TIP3   OH240476   4.042   1.019  11.243 -0.1728  0.3609 -0.2487
 6354TIP3    H140477   4.041   1.053  11.332  0.7751 -0.5546  0.1167
 6354TIP3    H240478   3.999   0.933  11.249 -0.7207  0.5895 -0.7986
 6355TIP3   OH240479   2.153   2.417   4.317 -0.0766 -0.3029 -0.3790
 6355TIP3    H140480   2.226   2.370   4.358  0.8754  1.2559 -0.2568
 6355TIP3    H240481   2.089   2.426   4.388  0.1877 -0.4683 -0.1145
 6356TIP3   OH240482   3.500   1.575   1.944 -0.2849 -0.0106 -0.4240
 6356TIP3    H140483   3.582   1.568   1.994  0.1845 -1.1592 -1.3331
 6356TIP3    H240484   3.463   1.487   1.947 -1.3706  0.4515 -0.2232
 6357TIP3   OH240485   1.510   5.446  16.390  0.5940  0.5120 -0.1420
 6357TIP3    H140486   1.504   5.480  16.479 -1.6271 -1.9666  0.7169
 6357TIP3    H240487   1.422   5.460  16.354  1.0431  0.1044 -1.4133
 6358TIP3   OH240488   1.509   0.842   0.661 -0.0162 -0.3157  0.7825
 6358TIP3    H140489   1.586   0.873   0.612 -0.3216  4.7941  3.1717
 6358TIP3    H240490   1.435   0.872   0.609 -0.3976 -1.4678  0.6515
 6359TIP3   OH240491   4.784   3.898  17.010  0.2162  0.0295 -0.1662
 6359TIP3    H140492   4.833   3.865  16.935 -0.6822  0.5270 -0.9900
 6359TIP3    H240493   4.755   3.985  16.983 -0.1650  0.1808  0.7283
 6360TIP3   OH240494   1.989   6.752  17.224 -0.1352 -0.5987 -0.8195
 6360TIP3    H140495   1.933   6.690  17.177 -1.8173  0.9791 -0.9450
 6360TIP3    H240496   1.936   6.782  17.298  1.2315 -0.4644  0.1281
 6361TIP3   OH240497   4.640   4.864  16.219  0.0016 -0.1062  0.2900
 6361TIP3    H140498   4.568   4.926  16.233  0.3809  0.4850 -0.3674
 6361TIP3    H240499   4.601   4.794  16.166 -0.1125  0.1786 -0.0055
 6362TIP3   OH240500   2.857   2.097  14.860 -0.2287 -0.1096  0.5461
 6362TIP3    H140501   2.790   2.038  14.826 -1.5630  1.7322 -0.1165
 6362TIP3    H240502   2.861   2.078  14.954  0.3234 -2.1378  0.1432
 6363TIP3   OH240503   3.530   2.075   1.684  0.1459 -0.1307  0.0276
 6363TIP3    H140504   3.526   2.005   1.749  0.4043 -2.0046 -1.9048
 6363TIP3    H240505   3.623   2.082   1.663  0.0898  0.6363  0.0358
 6364TIP3   OH240506   4.041   3.341  14.638 -0.1458  0.2812 -0.0523
 6364TIP3    H140507   4.050   3.380  14.551 -0.6266 -1.0557 -0.7198
 6364TIP3    H240508   3.986   3.264  14.624  0.1321 -0.1887  1.3612
 6365TIP3   OH240509   4.034   5.603  11.666  0.9217 -0.3477 -0.3587
 6365TIP3    H140510   4.031   5.687  11.621  1.5719 -0.1774 -0.0975
 6365TIP3    H240511   3.960   5.554  11.632 -0.4905  0.9772  0.7605
 6366TIP3   OH240512   2.008   3.896  17.010 -0.0380 -0.2460 -0.1875
 6366TIP3    H140513   2.058   3.912  16.930 -0.1446  0.7414 -0.0714
 6366TIP3    H240514   2.059   3.938  17.079 -0.6555  0.1390  0.0374
 6367TIP3   OH240515   5.642   3.975   0.730  0.6606 -0.6717 -0.3146
 6367TIP3    H140516   5.707   4.041   0.705  0.6763 -0.8792 -0.8309
 6367TIP3    H240517   5.565   3.995   0.678  0.6452 -1.0279 -0.4308
 6368TIP3   OH240518   0.650   5.921  11.025  0.4769 -0.1722 -0.3826
 6368TIP3    H140519   0.605   5.844  10.991 -0.0433  0.7337 -1.7727
 6368TIP3    H240520   0.709   5.948  10.955  0.7402  0.6459  0.1452
 6369TIP3   OH240521   4.765   1.647   1.009 -0.4270  0.1337 -0.4644
 6369TIP3    H140522   4.702   1.645   0.937 -1.4148  2.3631  0.2786
 6369TIP3    H240523   4.833   1.708   0.979 -1.3181  1.8126  0.8088
 6370TIP3   OH240524   5.685   6.125  14.232  0.1222  0.0488  0.0847
 6370TIP3    H140525   5.663   6.138  14.325 -0.3324 -0.0152 -0.0162
 6370TIP3    H240526   5.650   6.038  14.211  0.5779 -0.1078 -0.0414
 6371TIP3   OH240527   1.384   3.443   5.142 -0.4558 -0.0977 -0.1460
 6371TIP3    H140528   1.347   3.356   5.155  0.1665 -0.3835 -0.2549
 6371TIP3    H240529   1.342   3.476   5.062  0.3433 -0.8739 -0.9066
 6372TIP3   OH240530   0.244   3.933   3.317 -0.6854  0.1298 -0.2499
 6372TIP3    H140531   0.199   4.017   3.320 -3.3021 -1.2191  0.1900
 6372TIP3    H240532   0.195   3.882   3.251 -0.1074 -1.5307  0.5760
 6373TIP3   OH240533   0.825   3.372  14.112  0.2392 -0.8052 -0.1860
 6373TIP3    H140534   0.895   3.313  14.141  0.0325 -1.1960 -0.4727
 6373TIP3    H240535   0.854   3.403  14.027  1.2326  0.9839  0.7804
 6374TIP3   OH240536   4.323   3.293  14.639  0.6092  0.7649  0.5857
 6374TIP3    H140537   4.230   3.268  14.630  1.1024 -1.2904  0.9457
 6374TIP3    H240538   4.327   3.340  14.722  0.1754 -0.5720  1.3771
 6375TIP3   OH240539   4.872   3.852   5.696  0.4102  1.0445  0.5837
 6375TIP3    H140540   4.918   3.922   5.649 -0.3730  2.3487  1.7171
 6375TIP3    H240541   4.844   3.792   5.627  2.5766  0.9573 -0.2451
 6376TIP3   OH240542   4.527   5.338  15.619 -0.3189 -0.0203  0.4726
 6376TIP3    H140543   4.504   5.360  15.529  2.4533 -1.6843 -0.7065
 6376TIP3    H240544   4.526   5.242  15.622  0.6854 -0.0079  1.8883
 6377TIP3   OH240545   3.528   1.374   3.340 -0.3932  0.3718 -0.5305
 6377TIP3    H140546   3.451   1.322   3.315 -0.0592 -0.2904 -0.1936
 6377TIP3    H240547   3.586   1.368   3.264 -0.2265  0.0045 -0.3738
 6378TIP3   OH240548   2.634   5.814  11.852  0.2908  0.4402 -0.3387
 6378TIP3    H140549   2.643   5.786  11.943  0.4734 -1.5627 -0.9542
 6378TIP3    H240550   2.625   5.732  11.802 -0.9035  1.5488 -1.9950
 6379TIP3   OH240551   2.973   3.337  15.372  0.3045  0.1551 -0.4952
 6379TIP3    H140552   2.999   3.332  15.464 -0.3587  1.3037 -0.2413
 6379TIP3    H240553   3.055   3.329  15.323  0.7567  0.4000  0.2208
 6380TIP3   OH240554   6.167   5.067   1.357  0.0337 -0.1241 -0.3254
 6380TIP3    H140555   6.188   5.063   1.450  0.4173 -1.0727 -0.4493
 6380TIP3    H240556   6.190   5.157   1.331 -1.4263  0.5966  0.8025
 6381TIP3   OH240557   5.947   4.495  12.332 -0.1552  0.2526  1.0134
 6381TIP3    H140558   5.912   4.436  12.400 -1.0225  0.0442  0.3865
 6381TIP3    H240559   6.034   4.460  12.314 -0.5438 -0.6556  0.8709
 6382TIP3   OH240560   4.211   5.983   4.537  0.3325 -0.5600  0.0662
 6382TIP3    H140561   4.245   5.942   4.458  1.8749  0.4773  0.1679
 6382TIP3    H240562   4.175   6.067   4.507 -0.0199 -0.6160  0.3213
 6383TIP3   OH240563   5.098   4.784  12.968  0.4604 -0.0760 -0.2690
 6383TIP3    H140564   5.188   4.770  12.939  0.7219 -1.0981  0.9859
 6383TIP3    H240565   5.107   4.808  13.060 -0.6447 -1.7304  0.2835
 6384TIP3   OH240566   1.884   1.114   6.266  0.1512  0.1633 -0.1460
 6384TIP3    H140567   1.976   1.091   6.248  0.9701  3.1975 -0.0241
 6384TIP3    H240568   1.871   1.197   6.221 -1.5824  1.4157  2.5540
 6385TIP3   OH240569   2.197   4.516  13.411  0.2703 -0.0386  0.2946
 6385TIP3    H140570   2.138   4.468  13.353  0.8075 -0.7206  0.3097
 6385TIP3    H240571   2.160   4.504  13.498 -1.8238  2.8626 -0.1137
 6386TIP3   OH240572   6.302   2.814   0.549  0.4478 -0.8418  0.4998
 6386TIP3    H140573   6.275   2.862   0.628 -0.7264 -0.5263 -0.0757
 6386TIP3    H240574   6.244   2.738   0.547  1.5937 -1.7369  0.8294
 6387TIP3   OH240575   5.743   4.173   2.378  0.6908  0.0437 -0.2176
 6387TIP3    H140576   5.666   4.195   2.430  0.0894  1.8714 -1.8161
 6387TIP3    H240577   5.817   4.197   2.434  0.0714  0.7442  0.3087
 6388TIP3   OH240578   0.228   1.242  15.536  0.0685 -0.2608  0.2042
 6388TIP3    H140579   0.220   1.322  15.484  2.7973 -0.5786 -0.8207
 6388TIP3    H240580   0.214   1.171  15.473  0.5063 -0.6139  0.4985
 6389TIP3   OH240581   5.084   2.245  16.775  0.4368 -0.0859  0.2819
 6389TIP3    H140582   5.051   2.227  16.863  0.0797  0.6408  0.3000
 6389TIP3    H240583   5.083   2.160  16.731 -1.4560 -0.0687  0.2883
 6390TIP3   OH240584   1.803   3.451   2.385  0.3420  0.2290  0.2396
 6390TIP3    H140585   1.759   3.388   2.328  0.3398 -2.1370  2.7661
 6390TIP3    H240586   1.891   3.415   2.398 -0.5644 -0.8912  4.0108
 6391TIP3   OH240587   5.332   3.199  16.344  0.5108  0.5610  0.0670
 6391TIP3    H140588   5.328   3.283  16.391 -0.8628 -0.7543  2.4093
 6391TIP3    H240589   5.403   3.151  16.387  1.9412  0.8658 -1.9135
 6392TIP3   OH240590   6.261   1.786  15.960  0.2133 -0.4282 -0.0359
 6392TIP3    H140591   6.317   1.805  16.035  2.1180 -0.2540 -1.4533
 6392TIP3    H240592   6.208   1.712  15.988  0.8114 -0.2740  1.5403
 6393TIP3   OH240593   4.422   0.066   3.503  0.2136 -0.1467 -0.1338
 6393TIP3    H140594   4.431  -0.020   3.544  1.6358  0.5614  1.1174
 6393TIP3    H240595   4.509   0.085   3.469 -0.7177 -0.2936 -2.7117
 6394TIP3   OH240596   6.214   0.610  15.300 -0.1816  0.5658  0.5769
 6394TIP3    H140597   6.204   0.615  15.396 -1.4733  0.7054  0.4555
 6394TIP3    H240598   6.155   0.679  15.268  0.2884  0.5460 -0.3167
 6395TIP3   OH240599   2.696   5.891  12.288  0.2130 -0.1764  0.3567
 6395TIP3    H140600   2.720   5.942  12.211 -1.1567 -1.6846 -1.1262
 6395TIP3    H240601   2.645   5.818  12.253  1.1270 -1.9177  2.5279
 6396TIP3   OH240602   1.064   3.038  17.077  0.1365 -0.3349 -0.3769
 6396TIP3    H140603   1.129   3.066  17.012  0.8677  1.3456  1.0573
 6396TIP3    H240604   1.078   2.943  17.085  2.1637 -0.0622 -0.3659
 6397TIP3   OH240605   0.150   0.965  14.081 -0.1629 -0.1329 -0.2496
 6397TIP3    H140606   0.060   0.989  14.102  0.2410  0.5767  0.7221
 6397TIP3    H240607   0.143   0.878  14.042 -1.2871  0.0265 -0.4349
 6398TIP3   OH240608   6.451   0.524  16.613 -0.6549 -0.1178 -0.4623
 6398TIP3    H140609   6.458   0.491  16.702 -2.1355  0.9715  0.0808
 6398TIP3    H240610   6.541   0.536  16.584 -0.1863  0.6248  1.2900
 6399TIP3   OH240611   2.696   0.785   2.426  0.2614  0.6298 -0.1429
 6399TIP3    H140612   2.735   0.796   2.513  0.3789 -1.0854  0.0413
 6399TIP3    H240613   2.768   0.802   2.365  0.8337 -0.7290  0.1556
 6400TIP3   OH240614   0.575   3.293  15.428  0.5259 -0.9024 -0.3526
 6400TIP3    H140615   0.484   3.314  15.405  0.7392 -0.7909 -1.0974
 6400TIP3    H240616   0.570   3.208  15.472  0.0820 -0.9615 -0.5136
 6401TIP3   OH240617   2.495   2.632  11.391 -0.5123  1.0175  0.2338
 6401TIP3    H140618   2.515   2.570  11.462 -0.5810  1.4023  0.5894
 6401TIP3    H240619   2.580   2.671  11.369 -0.2831 -0.0195 -0.7625
 6402TIP3   OH240620   4.099   1.565   2.469  0.1697 -0.2599  0.2784
 6402TIP3    H140621   4.009   1.534   2.477  0.8438 -2.8652 -1.4774
 6402TIP3    H240622   4.135   1.513   2.397  2.6198  1.8256 -0.0423
 6403TIP3   OH240623   6.426   4.638  14.110 -0.3404  0.5610  0.1611
 6403TIP3    H140624   6.436   4.593  14.194  0.6546 -0.7681 -0.6434
 6403TIP3    H240625   6.332   4.655  14.103 -0.7048 -1.1286  0.6548
 6404TIP3   OH240626   6.665   5.086   3.943 -0.4038  0.1512  0.4072
 6404TIP3    H140627   6.727   5.107   3.873 -0.4019  0.7484  0.5846
 6404TIP3    H240628   6.719   5.066   4.019 -0.4172  2.1481  0.9904
 6405TIP3   OH240629   0.837   3.282  15.475 -0.2096 -0.1061  0.6014
 6405TIP3    H140630   0.863   3.351  15.414 -0.8975  0.7966  1.3234
 6405TIP3    H240631   0.742   3.277  15.466  0.1058 -3.1835 -1.8056
 6406TIP3   OH240632   5.042   5.566  17.007  0.7643 -0.3944 -0.1227
 6406TIP3    H140633   4.982   5.586  17.079 -1.3457 -1.1325 -1.6374
 6406TIP3    H240634   5.102   5.500  17.042  1.1781  0.8838  1.6260
 6407TIP3   OH240635   5.588   1.095   0.193  0.5021 -0.2332  0.2521
 6407TIP3    H140636   5.608   1.186   0.169 -0.0270  0.1414  1.1801
 6407TIP3    H240637   5.499   1.080   0.161 -0.2316  0.2919  1.9857
 6408TIP3   OH240638   3.453   6.259   4.212 -0.2948 -0.2690  0.4179
 6408TIP3    H140639   3.475   6.225   4.125  1.2033 -0.0136  0.6744
 6408TIP3    H240640   3.365   6.227   4.229  0.5226 -2.8552  0.0698
 6409TIP3   OH240641   0.925   5.423   4.961 -0.4418  0.3290 -0.3466
 6409TIP3    H140642   0.914   5.499   4.904  2.7190  0.9899 -0.2008
 6409TIP3    H240643   0.965   5.459   5.040 -0.5157 -1.2474  0.4242
 6410TIP3   OH240644   3.980   2.918  12.296 -0.6745 -0.9191 -0.6013
 6410TIP3    H140645   3.897   2.932  12.340 -1.2547 -1.6287 -1.4402
 6410TIP3    H240646   3.976   2.975  12.219  1.2663  2.0259  1.3861
 6411TIP3   OH240647   0.964   5.707  13.956  0.4116 -0.1115  0.0769
 6411TIP3    H140648   0.968   5.773  13.886  0.0522  0.0965  0.2467
 6411TIP3    H240649   1.029   5.642  13.931 -0.9581 -0.9671 -1.4199
 6412TIP3   OH240650   0.354   1.854  12.648  0.5744 -0.1897 -0.2733
 6412TIP3    H140651   0.260   1.863  12.634  0.7575  0.1276 -1.3491
 6412TIP3    H240652   0.394   1.900  12.574  1.5825  0.4450  0.6344
 6413TIP3   OH240653   0.813   1.785   0.483  0.0232 -0.6381  0.6916
 6413TIP3    H140654   0.902   1.821   0.483 -0.7798  1.3854  0.3915
 6413TIP3    H240655   0.792   1.772   0.391  0.5849 -2.6471  0.8203
 6414TIP3   OH240656   5.754   2.053  13.366 -0.1958  0.2222 -0.2304
 6414TIP3    H140657   5.718   1.965  13.373  0.7340 -0.0531  1.5313
 6414TIP3    H240658   5.730   2.083  13.278  0.0175 -2.0147 -1.0631
 6415TIP3   OH240659   1.123   4.773  12.144 -0.2347  0.0769  0.5138
 6415TIP3    H140660   1.175   4.853  12.149 -1.0129  0.6980 -1.1576
 6415TIP3    H240661   1.106   4.761  12.051 -4.2257  0.6339  1.0694
 6416TIP3   OH240662   1.617   3.787  13.724  0.6102  0.1986 -0.6107
 6416TIP3    H140663   1.611   3.772  13.818  2.1427  0.7556 -0.4119
 6416TIP3    H240664   1.678   3.861  13.715 -0.0733  0.6089 -2.0007
 6417TIP3   OH240665   2.874   3.092   3.247 -0.3477 -0.0115 -0.0057
 6417TIP3    H140666   2.936   3.161   3.270  0.0487 -0.8915  1.5793
 6417TIP3    H240667   2.852   3.110   3.155  0.5795  1.5739  0.0658
 6418TIP3   OH240668   0.572   4.328   5.678 -0.0317 -0.7846  0.3478
 6418TIP3    H140669   0.648   4.307   5.731  1.1292  3.8491  0.7509
 6418TIP3    H240670   0.522   4.391   5.730 -2.4996 -1.3683 -1.2118
 6419TIP3   OH240671   3.773   3.581  13.224 -0.1244  0.4305 -0.5787
 6419TIP3    H140672   3.767   3.629  13.306  1.6626 -1.0160  0.4336
 6419TIP3    H240673   3.857   3.608  13.186 -0.6751  0.6554 -1.6633
 6420TIP3   OH240674   0.985   6.029  13.481 -0.1541  0.1838 -0.2104
 6420TIP3    H140675   1.052   6.067  13.425 -0.9283  0.2742 -1.0753
 6420TIP3    H240676   0.904   6.071  13.454 -0.7990 -1.0293 -0.1940
 6421TIP3   OH240677   5.158   6.706  16.685 -0.0371 -0.1471 -0.2806
 6421TIP3    H140678   5.183   6.736  16.772 -1.1196 -1.5274  0.5306
 6421TIP3    H240679   5.220   6.636  16.665  1.1114  1.1192 -1.2442
 6422TIP3   OH240680   5.826   2.702  14.129 -0.6968  0.6707 -0.1846
 6422TIP3    H140681   5.734   2.726  14.116 -0.4962  1.4039 -0.2577
 6422TIP3    H240682   5.836   2.621  14.079 -1.6523 -0.1666  0.9666
 6423TIP3   OH240683   2.108   3.100  14.362 -0.3087  0.1493 -0.1149
 6423TIP3    H140684   2.032   3.060  14.405  0.2536 -2.1292 -1.1703
 6423TIP3    H240685   2.177   3.097  14.428 -0.4074 -0.1517 -0.0238
 6424TIP3   OH240686   1.489   0.809   5.794  0.0098  0.3799 -0.0950
 6424TIP3    H140687   1.480   0.819   5.889 -0.6346  1.1581 -0.2321
 6424TIP3    H240688   1.462   0.719   5.776  1.9391 -0.3948  0.6752
 6425TIP3   OH240689   2.624   3.709  10.826 -0.2641  0.0710  0.6166
 6425TIP3    H140690   2.707   3.747  10.854  0.5891 -0.3778 -1.2526
 6425TIP3    H240691   2.644   3.617  10.808 -0.8960  0.2340 -0.9543
 6426TIP3   OH240692   0.775   4.299   2.220  0.5936  0.3859  0.4025
 6426TIP3    H140693   0.729   4.244   2.156  0.4658 -0.8722  1.5531
 6426TIP3    H240694   0.740   4.387   2.206  2.0551  0.5226 -2.6451
 6427TIP3   OH240695   3.189   2.657  16.854 -0.3196  0.3489  0.0820
 6427TIP3    H140696   3.209   2.646  16.761  1.2241 -0.1825  0.4578
 6427TIP3    H240697   3.134   2.582  16.876  1.3462 -0.8683  0.1532
 6428TIP3   OH240698   3.693   5.166  15.926 -0.0971  0.2953 -0.4457
 6428TIP3    H140699   3.738   5.249  15.943 -2.3945  1.6149 -0.6554
 6428TIP3    H240700   3.740   5.102  15.979  0.7631  2.0069  0.8906
 6429TIP3   OH240701   3.280   2.500  14.904 -0.6046  0.4996  0.0648
 6429TIP3    H140702   3.227   2.574  14.932 -2.1440 -0.2005 -0.8997
 6429TIP3    H240703   3.299   2.518  14.811 -1.6185 -0.6476 -0.3822
 6430TIP3   OH240704   3.213   0.224  16.117  0.6812  0.4278  0.1031
 6430TIP3    H140705   3.192   0.314  16.092 -0.3243 -0.0308 -0.7200
 6430TIP3    H240706   3.129   0.178  16.118  1.1815 -0.5148  0.5119
 6431TIP3   OH240707   6.181   5.620   1.047 -0.6463 -0.0655  0.4598
 6431TIP3    H140708   6.233   5.696   1.071 -1.9551  1.0592 -0.2138
 6431TIP3    H240709   6.136   5.645   0.966  0.2343 -2.1763 -0.7456
 6432TIP3   OH240710   1.242   0.670  13.442 -0.2025 -0.4344  0.0730
 6432TIP3    H140711   1.300   0.733  13.399  0.5301 -0.9995  0.2161
 6432TIP3    H240712   1.290   0.644  13.521  0.4775 -2.7759 -1.0580
 6433TIP3   OH240713   5.542   2.760  12.716 -0.4099  0.4171  0.3385
 6433TIP3    H140714   5.524   2.705  12.792 -0.3274 -1.4467 -0.9418
 6433TIP3    H240715   5.636   2.777  12.720 -0.3962  0.2688  0.6366
 6434TIP3   OH240716   5.681   2.175  13.092 -0.8844 -0.0844 -0.0008
 6434TIP3    H140717   5.627   2.101  13.065  3.4020 -3.5008  0.2450
 6434TIP3    H240718   5.725   2.204  13.011 -1.9617  1.7654  0.0409
 6435TIP3   OH240719   2.934   0.247  16.898 -0.1946 -0.8368 -0.2066
 6435TIP3    H140720   2.983   0.238  16.980 -0.0336  0.6612 -0.1114
 6435TIP3    H240721   2.919   0.341  16.890  0.5590 -0.8772 -2.3566
 6436TIP3   OH240722   2.580   6.572  13.168 -0.3857 -0.3394 -0.1098
 6436TIP3    H140723   2.525   6.559  13.090 -0.4300  0.6512 -0.2419
 6436TIP3    H240724   2.666   6.540  13.142 -0.7385 -1.3059 -0.1116
 6437TIP3   OH240725   2.118   0.542  14.887 -0.2723  0.3427 -0.1585
 6437TIP3    H140726   2.179   0.528  14.960 -1.5775 -0.2483  0.8441
 6437TIP3    H240727   2.174   0.565  14.813  1.0263  1.7499  1.2300
 6438TIP3   OH240728   1.613   4.184   5.985  0.4687  0.0156 -0.5261
 6438TIP3    H140729   1.702   4.199   5.953 -0.1465  2.7871 -1.0379
 6438TIP3    H240730   1.619   4.194   6.080  0.2860  2.6013 -0.7611
 6439TIP3   OH240731   1.308   3.528   1.884  0.1234 -0.6975 -1.2626
 6439TIP3    H140732   1.247   3.564   1.820 -0.0028 -0.6879 -1.1351
 6439TIP3    H240733   1.258   3.464   1.933 -0.8351  1.8447  1.2720
 6440TIP3   OH240734   2.135   2.844   1.105 -0.2339  0.3356 -0.1265
 6440TIP3    H140735   2.157   2.930   1.069  0.2726 -0.9353 -2.9681
 6440TIP3    H240736   2.219   2.805   1.128 -0.1886 -0.6268 -1.8205
 6441TIP3   OH240737   6.311   4.119   0.052  0.3931  0.3411  0.2021
 6441TIP3    H140738   6.293   4.198   0.000 -0.8443  0.6387  1.0661
 6441TIP3    H240739   6.225   4.089   0.080  0.6673 -2.3955 -1.6406
 6442TIP3   OH240740   3.290   6.484   4.172  0.1112  0.0685  0.1367
 6442TIP3    H140741   3.308   6.498   4.079 -0.5124 -0.2964 -0.0451
 6442TIP3    H240742   3.350   6.414   4.199 -1.3999 -1.5602 -0.6074
 6443TIP3   OH240743   1.459   0.611   2.796 -0.5857  0.5802 -0.4579
 6443TIP3    H140744   1.411   0.694   2.788 -0.4984  0.5074 -1.9066
 6443TIP3    H240745   1.414   0.564   2.866 -0.3167  2.0666  0.7452
 6444TIP3   OH240746   4.871   4.300  11.877 -0.2672  0.0624 -0.1714
 6444TIP3    H140747   4.888   4.303  11.783  0.8587 -2.8469 -0.1167
 6444TIP3    H240748   4.775   4.291  11.883 -0.2753 -0.5406 -1.0711
 6445TIP3   OH240749   3.621   4.431   6.454 -0.5848 -0.2328 -0.5280
 6445TIP3    H140750   3.567   4.393   6.523 -2.8039 -0.3687 -2.2789
 6445TIP3    H240751   3.579   4.404   6.372  2.3821 -0.6891 -1.9870
 6446TIP3   OH240752   0.103   2.356   4.257 -0.6449 -0.0719 -0.0254
 6446TIP3    H140753   0.148   2.436   4.284 -1.6075  0.9936 -1.4734
 6446TIP3    H240754   0.142   2.287   4.310  1.6699  1.0316 -0.2149
 6447TIP3   OH240755   0.775   2.548   0.394 -0.1655  0.0191  0.2158
 6447TIP3    H140756   0.719   2.622   0.418 -0.1641 -0.2545  1.1093
 6447TIP3    H240757   0.840   2.584   0.335 -0.5252  0.6089  0.1771
 6448TIP3   OH240758   4.556   5.513   1.547  0.2451 -0.1188  0.3496
 6448TIP3    H140759   4.503   5.461   1.608 -1.0871  0.5293 -0.2541
 6448TIP3    H240760   4.494   5.570   1.503  1.3010 -0.1014 -1.1453
 6449TIP3   OH240761   0.867   4.548  15.757 -0.1081  0.8866 -0.1738
 6449TIP3    H140762   0.807   4.560  15.831 -0.5028 -0.5706 -0.2326
 6449TIP3    H240763   0.829   4.600  15.686 -2.5524 -1.7202 -0.8789
 6450TIP3   OH240764   1.467   0.548   2.262  0.2958 -0.0958  0.1552
 6450TIP3    H140765   1.517   0.608   2.317 -0.6786  0.1040  0.8396
 6450TIP3    H240766   1.477   0.582   2.173 -0.7268  1.4191  0.6025
 6451TIP3   OH240767   4.064   1.700  10.767 -0.0919 -0.6096  0.3362
 6451TIP3    H140768   3.971   1.681  10.774 -0.2575  0.3986  0.8691
 6451TIP3    H240769   4.074   1.743  10.682 -0.1388 -0.5071  0.3832
 6452TIP3   OH240770   5.477   2.758  11.219  0.1762 -0.6148 -0.3501
 6452TIP3    H140771   5.540   2.699  11.260 -0.1258 -0.5048  0.2677
 6452TIP3    H240772   5.407   2.701  11.189 -0.0780 -0.5791  0.1765
 6453TIP3   OH240773   3.359   5.323   2.276  0.3584 -0.4451  0.2095
 6453TIP3    H140774   3.430   5.381   2.252  0.3105 -0.0119  1.0894
 6453TIP3    H240775   3.324   5.292   2.193 -0.6463  2.0156 -0.3202
 6454TIP3   OH240776   3.667   4.220   6.687  0.6165 -0.0544 -0.9173
 6454TIP3    H140777   3.717   4.266   6.620  0.9311  0.3313 -0.4118
 6454TIP3    H240778   3.725   4.150   6.718  0.4874 -0.2055 -1.0129
 6455TIP3   OH240779   2.561   6.462   4.387 -0.4682 -0.1413  0.1180
 6455TIP3    H140780   2.504   6.434   4.316 -1.2806  0.9706  0.3171
 6455TIP3    H240781   2.634   6.506   4.343 -1.0197  0.6354 -0.0383
 6456TIP3   OH240782   0.278   5.369  17.025  0.2477  0.3684  0.7087
 6456TIP3    H140783   0.247   5.419  16.950  0.0099 -0.6140  0.1380
 6456TIP3    H240784   0.247   5.418  17.101 -0.1665  0.9693  0.1611
 6457TIP3   OH240785   1.527   0.381   0.864 -0.0388 -0.2005 -0.5726
 6457TIP3    H140786   1.584   0.315   0.825 -1.1916 -1.1848 -0.6091
 6457TIP3    H240787   1.527   0.453   0.800  0.4589 -0.5520 -0.9755
 6458TIP3   OH240788   1.150   5.337  17.124 -0.0202  0.1900  0.2116
 6458TIP3    H140789   1.124   5.319  17.214  0.6829  0.9683  0.5751
 6458TIP3    H240790   1.151   5.251  17.082  0.4341 -0.2784  1.1568
 6459TIP3   OH240791   5.294   6.187  11.801 -0.3799  0.5485 -0.3659
 6459TIP3    H140792   5.284   6.107  11.748 -1.0683  0.1600  0.3400
 6459TIP3    H240793   5.266   6.258  11.742 -1.1852  0.1115 -0.5223
 6460TIP3   OH240794   2.694   0.985  13.765 -0.1894  0.0879  0.4772
 6460TIP3    H140795   2.649   0.973  13.848 -1.8119 -0.1472 -0.4151
 6460TIP3    H240796   2.636   1.043  13.714  0.4503 -0.3142 -0.7307
 6461TIP3   OH240797   0.704   2.070   0.379 -0.1186  0.0179 -0.5355
 6461TIP3    H140798   0.676   2.021   0.302 -0.0697 -0.5155 -0.2115
 6461TIP3    H240799   0.788   2.031   0.403 -0.0039  0.3626 -0.3725
 6462TIP3   OH240800   2.834   3.436  17.231  0.3517 -0.5398 -0.2904
 6462TIP3    H140801   2.741   3.452  17.213  0.5843  0.5507 -0.5667
 6462TIP3    H240802   2.867   3.392  17.153  0.1768 -0.5027 -0.3855
 6463TIP3   OH240803   1.288   5.710  13.036 -0.3290 -0.4348 -0.2369
 6463TIP3    H140804   1.296   5.805  13.048 -1.7262 -0.4016  0.5461
 6463TIP3    H240805   1.195   5.696  13.018 -0.0306 -1.6093 -0.9242
 6464TIP3   OH240806   6.655   6.639   0.833  0.3214  0.2894  0.4334
 6464TIP3    H140807   6.637   6.636   0.927 -1.1776 -1.6005  0.1122
 6464TIP3    H240808   6.635   6.729   0.807 -2.7964 -0.1402  1.2475
 6465TIP3   OH240809   4.999   2.581  15.357 -0.7790 -0.0940  0.4077
 6465TIP3    H140810   5.040   2.501  15.392 -1.0703 -0.3579  0.1552
 6465TIP3    H240811   4.931   2.548  15.298 -0.5524  0.3474 -0.0970
 6466TIP3   OH240812   6.724   3.979   5.034 -0.2225 -0.2259  0.3216
 6466TIP3    H140813   6.796   3.988   5.097  0.1303 -1.7504  0.1558
 6466TIP3    H240814   6.756   3.915   4.971 -1.0540  0.3923 -0.7364
 6467TIP3   OH240815   1.018   0.179  11.844  0.5737  0.4369  0.1687
 6467TIP3    H140816   0.934   0.146  11.810  1.6898 -1.6989 -0.6512
 6467TIP3    H240817   1.016   0.158  11.937  0.9168 -1.2107 -0.1865
 6468TIP3   OH240818   0.341   0.214   0.484  0.2323 -0.3936  0.3391
 6468TIP3    H140819   0.426   0.235   0.523  0.7176  0.1948 -0.9979
 6468TIP3    H240820   0.344   0.255   0.397 -2.6002  2.2956  1.4092
 6469TIP3   OH240821   1.935   1.907  16.809 -0.1434 -0.3871  0.2198
 6469TIP3    H140822   1.886   1.929  16.888 -2.7389 -1.2216 -1.0804
 6469TIP3    H240823   1.972   1.820  16.828  1.1334  0.3844  1.3308
 6470TIP3   OH240824   6.327   2.230  17.239  0.3794  0.2063 -0.2128
 6470TIP3    H140825   6.368   2.286  17.173 -1.1761  1.4776 -0.1223
 6470TIP3    H240826   6.290   2.291  17.303 -1.4580 -0.9089 -0.1813
 6471TIP3   OH240827   5.397   3.519  14.984 -0.7870  0.0652  0.2564
 6471TIP3    H140828   5.416   3.445  14.926 -0.4648 -0.1821  0.6750
 6471TIP3    H240829   5.389   3.479  15.071 -1.1497  0.4502  0.4005
 6472TIP3   OH240830   0.203   5.772   1.261 -0.0128 -0.1526  0.0836
 6472TIP3    H140831   0.112   5.799   1.272  0.3764  0.9367  0.6503
 6472TIP3    H240832   0.254   5.834   1.313  1.1534 -0.0348 -1.1497
 6473TIP3   OH240833   0.718   1.330  11.032 -0.4418  0.1170 -0.2652
 6473TIP3    H140834   0.738   1.419  11.061  0.9873 -0.5081  0.7111
 6473TIP3    H240835   0.700   1.339  10.938 -1.4560  1.5935  0.0563
 6474TIP3   OH240836   4.154   4.493   2.914  0.2271  0.3718  0.8194
 6474TIP3    H140837   4.155   4.571   2.859  2.8990 -0.1400  0.0767
 6474TIP3    H240838   4.176   4.525   3.002 -0.1485  0.6467  0.8138
 6475TIP3   OH240839   2.784   3.030   1.311 -0.3853  0.1542  0.1168
 6475TIP3    H140840   2.743   3.115   1.295 -2.9134 -1.1473 -0.6923
 6475TIP3    H240841   2.784   3.021   1.406 -0.0508  1.0893  0.2093
 6476TIP3   OH240842   1.455   4.499  14.474 -0.0660  0.3393  0.0785
 6476TIP3    H140843   1.418   4.512  14.387  1.7269 -0.3570 -0.8145
 6476TIP3    H240844   1.550   4.495  14.460  0.2006 -0.7081  1.9339
 6477TIP3   OH240845   5.213   0.128  12.858 -0.6725  0.1781  0.1539
 6477TIP3    H140846   5.300   0.107  12.893 -0.7709 -0.9188 -0.2539
 6477TIP3    H240847   5.229   0.154  12.768 -0.7080  0.5749  0.2578
 6478TIP3   OH240848   3.159   6.399  12.870  0.2219 -0.1973  0.0501
 6478TIP3    H140849   3.121   6.311  12.873 -0.4938  0.1366  0.9080
 6478TIP3    H240850   3.124   6.437  12.790  0.0290 -0.4696  0.0023
 6479TIP3   OH240851   0.613   6.560  13.539 -0.0492  0.8538  0.1109
 6479TIP3    H140852   0.633   6.641  13.493 -2.6281  0.4607 -1.8770
 6479TIP3    H240853   0.584   6.588  13.626  0.7302  1.9260  0.0365
 6480TIP3   OH240854   0.995   4.794   4.989  0.6004 -0.3914 -0.1528
 6480TIP3    H140855   0.949   4.874   5.012 -1.1362 -0.5852 -2.7673
 6480TIP3    H240856   0.960   4.727   5.047  0.8934  0.4040  0.9398
 6481TIP3   OH240857   2.652   3.936  17.238  0.1474  0.1390  0.0029
 6481TIP3    H140858   2.580   3.927  17.300 -0.9417 -1.0438 -1.3989
 6481TIP3    H240859   2.692   3.849  17.236 -1.1240 -0.4246 -2.4794
 6482TIP3   OH240860   5.146   6.500  11.219 -0.4637 -0.3625  0.2519
 6482TIP3    H140861   5.215   6.444  11.255 -1.7671 -1.0063  1.8116
 6482TIP3    H240862   5.141   6.574  11.280  0.2837  0.7817 -1.0296
 6483TIP3   OH240863   5.242   2.745   1.452 -0.0075  0.8175  0.1731
 6483TIP3    H140864   5.243   2.840   1.464 -1.6152  0.9155 -0.3382
 6483TIP3    H240865   5.179   2.713   1.517  1.3599 -0.0249  1.1081
 6484TIP3   OH240866   1.913   4.135   1.175  0.3401 -0.0529 -0.5097
 6484TIP3    H140867   1.862   4.064   1.136  0.7332  0.3405 -1.7725
 6484TIP3    H240868   1.976   4.092   1.232 -0.3437 -0.6327 -0.1858
 6485TIP3   OH240869   4.769   2.252   2.501  0.0426 -0.7870 -0.4793
 6485TIP3    H140870   4.702   2.198   2.458  0.9737 -1.6165 -0.9160
 6485TIP3    H240871   4.841   2.254   2.438  0.6718 -0.4246  0.2587
 6486TIP3   OH240872   2.976   4.427  14.691 -0.0236 -0.2821 -0.6292
 6486TIP3    H140873   2.895   4.379  14.708  0.1749 -0.7327 -0.9369
 6486TIP3    H240874   3.041   4.359  14.675  0.4979  0.0706 -0.0369
 6487TIP3   OH240875   2.556   5.421   4.943 -0.2426 -0.0349 -0.0808
 6487TIP3    H140876   2.539   5.467   4.861 -1.1080 -0.5935 -0.2328
 6487TIP3    H240877   2.492   5.349   4.943  2.0144 -2.1021 -0.5404
 6488TIP3   OH240878   5.090   6.689   2.918 -0.4384  0.5151  0.3648
 6488TIP3    H140879   5.099   6.609   2.969  0.2472 -0.0752 -0.6753
 6488TIP3    H240880   5.175   6.699   2.874 -1.4072  0.3968 -1.5549
 6489TIP3   OH240881   3.250   1.880   5.622  0.0057  0.3609 -0.6140
 6489TIP3    H140882   3.267   1.893   5.528  0.8195  0.3967 -0.4616
 6489TIP3    H240883   3.252   1.968   5.659 -0.7622  0.3922 -0.6292
 6490TIP3   OH240884   0.130   3.992  11.522 -0.2521  0.0385 -0.2305
 6490TIP3    H140885   0.069   3.932  11.478 -0.4970 -0.2330  0.4721
 6490TIP3    H240886   0.137   4.066  11.462  0.0992 -0.7127 -1.1354
 6491TIP3   OH240887   4.926   2.623   1.170 -0.0056 -0.0966 -0.2783
 6491TIP3    H140888   4.964   2.669   1.245 -1.1081  1.5797 -0.7217
 6491TIP3    H240889   4.977   2.654   1.095  1.1931 -1.8816 -0.2203
 6492TIP3   OH240890   2.082   1.924  15.591 -0.0681  0.1197 -0.4697
 6492TIP3    H140891   2.085   1.890  15.501 -1.0667 -0.6867 -0.2008
 6492TIP3    H240892   2.004   1.884  15.629  2.5737 -2.7204  2.0862
 6493TIP3   OH240893   4.641   0.184  15.662  0.3651  0.5863  0.5053
 6493TIP3    H140894   4.676   0.273  15.662 -0.1414  0.8035  2.3837
 6493TIP3    H240895   4.666   0.149  15.577  0.1401  2.6934 -0.4764
 6494TIP3   OH240896   3.891   5.507   4.151 -0.6853 -0.3774 -0.5055
 6494TIP3    H140897   3.921   5.564   4.221  0.8985 -0.2834 -1.2398
 6494TIP3    H240898   3.806   5.543   4.125  0.0212  1.3070 -0.5540
 6495TIP3   OH240899   5.280   3.777  14.086  0.0078 -0.1501  0.3728
 6495TIP3    H140900   5.275   3.855  14.140 -1.5054  1.7622 -2.3838
 6495TIP3    H240901   5.206   3.723  14.114 -1.2768  1.2168 -0.3271
 6496TIP3   OH240902   2.460   1.815   4.699 -0.2802  0.3365 -0.2684
 6496TIP3    H140903   2.372   1.839   4.728  0.7243  1.7287  1.7908
 6496TIP3    H240904   2.508   1.797   4.780  1.5876  0.5649 -1.2909
 6497TIP3   OH240905   1.078   6.321   5.062 -0.2745  0.4314  0.2164
 6497TIP3    H140906   1.148   6.331   4.997 -0.5748  0.7189 -0.0688
 6497TIP3    H240907   1.023   6.399   5.051 -0.6170  0.2298  0.4607
 6498TIP3   OH240908   5.934   3.754   3.515  0.6643 -0.0353 -0.4509
 6498TIP3    H140909   5.876   3.829   3.530  0.5707 -0.1049 -0.4616
 6498TIP3    H240910   5.898   3.685   3.571  1.2029  0.1631  0.1406
 6499TIP3   OH240911   5.084   0.561   4.295  0.5080  0.2839  1.0168
 6499TIP3    H140912   5.001   0.517   4.313 -0.6381  2.0419  0.1635
 6499TIP3    H240913   5.151   0.498   4.323 -1.0565 -2.0763 -0.3080
 6500TIP3   OH240914   3.171   5.669  16.743  0.3311  0.2027  0.8725
 6500TIP3    H140915   3.179   5.711  16.657 -0.2848 -0.9681  0.2372
 6500TIP3    H240916   3.226   5.591  16.736 -0.1711 -0.1915  1.3612
 6501TIP3   OH240917   1.036   4.896   1.364 -0.4862  0.3740 -0.6169
 6501TIP3    H140918   1.037   4.886   1.459  1.1471  1.5915 -0.4660
 6501TIP3    H240919   1.045   4.807   1.330  0.1689  0.0368  0.4009
 6502TIP3   OH240920   4.563   1.642   2.442  0.6281  0.9001 -0.0778
 6502TIP3    H140921   4.518   1.726   2.431  0.2597  0.8295  0.8443
 6502TIP3    H240922   4.534   1.589   2.368 -2.6362  0.0635  1.7095
 6503TIP3   OH240923   5.543   3.063  14.590 -0.2457  0.1634  0.2208
 6503TIP3    H140924   5.606   3.132  14.611 -0.3681  0.1451  0.6594
 6503TIP3    H240925   5.585   3.013  14.519  0.1816  0.2196  0.4293
 6504TIP3   OH240926   5.304   5.660  16.742  0.4882 -0.2127 -0.4083
 6504TIP3    H140927   5.361   5.631  16.671 -1.2654 -0.2821 -1.8314
 6504TIP3    H240928   5.235   5.594  16.746 -1.0405  1.3351 -0.6151
 6505TIP3   OH240929   3.808   2.694   2.526 -0.0185  0.0600  0.1472
 6505TIP3    H140930   3.740   2.762   2.520 -0.7333 -0.6207  0.4676
 6505TIP3    H240931   3.869   2.727   2.592  0.3076  0.9721 -0.5974
 6506TIP3   OH240932   2.436   6.665  15.886 -0.4005 -0.1500  0.4260
 6506TIP3    H140933   2.510   6.657  15.825 -0.2146  0.9343  0.5031
 6506TIP3    H240934   2.464   6.618  15.964 -0.2777 -0.7734  0.0167
 6507TIP3   OH240935   4.854   0.974  11.623 -0.3332 -0.3725  0.3382
 6507TIP3    H140936   4.770   0.963  11.667 -0.3021  0.2344  0.5386
 6507TIP3    H240937   4.836   0.946  11.533 -0.2356 -2.2340  0.8647
 6508TIP3   OH240938   4.688   0.702   5.840  0.3933 -0.3358  0.5702
 6508TIP3    H140939   4.665   0.612   5.861  0.8016 -0.3024  1.1871
 6508TIP3    H240940   4.612   0.753   5.868  1.3134 -0.1841  2.9685
 6509TIP3   OH240941   2.820   3.412  15.908  1.0439 -0.4232 -1.3911
 6509TIP3    H140942   2.884   3.451  15.968  1.4947 -3.9366  0.5362
 6509TIP3    H240943   2.737   3.456  15.930  1.8598  0.7437 -0.5683
 6510TIP3   OH240944   6.376   6.034  13.736 -0.1007 -0.0129 -0.1119
 6510TIP3    H140945   6.433   6.090  13.788  0.1223 -1.6051  1.3853
 6510TIP3    H240946   6.332   5.978  13.800 -2.8097  0.6761 -1.2872
 6511TIP3   OH240947   4.465   6.173  13.921  0.0322 -0.1249  0.1196
 6511TIP3    H140948   4.444   6.182  14.014  0.1882 -1.2444  0.2645
 6511TIP3    H240949   4.406   6.105  13.889  0.2323 -0.0045 -0.5180
 6512TIP3   OH240950   5.137   1.635  14.489 -0.2570 -0.1062  0.3496
 6512TIP3    H140951   5.167   1.669  14.574  0.7073 -0.6457  0.2310
 6512TIP3    H240952   5.085   1.558  14.512  0.0917 -0.3135  0.4456
 6513TIP3   OH240953   3.267   4.917  13.304  0.0998 -0.4602 -0.0061
 6513TIP3    H140954   3.186   4.949  13.343 -0.7010 -2.3665 -0.0084
 6513TIP3    H240955   3.251   4.823  13.291  1.4275 -0.4088 -2.2147
 6514TIP3   OH240956   5.264   2.302  11.023  0.6012 -0.5430  0.2243
 6514TIP3    H140957   5.178   2.336  10.996 -0.1899 -1.5246  1.4133
 6514TIP3    H240958   5.313   2.380  11.049  0.1081  0.0394 -0.5366
 6515TIP3   OH240959   2.200   2.313   1.931 -0.4192 -0.2605  0.6648
 6515TIP3    H140960   2.265   2.355   1.987 -0.4361 -0.7120  1.0310
 6515TIP3    H240961   2.162   2.385   1.880  0.5326 -0.0231  0.2649
 6516TIP3   OH240962   5.101   3.826   0.764  0.2580 -0.7776 -0.0381
 6516TIP3    H140963   5.101   3.857   0.674 -0.7057  0.0891  0.2519
 6516TIP3    H240964   5.192   3.800   0.780  0.4126 -1.0301 -1.2790
 6517TIP3   OH240965   5.123   2.826  16.139 -0.2860 -0.1383  0.2108
 6517TIP3    H140966   5.150   2.918  16.138 -0.0681 -0.1997  0.5818
 6517TIP3    H240967   5.081   2.814  16.224  1.0493 -0.7775  0.7944
 6518TIP3   OH240968   3.019   5.023  10.901 -0.7875  0.7116  0.6432
 6518TIP3    H140969   3.006   4.931  10.923 -2.9076  0.4276 -1.5328
 6518TIP3    H240970   3.091   5.022  10.838 -0.7492  0.5358  0.6895
 6519TIP3   OH240971   3.440   6.120  14.729 -0.4621  0.2912  0.1128
 6519TIP3    H140972   3.392   6.082  14.655  1.2585  0.0782 -0.9033
 6519TIP3    H240973   3.461   6.209  14.700  0.0571  0.2679  0.4201
 6520TIP3   OH240974   1.622   6.611  15.054 -0.1945 -0.3775 -0.2223
 6520TIP3    H140975   1.668   6.666  15.118  3.8376 -2.4743 -1.0921
 6520TIP3    H240976   1.633   6.656  14.971 -2.4689  0.6386  0.0043
 6521TIP3   OH240977   6.030   5.140   4.033 -0.2129  0.1801  0.0235
 6521TIP3    H140978   6.075   5.191   4.100 -0.2427 -1.3042  1.1825
 6521TIP3    H240979   6.084   5.062   4.023 -1.6291 -0.8174  0.1996
 6522TIP3   OH240980   2.259   1.685   5.889  0.0009 -0.3723  0.6721
 6522TIP3    H140981   2.241   1.654   5.800 -0.8315  1.9420 -0.0308
 6522TIP3    H240982   2.175   1.719   5.919  0.0715 -1.9688  2.7206
 6523TIP3   OH240983   1.423   4.921   2.646  0.1070 -0.3598  0.0861
 6523TIP3    H140984   1.368   4.890   2.574  0.5597 -3.1923  0.9141
 6523TIP3    H240985   1.376   4.997   2.681 -0.7224  0.3181 -2.3940
 6524TIP3   OH240986   3.708   6.369   2.151 -0.0302 -0.0820 -0.2835
 6524TIP3    H140987   3.694   6.371   2.245 -1.1467 -0.8405 -0.4340
 6524TIP3    H240988   3.798   6.401   2.140  0.1558 -0.1221  1.0383
 6525TIP3   OH240989   5.783   4.555   1.012 -0.0971  0.0523  0.0938
 6525TIP3    H140990   5.792   4.460   1.004  0.2753  0.1013 -0.0690
 6525TIP3    H240991   5.694   4.574   0.980 -0.6119 -0.3791  1.2371
 6526TIP3   OH240992   0.604   2.905  16.420 -0.2418  0.0354 -0.2881
 6526TIP3    H140993   0.653   2.884  16.499  0.2239 -1.3170 -0.9258
 6526TIP3    H240994   0.535   2.839  16.416 -0.7545  0.5807 -0.5866
 6527TIP3   OH240995   2.128   4.521   4.402  0.2165  0.0017  0.3269
 6527TIP3    H140996   2.202   4.512   4.462 -0.9541  0.9644  1.9576
 6527TIP3    H240997   2.083   4.600   4.431 -2.2176 -1.2938  0.2064
 6528TIP3   OH240998   6.250   4.150   4.069 -0.0178 -0.4113 -0.0836
 6528TIP3    H140999   6.336   4.137   4.030  0.7490  0.7954  1.1864
 6528TIP3    H241000   6.213   4.062   4.074  2.0491 -1.2209  1.4433
 6529TIP3   OH241001   1.367   4.060  12.519 -0.1458 -0.1295 -0.0637
 6529TIP3    H141002   1.301   4.005  12.561  1.2407 -1.1507  0.7955
 6529TIP3    H241003   1.383   4.019  12.434 -0.8563  0.3234 -0.4235
 6530TIP3   OH241004   5.988   4.442  17.012 -0.1085  0.2567 -0.4330
 6530TIP3    H141005   5.968   4.398  17.095 -1.6817  1.6846 -0.0242
 6530TIP3    H241006   6.053   4.386  16.970  0.8588 -0.3988  1.8579
 6531TIP3   OH241007   6.282   5.162  16.160 -0.0406  0.0075 -0.4174
 6531TIP3    H141008   6.335   5.230  16.119  0.1905  0.1326  0.0898
 6531TIP3    H241009   6.196   5.203  16.172  0.4967  0.7032  1.2076
 6532TIP3   OH241010   1.467   3.763  15.931  0.6570 -0.3042  0.0063
 6532TIP3    H141011   1.436   3.796  15.847 -1.1124 -0.8250  0.4412
 6532TIP3    H241012   1.549   3.810  15.946  0.4508  0.5728 -1.5040
 6533TIP3   OH241013   5.742   3.811  12.769  0.3646  0.3344 -0.4459
 6533TIP3    H141014   5.680   3.742  12.788  0.6870  0.9892  3.4610
 6533TIP3    H241015   5.827   3.767  12.765  0.0835 -0.0805 -2.4929
 6534TIP3   OH241016   3.247   5.616   0.833  0.2967  0.1497 -0.3657
 6534TIP3    H141017   3.180   5.675   0.867 -0.6340 -0.5283 -0.9951
 6534TIP3    H241018   3.313   5.673   0.795 -0.1000  0.8133 -0.0596
 6535TIP3   OH241019   0.392   2.133  12.288  1.1672 -0.2447  0.0859
 6535TIP3    H141020   0.463   2.074  12.313  0.8079 -1.0005 -0.6253
 6535TIP3    H241021   0.320   2.111  12.348  0.3747 -1.9138 -1.4308
 6536TIP3   OH241022   1.797   2.185  10.620  0.4310 -0.0913  0.3970
 6536TIP3    H141023   1.885   2.174  10.585 -0.0890 -1.5135 -0.5477
 6536TIP3    H241024   1.798   2.270  10.664  1.7424  0.7300 -1.1701
 6537TIP3   OH241025   0.814   0.580   5.245  0.0900 -0.3542 -0.1836
 6537TIP3    H141026   0.793   0.642   5.315  1.4853  0.9985 -0.9270
 6537TIP3    H241027   0.880   0.522   5.283 -1.4616 -1.6505  0.6229
 6538TIP3   OH241028   5.224   4.026   3.903 -0.0563  0.5422 -0.2741
 6538TIP3    H141029   5.241   4.000   3.812  0.9383  0.6700 -0.1316
 6538TIP3    H241030   5.300   4.078   3.927  1.0393 -1.8008  1.5357
 6539TIP3   OH241031   2.675   2.573  12.873 -0.5675 -0.4846  0.3460
 6539TIP3    H141032   2.716   2.490  12.851  2.4596  0.8149  0.7933
 6539TIP3    H241033   2.686   2.581  12.968 -0.3652  0.6323  0.2374
 6540TIP3   OH241034   4.595   0.105   1.938 -0.2535 -0.5416  0.0774
 6540TIP3    H141035   4.572   0.148   1.856  1.4898 -1.1209 -0.7261
 6540TIP3    H241036   4.619   0.016   1.914 -0.6769 -1.0049  1.3339
 6541TIP3   OH241037   4.000   2.421   5.500 -0.1697 -0.1165 -1.0028
 6541TIP3    H141038   4.031   2.467   5.422 -2.0549  0.7398 -1.2681
 6541TIP3    H241039   4.079   2.405   5.551  1.3437 -2.1387 -3.8241
 6542TIP3   OH241040   6.184   5.837   3.978 -0.2950  0.6545 -0.3509
 6542TIP3    H141041   6.251   5.880   4.032 -0.6650  2.7437 -1.4992
 6542TIP3    H241042   6.110   5.824   4.037  0.2028  0.6448  0.2762
 6543TIP3   OH241043   3.415   2.099   2.087  0.0279  0.4304 -0.0934
 6543TIP3    H141044   3.462   2.019   2.109  1.0592  1.2423  0.7316
 6543TIP3    H241045   3.341   2.101   2.148 -0.7845 -0.5788 -1.0341
 6544TIP3   OH241046   2.088   0.779  15.902  0.5626 -0.2827  0.2375
 6544TIP3    H141047   2.109   0.699  15.854 -1.7200 -0.2462 -0.8987
 6544TIP3    H241048   2.058   0.748  15.988 -0.2310 -0.6808 -0.1675
 6545TIP3   OH241049   6.661   2.304  11.881 -0.5053 -0.1277  0.0173
 6545TIP3    H141050   6.641   2.322  11.973 -0.1322  2.6179 -0.3731
 6545TIP3    H241051   6.577   2.314  11.836 -0.8335 -2.2308  0.1506
 6546TIP3   OH241052   0.163   1.617  15.100 -0.2994 -0.4788  0.3358
 6546TIP3    H141053   0.103   1.691  15.097 -1.3221 -1.2497  1.0127
 6546TIP3    H241054   0.240   1.650  15.145  0.2415  0.8285 -1.5148
 6547TIP3   OH241055   2.824   3.227   6.236  0.0153  0.1150  0.0808
 6547TIP3    H141056   2.891   3.218   6.304 -1.2476 -1.5544  1.1284
 6547TIP3    H241057   2.781   3.310   6.256  0.4801  0.2454  0.5586
 6548TIP3   OH241058   2.712   5.136   5.459  0.1712 -0.2022 -0.0438
 6548TIP3    H141059   2.715   5.224   5.495 -0.4703  0.2700 -1.1107
 6548TIP3    H241060   2.769   5.139   5.382 -1.6747 -0.0689 -1.4341
 6549TIP3   OH241061   1.428   0.828  14.207  0.4423  0.2513  0.6248
 6549TIP3    H141062   1.485   0.838  14.130  1.5706 -1.2046  1.2336
 6549TIP3    H241063   1.404   0.735  14.206 -0.4438  0.4756  1.4081
 6550TIP3   OH241064   4.967   4.021   3.298 -0.4208  0.5795  0.0089
 6550TIP3    H141065   5.023   4.079   3.247  0.7856 -1.2168 -0.7783
 6550TIP3    H241066   4.878   4.040   3.269  0.1368  0.5669 -1.7792
 6551TIP3   OH241067   5.598   5.063  13.648  0.3082  0.0850 -0.4847
 6551TIP3    H141068   5.615   5.027  13.734  0.3336 -0.7673 -0.8434
 6551TIP3    H241069   5.539   5.137  13.664 -2.0412 -1.8067  0.0260
 6552TIP3   OH241070   2.237   0.603   4.745 -0.7840  0.1283 -0.5497
 6552TIP3    H141071   2.146   0.618   4.721 -0.6999  0.9870 -0.3446
 6552TIP3    H241072   2.271   0.690   4.767 -0.3576 -0.3811  0.8920
 6553TIP3   OH241073   3.246   2.623   2.559  0.0474 -0.3950 -0.0654
 6553TIP3    H141074   3.296   2.637   2.479 -0.0182  2.5147  0.3676
 6553TIP3    H241075   3.280   2.540   2.594  2.5225  0.0684 -1.2678
 6554TIP3   OH241076   3.020   1.337  16.479 -0.2021  0.2555  0.1446
 6554TIP3    H141077   2.987   1.273  16.416 -0.3652  2.0324 -1.6406
 6554TIP3    H241078   2.950   1.401  16.486  1.7244  2.6541 -1.6344
 6555TIP3   OH241079   3.370   4.850  12.115  0.1667  0.5862 -1.0568
 6555TIP3    H141080   3.360   4.772  12.061  0.1443  0.2166 -0.5217
 6555TIP3    H241081   3.425   4.821  12.189 -0.7693  0.7882 -0.2714
 6556TIP3   OH241082   6.534   1.769   6.207  0.0039 -0.5789  0.3742
 6556TIP3    H141083   6.551   1.791   6.298  0.7130  1.2288 -0.1864
 6556TIP3    H241084   6.446   1.731   6.208 -0.4160  0.4069  1.6518
 6557TIP3   OH241085   5.295   0.562  15.216  0.4057 -0.3176 -0.3778
 6557TIP3    H141086   5.273   0.596  15.129 -0.8207 -1.3138 -0.4774
 6557TIP3    H241087   5.359   0.493  15.199  0.4745 -0.2379 -0.4508
 6558TIP3   OH241088   5.324   0.975  13.156  0.0582 -0.4341  0.0839
 6558TIP3    H141089   5.325   1.070  13.158  1.9596 -0.4644  1.1756
 6558TIP3    H241090   5.349   0.952  13.067 -1.0702  0.0652 -0.3820
 6559TIP3   OH241091   1.299   5.747   0.995  0.0494 -0.3874  0.2870
 6559TIP3    H141092   1.260   5.667   1.030  1.5197 -0.3041  2.1948
 6559TIP3    H241093   1.379   5.759   1.046 -0.0208  2.1649 -0.1457
 6560TIP3   OH241094   3.822   0.804   3.256  0.1309 -0.2700  0.4497
 6560TIP3    H141095   3.888   0.797   3.324  1.3401 -0.4430 -0.7048
 6560TIP3    H241096   3.764   0.729   3.270 -0.0453  0.0933  1.6913
 6561TIP3   OH241097   1.160   3.152  12.594 -0.2394  0.1294  0.1350
 6561TIP3    H141098   1.230   3.206  12.630 -1.1545  0.6806  1.1219
 6561TIP3    H241099   1.130   3.099  12.669 -1.9412  1.0516  0.1399
 6562TIP3   OH241100   5.864   0.499   6.435  0.2849  0.1570  0.2768
 6562TIP3    H141101   5.931   0.567   6.432 -0.0134  0.4497  0.2448
 6562TIP3    H241102   5.854   0.478   6.528  1.1143 -0.5775  0.2093
 6563TIP3   OH241103   0.782   0.990  12.294 -0.1078 -0.4073  0.0742
 6563TIP3    H141104   0.713   0.932  12.261 -0.9448  0.1618  0.8002
 6563TIP3    H241105   0.807   1.043  12.219  0.9115 -1.9320 -0.6926
 6564TIP3   OH241106   6.057   6.749   2.148 -0.0513  0.3455 -0.2413
 6564TIP3    H141107   6.143   6.755   2.106 -0.2119  3.1937 -0.2074
 6564TIP3    H241108   6.026   6.839   2.154 -2.0433 -0.4295  1.8579
 6565TIP3   OH241109   1.696   6.514   5.625  0.6193  0.3147  0.1094
 6565TIP3    H141110   1.771   6.465   5.658  0.2770 -0.6007 -0.4544
 6565TIP3    H241111   1.621   6.480   5.673  0.4599  0.6853  0.1240
 6566TIP3   OH241112   6.358   4.023  14.595 -1.0660  0.1707  0.0353
 6566TIP3    H141113   6.379   3.952  14.535 -1.0384  2.4707 -2.7479
 6566TIP3    H241114   6.419   4.010  14.668  0.7027 -1.1671 -1.6101
 6567TIP3   OH241115   3.720   0.075  15.303  0.4171  0.5139 -0.0469
 6567TIP3    H141116   3.653   0.011  15.327  0.5350  0.3662 -0.1156
 6567TIP3    H241117   3.756   0.104  15.387 -0.4514  1.3602  0.0454
 6568TIP3   OH241118   0.594   2.270   4.049  0.5958 -0.8434 -0.3210
 6568TIP3    H141119   0.599   2.365   4.057 -0.9161 -0.6891 -1.0032
 6568TIP3    H241120   0.537   2.243   4.121  1.2698 -1.2699  0.0569
 6569TIP3   OH241121   1.440   1.241   5.411 -0.1510  0.1792  0.3300
 6569TIP3    H141122   1.350   1.254   5.382  0.2212 -0.1983 -1.0127
 6569TIP3    H241123   1.489   1.220   5.331  0.7204 -1.7475  1.3476
 6570TIP3   OH241124   4.942   2.491  12.288 -0.5125  0.4166  0.3932
 6570TIP3    H141125   4.853   2.519  12.307 -0.5446  0.0801  0.7336
 6570TIP3    H241126   4.997   2.555  12.333 -0.5791  0.7070  0.0647
 6571TIP3   OH241127   2.232   3.044  13.661  0.3504  0.1603  0.1422
 6571TIP3    H141128   2.193   3.103  13.597 -0.1317 -0.8328 -0.4957
 6571TIP3    H241129   2.253   3.100  13.736 -2.3089  0.7586  0.5068
 6572TIP3   OH241130   5.706   4.563   0.719 -0.2304 -0.4362 -0.6491
 6572TIP3    H141131   5.625   4.564   0.770  0.6698 -0.5148  0.8078
 6572TIP3    H241132   5.698   4.639   0.661 -0.5672  0.6452  0.7596
 6573TIP3   OH241133   5.511   2.606   6.094  0.1809 -0.5450 -0.5534
 6573TIP3    H141134   5.510   2.587   6.188  0.1638 -0.6493 -0.5746
 6573TIP3    H241135   5.600   2.583   6.066  0.8261  1.3574 -0.1788
 6574TIP3   OH241136   1.970   0.777  15.072  0.6600  0.3985 -0.1991
 6574TIP3    H141137   2.043   0.762  15.011 -0.6373  0.1656 -1.7278
 6574TIP3    H241138   1.911   0.703  15.057 -0.9185  1.7002 -0.5280
 6575TIP3   OH241139   0.678   1.813  16.293 -0.3474 -0.1259  0.1799
 6575TIP3    H141140   0.744   1.880  16.277  0.2958 -0.9377 -0.6897
 6575TIP3    H241141   0.608   1.858  16.341  0.8170  0.7528  1.0733
 6576TIP3   OH241142   4.359   1.512   2.606 -0.0761 -0.0226 -0.5408
 6576TIP3    H141143   4.281   1.565   2.617 -0.3997 -0.0708 -2.3362
 6576TIP3    H241144   4.426   1.575   2.578 -0.4397 -0.5063 -2.5917
 6577TIP3   OH241145   1.095   2.954   4.510  0.2124 -0.0612 -0.3239
 6577TIP3    H141146   1.004   2.929   4.498 -0.4619  1.8787  0.4957
 6577TIP3    H241147   1.120   2.917   4.594 -0.1710  0.3532 -0.0274
 6578TIP3   OH241148   1.588   2.478  15.565 -0.4777 -0.1097 -0.1997
 6578TIP3    H141149   1.651   2.435  15.623  1.2516  1.3487 -0.9456
 6578TIP3    H241150   1.525   2.518  15.625  1.1171  1.1114  0.7297
 6579TIP3   OH241151   0.087   6.690  13.254 -0.3650 -0.0502 -0.8978
 6579TIP3    H141152   0.135   6.751  13.310 -0.0389 -0.1573 -1.0577
 6579TIP3    H241153   0.147   6.673  13.181 -0.3798 -0.6950 -0.7656
 6580TIP3   OH241154   6.001   6.212  16.143  0.0768 -0.0842 -0.7739
 6580TIP3    H141155   5.935   6.159  16.099  0.3251  1.1082 -2.6363
 6580TIP3    H241156   6.077   6.154  16.151 -0.1392 -0.4724 -1.4829
 6581TIP3   OH241157   1.296   1.213   3.464  0.1418 -0.0636 -0.2520
 6581TIP3    H141158   1.200   1.221   3.460  0.1628  0.6587  0.3741
 6581TIP3    H241159   1.322   1.280   3.527  1.2208  0.9317 -1.7211
 6582TIP3   OH241160   3.768   2.720  17.209  0.3879  0.3717  0.1562
 6582TIP3    H141161   3.834   2.789  17.197  0.6225 -0.0594 -1.1879
 6582TIP3    H241162   3.699   2.743  17.147  0.0537 -0.1124  0.3474
 6583TIP3   OH241163   5.606   2.960   2.595 -0.1170  0.4188 -0.0768
 6583TIP3    H141164   5.626   2.980   2.687  0.0300  0.2722 -0.0774
 6583TIP3    H241165   5.525   2.910   2.599  0.1155  0.0439  0.0042
 6584TIP3   OH241166   3.173   4.006  14.075 -0.4007 -0.0730  0.4486
 6584TIP3    H141167   3.146   4.092  14.108 -1.6418 -0.6742  1.0480
 6584TIP3    H241168   3.096   3.973  14.029  0.1228 -0.7930  0.0823
 6585TIP3   OH241169   5.339   0.118   0.457  0.3008  0.0893 -0.5402
 6585TIP3    H141170   5.389   0.053   0.507  0.1674  0.0941 -0.4012
 6585TIP3    H241171   5.303   0.176   0.524 -0.6041 -0.4131 -0.5940
 6586TIP3   OH241172   1.843   5.741  12.646  0.2193 -0.4431  0.1742
 6586TIP3    H141173   1.772   5.792  12.608 -0.7447  0.7149  3.3385
 6586TIP3    H241174   1.922   5.772  12.602 -0.8758  0.6544 -1.0398
 6587TIP3   OH241175   2.634   6.589  13.542 -0.0375  0.0473 -0.5375
 6587TIP3    H141176   2.636   6.602  13.448  0.2858  1.0941 -0.3881
 6587TIP3    H241177   2.720   6.618  13.573  0.1201 -0.9741 -0.0085
 6588TIP3   OH241178   1.254   3.907  12.961 -0.3325 -0.4339 -0.2032
 6588TIP3    H141179   1.300   3.951  12.890  1.4435  0.1887  1.2975
 6588TIP3    H241180   1.165   3.941  12.958 -0.4386 -0.8489 -2.4737
 6589TIP3   OH241181   3.719   0.742  16.532 -0.0958  0.1356  0.3104
 6589TIP3    H141182   3.624   0.738  16.519 -0.4666  0.3557  2.7190
 6589TIP3    H241183   3.741   0.835  16.524 -0.0153  0.0576 -0.4925
 6590TIP3   OH241184   2.056   1.146   1.719  0.5609  0.3282 -0.6529
 6590TIP3    H141185   2.110   1.142   1.798 -0.8143 -0.4567  0.2597
 6590TIP3    H241186   2.086   1.073   1.666  1.9083  1.2131 -1.1649
 6591TIP3   OH241187   6.035   2.335  17.105 -0.1444 -0.2108 -0.0037
 6591TIP3    H141188   5.943   2.320  17.084 -0.2623  1.6995 -0.9546
 6591TIP3    H241189   6.037   2.344  17.201 -0.9075 -0.4754  0.0341
 6592TIP3   OH241190   2.082   6.080   1.045  0.2313 -0.3111  0.2114
 6592TIP3    H141191   2.039   6.048   0.966 -1.0924 -0.1232  0.8542
 6592TIP3    H241192   2.064   6.013   1.111 -1.3789  1.0512  1.1954
 6593TIP3   OH241193   5.032   1.953   6.290 -0.0716  0.4224 -0.4722
 6593TIP3    H141194   5.035   1.962   6.385 -0.4092 -1.3672 -0.2785
 6593TIP3    H241195   5.101   2.011   6.258 -2.1243  3.6532  0.6525
 6594TIP3   OH241196   1.316   1.734  12.957  0.3019 -0.0299  0.3648
 6594TIP3    H141197   1.400   1.766  12.992  0.8408 -0.1296 -0.8160
 6594TIP3    H241198   1.250   1.774  13.014  1.2284 -1.8538  2.8182
 6595TIP3   OH241199   6.497   0.539   5.659  0.1856  0.1240 -0.3817
 6595TIP3    H141200   6.554   0.563   5.586  0.9992 -1.8489 -0.4403
 6595TIP3    H241201   6.417   0.507   5.617 -0.0229  0.6374 -0.3700
 6596TIP3   OH241202   2.026   0.893   0.814 -0.1647  0.6210  0.0066
 6596TIP3    H141203   1.948   0.895   0.871  0.0563 -0.3843  0.3565
 6596TIP3    H241204   1.999   0.941   0.736 -1.6760 -1.0855 -0.5441
 6597TIP3   OH241205   6.042   0.226   2.993 -0.0971  0.2078 -0.1511
 6597TIP3    H141206   6.037   0.289   3.065 -0.6918  0.7667 -0.6784
 6597TIP3    H241207   6.025   0.141   3.034 -2.9295  0.7903 -0.0217
 6598TIP3   OH241208   1.604   4.268  12.558  0.0529  0.6325  0.2808
 6598TIP3    H141209   1.552   4.210  12.503  0.0018  0.6293  0.3321
 6598TIP3    H241210   1.678   4.294  12.502 -0.2785  1.0510  0.0345
 6599TIP3   OH241211   2.088   1.731  12.361 -0.4456 -0.7186 -0.3270
 6599TIP3    H141212   2.084   1.649  12.313  0.2997 -1.1679  0.3571
 6599TIP3    H241213   2.152   1.784  12.314  1.6932 -1.8645  1.1875
 6600TIP3   OH241214   3.029   2.822   6.455 -0.5155 -0.3366  0.6858
 6600TIP3    H141215   3.032   2.729   6.477  0.3652 -1.1140 -2.4015
 6600TIP3    H241216   3.101   2.861   6.504  1.6959 -2.0527 -1.1220
 6601TIP3   OH241217   4.823   5.995  14.948  0.8845 -0.5549 -0.1523
 6601TIP3    H141218   4.825   5.994  14.852 -0.0067  1.0156 -0.1961
 6601TIP3    H241219   4.913   5.973  14.973  1.8256  1.7179 -1.3915
 6602TIP3   OH241220   0.764   2.636   5.692 -0.2366 -0.5303 -0.0591
 6602TIP3    H141221   0.713   2.588   5.758  0.7289 -0.4773  0.7345
 6602TIP3    H241222   0.853   2.601   5.700  0.1963  0.4812 -0.3603
 6603TIP3   OH241223   3.193   6.116   0.460 -0.0153  0.9061 -0.3965
 6603TIP3    H141224   3.212   6.187   0.398  0.0073  1.1257 -0.1363
 6603TIP3    H241225   3.279   6.090   0.493  0.0349  0.2943 -1.0066
 6604TIP3   OH241226   2.930   0.352  12.675 -0.0502 -0.3784  0.8794
 6604TIP3    H141227   2.897   0.434  12.713 -1.4146 -1.3448  1.8518
 6604TIP3    H241228   3.005   0.378  12.623 -1.1639  1.6488  0.2358
 6605TIP3   OH241229   4.312   1.331   5.289 -0.6266 -0.5630 -0.8585
 6605TIP3    H141230   4.223   1.364   5.271 -0.1616  0.7652 -0.8206
 6605TIP3    H241231   4.299   1.261   5.353 -1.4176  1.8437  1.7349
 6606TIP3   OH241232   0.626   3.833  14.744 -0.3974  0.5556  0.8899
 6606TIP3    H141233   0.687   3.803  14.677 -0.6184  2.3591 -0.1557
 6606TIP3    H241234   0.544   3.787  14.724 -0.3096  0.6700  0.2620
 6607TIP3   OH241235   2.098   0.310   4.031  0.2374  0.4200  0.0945
 6607TIP3    H141236   2.046   0.246   3.982  1.0276 -1.8376  2.1003
 6607TIP3    H241237   2.188   0.285   4.014  0.6891  3.1882 -1.8828
 6608TIP3   OH241238   5.673   4.903  13.442  0.3029 -0.0096 -0.0967
 6608TIP3    H141239   5.663   4.964  13.515  1.8442  1.9413 -1.4511
 6608TIP3    H241240   5.603   4.839  13.455 -0.3776  1.1307  2.2515
 6609TIP3   OH241241   1.122   1.944   2.148  0.0884  0.2613  0.3575
 6609TIP3    H141242   1.108   1.875   2.083 -0.8398  1.7285 -1.0527
 6609TIP3    H241243   1.113   1.900   2.232  2.1847 -1.8630 -0.4623
 6610TIP3   OH241244   4.042   0.742   0.206 -0.0906  0.2560 -0.1961
 6610TIP3    H141245   4.070   0.828   0.238 -0.9466  0.1022  1.0088
 6610TIP3    H241246   3.948   0.753   0.190  0.0316 -0.1215 -1.1868
 6611TIP3   OH241247   2.730   6.187   0.546 -0.3774 -0.2694 -0.2134
 6611TIP3    H141248   2.699   6.148   0.628  0.0135 -1.7832 -0.7630
 6611TIP3    H241249   2.818   6.217   0.566 -0.6038  0.1445  0.1615
 6612TIP3   OH241250   3.753   3.788   4.171  0.4705 -0.7961  0.0449
 6612TIP3    H141251   3.789   3.711   4.215 -0.4121 -0.5142  1.2983
 6612TIP3    H241252   3.661   3.791   4.199  0.4278  0.5653 -0.1957
 6613TIP3   OH241253   0.139   2.474  11.406  0.0092  0.2235 -0.0551
 6613TIP3    H141254   0.205   2.419  11.363 -0.8908  0.4946 -1.8303
 6613TIP3    H241255   0.168   2.564  11.390  0.4619  0.3051  1.1984
 6614TIP3   OH241256   4.050   4.939  11.207 -0.2403  0.7486 -0.2402
 6614TIP3    H141257   3.998   4.981  11.138  0.2127 -1.9374 -2.3190
 6614TIP3    H241258   4.139   4.935  11.170 -0.3542 -2.3333 -0.3148
 6615TIP3   OH241259   6.132   1.959   3.776  0.1631 -0.0570  0.4414
 6615TIP3    H141260   6.095   1.880   3.814  0.6982 -0.6570 -0.2771
 6615TIP3    H241261   6.214   1.973   3.823  2.3144 -2.4556 -2.4069
 6616TIP3   OH241262   5.687   3.200   2.278 -0.1749 -0.3767  0.6184
 6616TIP3    H141263   5.611   3.154   2.314 -1.2721  0.0159 -1.1262
 6616TIP3    H241264   5.750   3.131   2.257 -0.7971 -0.8646  0.3472
 6617TIP3   OH241265   0.101   3.436   0.572  0.6897 -0.4526  0.4398
 6617TIP3    H141266   0.190   3.441   0.535  0.2687  0.2283 -0.5080
 6617TIP3    H241267   0.065   3.354   0.538 -0.3911  1.0972 -2.3003
 6618TIP3   OH241268   4.799   6.058  13.249 -0.2016  0.4761 -0.3973
 6618TIP3    H141269   4.756   6.066  13.164 -0.1826  1.5691 -0.3167
 6618TIP3    H241270   4.892   6.070  13.230 -0.0513 -0.6707 -0.4074
 6619TIP3   OH241271   0.895   2.018  12.068 -0.3630 -0.4733  0.4881
 6619TIP3    H141272   0.882   2.021  11.973 -0.6299  2.3110  0.5751
 6619TIP3    H241273   0.810   2.041  12.105  0.1702  0.1302  1.3651
 6620TIP3   OH241274   6.244   1.982   2.688 -0.0272  0.5492  0.3509
 6620TIP3    H141275   6.232   1.931   2.768  0.2527 -0.7079 -0.3846
 6620TIP3    H241276   6.338   1.980   2.672 -0.1071  0.5859 -0.1382
 6621TIP3   OH241277   2.331   6.726   3.030 -0.3172 -0.4006 -0.6246
 6621TIP3    H141278   2.383   6.654   2.995  0.7369  0.1924 -0.2902
 6621TIP3    H241279   2.247   6.720   2.984  0.4052 -0.7375 -1.9076
 6622TIP3   OH241280   2.476   0.748   4.195  0.4604 -0.6017  0.4660
 6622TIP3    H141281   2.467   0.826   4.140 -1.3175 -1.2722 -0.2227
 6622TIP3    H241282   2.429   0.679   4.147 -1.7113 -1.0498  3.0994
 6623TIP3   OH241283   5.186   6.349  15.038 -0.1552 -0.1250 -0.2823
 6623TIP3    H141284   5.126   6.275  15.022  0.6467 -1.0668  1.0069
 6623TIP3    H241285   5.173   6.370  15.130  0.4002  0.6687 -0.3883
 6624TIP3   OH241286   0.921   2.655   2.126 -0.0030  0.1573 -0.3040
 6624TIP3    H141287   0.965   2.672   2.209  0.1330  0.8689 -0.5194
 6624TIP3    H241288   0.985   2.605   2.075  0.1132  0.1829 -0.1827
 6625TIP3   OH241289   2.421   4.814  12.502 -0.0726  0.4817  0.2585
 6625TIP3    H141290   2.441   4.723  12.524 -0.7556  0.1515 -0.4631
 6625TIP3    H241291   2.371   4.846  12.577  3.6177  1.5251  2.4090
 6626TIP3   OH241292   3.502   1.552  11.905  0.0427  0.2387 -0.2198
 6626TIP3    H141293   3.432   1.543  11.970  0.7378 -4.0648  0.0247
 6626TIP3    H241294   3.460   1.598  11.832 -2.1378  0.5851  1.1818
 6627TIP3   OH241295   5.914   4.695  12.023 -0.2075 -0.2083  0.1698
 6627TIP3    H141296   5.834   4.662  11.980 -0.0413 -1.9854  1.1462
 6627TIP3    H241297   5.924   4.784  11.991 -1.4332 -0.6761 -1.5854
 6628TIP3   OH241298   5.329   5.969   3.667  0.3690 -0.3476 -0.2918
 6628TIP3    H141299   5.268   5.895   3.656 -0.3640  0.3207 -0.8236
 6628TIP3    H241300   5.300   6.033   3.602  1.0726  0.3601  0.0886
 6629TIP3   OH241301   2.986   2.491   0.343 -0.5464  0.0490 -0.1195
 6629TIP3    H141302   2.995   2.510   0.436 -1.9873 -0.3368  0.1220
 6629TIP3    H241303   2.976   2.396   0.339 -3.6436  0.3204 -0.3440
 6630TIP3   OH241304   5.452   3.155  15.290 -0.0328 -0.3374 -0.4226
 6630TIP3    H141305   5.528   3.109  15.325  1.8515  1.9974 -1.3445
 6630TIP3    H241306   5.435   3.114  15.205 -0.9023 -1.9991  0.5314
 6631TIP3   OH241307   3.237   6.688   4.815  0.2706  0.5028  0.5690
 6631TIP3    H141308   3.223   6.710   4.907 -1.0895  2.1735 -0.0242
 6631TIP3    H241309   3.199   6.761   4.766  2.6378  0.5538 -1.3053
 6632TIP3   OH241310   4.085   3.906   0.266  0.7247  0.0770 -0.2804
 6632TIP3    H141311   4.020   3.949   0.322  0.6019  1.1991 -1.2610
 6632TIP3    H241312   4.120   3.835   0.320 -0.6328  0.0564  0.5907
 6633TIP3   OH241313   1.191   3.226  13.858 -0.0643  0.4189 -0.0429
 6633TIP3    H141314   1.195   3.295  13.925  0.6485 -1.2674  1.7129
 6633TIP3    H241315   1.120   3.253  13.800 -1.0169  1.7027  1.6531
 6634TIP3   OH241316   3.800   5.221  14.748  0.0141 -0.8819  0.1794
 6634TIP3    H141317   3.792   5.304  14.795  0.8528 -0.0539 -1.0749
 6634TIP3    H241318   3.754   5.235  14.665  0.2567 -1.6301 -0.0921
 6635TIP3   OH241319   4.082   1.548   4.259  0.1343  0.0577  0.2675
 6635TIP3    H141320   4.142   1.572   4.329 -1.0775  4.5225 -0.0954
 6635TIP3    H241321   3.996   1.576   4.290 -0.7583 -0.0229 -2.0264
 6636TIP3   OH241322   1.095   0.388  14.493 -0.3024 -0.7502  0.4810
 6636TIP3    H141323   1.067   0.418  14.580  1.3356 -0.8036  1.0608
 6636TIP3    H241324   1.136   0.303  14.509  0.0674 -0.7338 -0.3432
 6637TIP3   OH241325   5.705   3.837   2.910 -0.1529  0.0963 -0.1749
 6637TIP3    H141326   5.693   3.872   2.998  2.1059  0.9407 -0.1633
 6637TIP3    H241327   5.799   3.844   2.895 -0.4340 -0.6777 -2.3968
 6638TIP3   OH241328   1.604   3.475   1.556 -0.4430  0.4062 -0.4865
 6638TIP3    H141329   1.649   3.392   1.539 -0.3738  0.1948  0.7000
 6638TIP3    H241330   1.672   3.542   1.548 -0.4160  0.3153 -1.0440
 6639TIP3   OH241331   3.524   2.337   1.770 -0.4653  0.6057  0.0669
 6639TIP3    H141332   3.528   2.247   1.738  0.5192  0.2089  1.2647
 6639TIP3    H241333   3.536   2.391   1.691  1.7401 -0.3580 -0.2910
 6640TIP3   OH241334   4.966   2.281  12.834 -0.0068 -0.3387 -0.3839
 6640TIP3    H141335   4.890   2.280  12.776  0.0967 -1.2479 -0.5175
 6640TIP3    H241336   5.037   2.315  12.781  0.0266 -0.9198 -0.7159
 6641TIP3   OH241337   4.782   4.938   5.017 -0.0720 -0.1095 -0.3480
 6641TIP3    H141338   4.754   4.996   4.946  2.5124  0.7111 -0.7745
 6641TIP3    H241339   4.857   4.890   4.980  0.5554 -0.5487  1.4290
 6642TIP3   OH241340   1.253   6.472   3.770 -0.3521 -0.1195  0.1603
 6642TIP3    H141341   1.246   6.424   3.687 -1.6096  0.1344  0.1168
 6642TIP3    H241342   1.208   6.416   3.834  0.9994 -0.5275  0.7795
 6643TIP3   OH241343   6.225   3.222  15.115  0.3904 -0.0518  0.0717
 6643TIP3    H141344   6.234   3.300  15.061 -0.4499  0.2933  0.4338
 6643TIP3    H241345   6.203   3.255  15.202 -2.6472 -0.7885 -0.3577
 6644TIP3   OH241346   1.659   5.089  11.417 -0.7606 -0.2248 -0.4364
 6644TIP3    H141347   1.575   5.073  11.459 -0.5553  0.0929  0.0905
 6644TIP3    H241348   1.643   5.163  11.359 -0.8274 -0.1279 -0.2942
 6645TIP3   OH241349   1.787   2.807  14.798  0.1682 -0.2599  0.1816
 6645TIP3    H141350   1.790   2.769  14.886 -2.3367  0.6408  0.7024
 6645TIP3    H241351   1.694   2.827  14.783  0.7498  1.0060 -2.0579
 6646TIP3   OH241352   1.381   1.158  13.696 -0.4008  0.5969 -0.2097
 6646TIP3    H141353   1.441   1.153  13.770 -0.6959  1.7017  0.1190
 6646TIP3    H241354   1.426   1.112  13.625 -1.0690 -2.4442  1.2423
 6647TIP3   OH241355   3.859   3.603  16.747 -0.0301 -0.0610 -0.7818
 6647TIP3    H141356   3.818   3.537  16.802  0.3778  0.2533 -0.0910
 6647TIP3    H241357   3.835   3.686  16.788  2.8479  0.0964  0.7975
 6648TIP3   OH241358   6.294   1.281   5.415  0.0627 -0.6919 -0.5000
 6648TIP3    H141359   6.291   1.375   5.434  0.7347 -0.6246 -0.7187
 6648TIP3    H241360   6.290   1.239   5.501 -2.9741 -0.5545 -0.4969
 6649TIP3   OH241361   2.711   0.511  14.493  0.0647 -0.0584 -0.2168
 6649TIP3    H141362   2.756   0.429  14.515  0.0735  0.3786  1.4349
 6649TIP3    H241363   2.769   0.554  14.430  1.0101 -0.4123  0.3975
 6650TIP3   OH241364   1.469   5.736   2.638  0.2749 -0.1954 -0.5567
 6650TIP3    H141365   1.519   5.726   2.557 -1.6177  1.1673 -1.9464
 6650TIP3    H241366   1.409   5.661   2.639  0.3084 -0.2199 -0.4053
 6651TIP3   OH241367   4.420   1.337   0.300  0.1276 -0.0870  0.0923
 6651TIP3    H141368   4.442   1.302   0.386  0.2182 -0.0879  0.0689
 6651TIP3    H241369   4.405   1.430   0.314 -0.7434 -0.2517  0.2671
 6652TIP3   OH241370   3.281   6.451  11.074 -0.8999  0.5918 -0.6361
 6652TIP3    H141371   3.206   6.400  11.105 -0.1212 -0.2582 -0.0916
 6652TIP3    H241372   3.262   6.541  11.102 -1.9374  0.4667 -0.9348
 6653TIP3   OH241373   0.690   6.636   4.893 -0.0360  0.0713 -0.3853
 6653TIP3    H141374   0.674   6.543   4.878 -0.2676  0.0866 -0.2358
 6653TIP3    H241375   0.642   6.656   4.973  2.0288 -0.2538  0.9945
 6654TIP3   OH241376   6.518   0.977   5.692  0.3916  0.0292  0.3324
 6654TIP3    H141377   6.507   0.948   5.601  1.2052 -1.9076  0.8199
 6654TIP3    H241378   6.550   1.067   5.684  0.8059 -0.2307 -1.3149
 6655TIP3   OH241379   0.619   0.634   4.007 -0.2491 -0.5285 -0.1657
 6655TIP3    H141380   0.679   0.559   4.001 -1.1957 -1.2831 -0.2371
 6655TIP3    H241381   0.558   0.621   3.934 -1.0524 -0.2517  0.4500
 6656TIP3   OH241382   4.468   2.766  16.689  0.8371  0.5896 -0.3400
 6656TIP3    H141383   4.418   2.847  16.680 -0.5354 -0.0160  1.5320
 6656TIP3    H241384   4.464   2.725  16.603 -0.8199  1.1921 -0.5605
 6657TIP3   OH241385   1.239   0.713  11.757  0.4902  0.0214  0.0923
 6657TIP3    H141386   1.205   0.633  11.718 -0.5442  0.8531 -0.7179
 6657TIP3    H241387   1.164   0.772  11.763  1.7782  1.9767 -1.9907
 6658TIP3   OH241388   2.277   5.502  12.108 -0.5045 -0.2418 -0.1052
 6658TIP3    H141389   2.188   5.512  12.073 -0.5054 -0.5809 -0.2039
 6658TIP3    H241390   2.334   5.512  12.032 -0.5919 -2.7723 -0.5296
 6659TIP3   OH241391   4.757   0.977  12.497  0.0506 -0.3378 -0.2024
 6659TIP3    H141392   4.716   1.021  12.423  0.9541  0.4590 -0.2370
 6659TIP3    H241393   4.692   0.912  12.525 -0.6287 -0.0885 -1.1670
 6660TIP3   OH241394   1.179   1.284   5.765 -0.4780  0.5831  0.5363
 6660TIP3    H141395   1.139   1.300   5.851 -2.6572 -0.3846 -0.2537
 6660TIP3    H241396   1.116   1.320   5.703  0.6994  0.5453 -0.7040
 6661TIP3   OH241397   2.694   2.725   4.575 -0.0056  0.1586 -0.0861
 6661TIP3    H141398   2.690   2.736   4.670 -0.0531  1.5885 -0.2396
 6661TIP3    H241399   2.613   2.680   4.552 -0.1787  0.1654  0.5043
 6662TIP3   OH241400   4.629   1.363  17.144 -0.6702 -0.9677 -0.0935
 6662TIP3    H141401   4.648   1.309  17.068 -1.6289 -1.3808 -0.0460
 6662TIP3    H241402   4.625   1.302  17.217 -0.3716 -0.6513  0.1911
 6663TIP3   OH241403   1.228   0.332   3.358 -0.0171 -0.2083  0.2176
 6663TIP3    H141404   1.171   0.316   3.433  1.2902 -0.2999  1.2175
 6663TIP3    H241405   1.309   0.284   3.380  0.7955  0.7318 -0.7089
 6664TIP3   OH241406   6.753   1.188  17.000  0.1223 -0.4243 -0.8975
 6664TIP3    H141407   6.818   1.135  16.954  0.2512 -1.0011 -0.0618
 6664TIP3    H241408   6.684   1.126  17.024  0.7499 -0.4270  0.9735
 6665TIP3   OH241409   2.867   3.819   1.380 -0.1392  0.4524 -0.2276
 6665TIP3    H141410   2.822   3.855   1.303  1.2234  2.8805  0.0547
 6665TIP3    H241411   2.959   3.839   1.366  0.1660  0.7008  1.8943
 6666TIP3   OH241412   2.270   0.110  11.923 -0.1966 -0.2574 -0.2248
 6666TIP3    H141413   2.223   0.089  11.842  1.0139  2.0246 -1.5570
 6666TIP3    H241414   2.349   0.057  11.918 -0.6418 -0.9530  0.0097
 6667TIP3   OH241415   0.768   3.215   5.678 -0.5121  0.1135 -0.2311
 6667TIP3    H141416   0.826   3.289   5.698 -2.2149  1.2207  0.7652
 6667TIP3    H241417   0.814   3.138   5.712 -0.0929  1.1046  1.5240
 6668TIP3   OH241418   3.036   5.229  11.081  0.1551  0.0592  0.3828
 6668TIP3    H141419   3.009   5.164  11.016  1.3528  0.1746 -0.2400
 6668TIP3    H241420   3.040   5.311  11.032 -0.1517  0.3727  0.8859
 6669TIP3   OH241421   0.266   1.884   3.252  0.3054  0.1764 -0.2473
 6669TIP3    H141422   0.294   1.868   3.343 -0.2140  1.8961  0.2287
 6669TIP3    H241423   0.257   1.979   3.246 -0.2734  0.0277 -1.9294
 6670TIP3   OH241424   5.066   5.057  10.795 -0.3820 -0.5472  0.1097
 6670TIP3    H141425   4.996   5.054  10.730 -0.1025 -1.1169 -0.1686
 6670TIP3    H241426   5.138   5.102  10.750 -0.3313 -0.5766  0.1615
 6671TIP3   OH241427   3.837   5.191   3.993  0.2896  0.2918 -0.1180
 6671TIP3    H141428   3.833   5.210   4.087 -0.2544 -0.6062  0.0431
 6671TIP3    H241429   3.858   5.275   3.953 -2.3284  1.3257  0.5523
 6672TIP3   OH241430   1.021   5.217   3.708  0.0455  0.0844  0.0681
 6672TIP3    H141431   1.078   5.288   3.737  0.6205  0.3444 -1.6807
 6672TIP3    H241432   0.935   5.257   3.699 -0.1976 -0.0478  1.5781
 6673TIP3   OH241433   1.381   1.603  13.335 -0.0778  0.0357  0.4104
 6673TIP3    H141434   1.445   1.665  13.300  0.0140  0.5652  1.5033
 6673TIP3    H241435   1.329   1.654  13.397 -0.5786 -0.7575  0.6488
 6674TIP3   OH241436   4.682   4.563   2.734 -0.4106  0.6188 -0.2778
 6674TIP3    H141437   4.635   4.608   2.804 -2.3453 -0.5231 -0.7996
 6674TIP3    H241438   4.771   4.553   2.767 -1.4269 -0.4654  2.3104
 6675TIP3   OH241439   4.410   0.259  15.830  0.1623  0.4106 -0.2043
 6675TIP3    H141440   4.471   0.236  15.901  0.7424  0.0874 -0.8061
 6675TIP3    H241441   4.423   0.190  15.765 -0.8981  0.3078 -0.3100
 6676TIP3   OH241442   0.957   4.208   0.494  0.0320 -0.0309 -0.0039
 6676TIP3    H141443   0.937   4.224   0.402  0.0503  0.1635  0.0253
 6676TIP3    H241444   0.998   4.289   0.524  0.6681 -0.3452 -0.0088
 6677TIP3   OH241445   1.827   6.232   5.530  0.5259  0.4277 -0.1003
 6677TIP3    H141446   1.793   6.294   5.594  0.5812  2.2133 -1.7632
 6677TIP3    H241447   1.915   6.212   5.560 -0.0506 -0.0947  1.2997
 6678TIP3   OH241448   5.359   1.763  12.494  0.6158  0.7307  0.4780
 6678TIP3    H141449   5.345   1.825  12.423  0.8669 -0.6090 -0.7692
 6678TIP3    H241450   5.290   1.783  12.558 -0.0985  1.4284 -0.5069
 6679TIP3   OH241451   3.201   6.218   0.960 -0.1366  0.6754  0.5849
 6679TIP3    H141452   3.106   6.208   0.946  0.0989  0.5559 -1.0356
 6679TIP3    H241453   3.236   6.131   0.945  0.4157  1.0659 -0.3783
 6680TIP3   OH241454   0.531   6.246   3.508  0.3415  0.4921  0.6959
 6680TIP3    H141455   0.465   6.300   3.465  1.9218  0.5241 -1.7304
 6680TIP3    H241456   0.615   6.281   3.478  1.4411 -1.3258  1.5687
 6681TIP3   OH241457   0.504   4.968   3.868 -0.3740 -0.3857 -0.3409
 6681TIP3    H141458   0.450   5.046   3.857  1.9850  0.8908 -3.7500
 6681TIP3    H241459   0.457   4.899   3.820 -0.2548  0.0840 -1.1426
 6682TIP3   OH241460   2.101   0.628  13.802 -0.0916  0.5153  0.0780
 6682TIP3    H141461   2.030   0.616  13.865 -1.5835  0.9967 -1.4727
 6682TIP3    H241462   2.156   0.550  13.812  0.1585  0.9400  2.5006
 6683TIP3   OH241463   0.328   2.139   2.779  0.6407  0.5300  0.5416
 6683TIP3    H141464   0.259   2.101   2.833  1.9419 -1.0759  1.1208
 6683TIP3    H241465   0.339   2.228   2.813 -0.9438  0.7037  0.6149
 6684TIP3   OH241466   0.456   5.666   1.833  0.4875 -0.0966 -0.2748
 6684TIP3    H141467   0.474   5.747   1.881 -1.6527  1.2929 -1.7403
 6684TIP3    H241468   0.515   5.670   1.758 -0.6576  0.8557 -1.1421
 6685TIP3   OH241469   2.758   3.397  12.702  0.2982 -0.1056 -0.0111
 6685TIP3    H141470   2.850   3.372  12.695  0.1002 -0.4022 -1.5230
 6685TIP3    H241471   2.752   3.480  12.654 -0.2235 -0.0775  0.1011
 6686TIP3   OH241472   3.533   1.077   3.449  0.1020  0.4426  0.3592
 6686TIP3    H141473   3.517   0.991   3.410  2.8744  0.6902 -1.4631
 6686TIP3    H241474   3.489   1.139   3.390  0.1235  0.4666  0.3683
 6687TIP3   OH241475   2.493   5.952  16.266  0.6661 -0.1429 -0.4714
 6687TIP3    H141476   2.553   6.008  16.217  1.1096  0.0004  0.2225
 6687TIP3    H241477   2.414   5.947  16.211  0.3410  1.7544 -0.2033
 6688TIP3   OH241478   4.639   5.921   4.075 -0.0072 -0.2463  0.3547
 6688TIP3    H141479   4.704   5.978   4.115 -0.0299 -0.8736  1.2918
 6688TIP3    H241480   4.559   5.974   4.070  0.2216  0.0983  0.3852
 6689TIP3   OH241481   0.388   6.719   4.941  0.3656 -0.0101 -0.4681
 6689TIP3    H141482   0.430   6.799   4.909  1.1782 -0.4394 -0.4841
 6689TIP3    H241483   0.361   6.739   5.030  2.3123 -0.3605  0.2070
 6690TIP3   OH241484   4.660   5.587  13.461  0.2509  0.5648  0.2324
 6690TIP3    H141485   4.708   5.509  13.490  0.0671  0.2593 -0.2666
 6690TIP3    H241486   4.693   5.604  13.372 -0.7082  0.2136 -0.2021
 6691TIP3   OH241487   0.378   5.239  14.206  0.0906 -0.1601  0.7120
 6691TIP3    H141488   0.349   5.287  14.129 -0.6619 -0.4870  0.7884
 6691TIP3    H241489   0.424   5.162  14.171 -0.8768 -0.6821  0.5905
 6692TIP3   OH241490   1.533   4.796  14.811 -0.3101 -0.2261  0.0378
 6692TIP3    H141491   1.474   4.772  14.739 -1.3120  0.1465  0.7277
 6692TIP3    H241492   1.476   4.837  14.876  0.6382 -0.3020  0.9250
 6693TIP3   OH241493   1.157   1.533  12.624  0.6619 -0.4005  0.0055
 6693TIP3    H141494   1.221   1.506  12.689 -0.8805 -0.3365  1.5727
 6693TIP3    H241495   1.073   1.504  12.659 -0.4744  1.8768 -0.7245
 6694TIP3   OH241496   1.721   0.868  13.707 -0.1668  0.4612  0.2342
 6694TIP3    H141497   1.650   0.873  13.771  0.1636 -0.8243  0.7225
 6694TIP3    H241498   1.792   0.823  13.754  1.6039  3.2212  0.3247
 6695TIP3   OH241499   2.619   0.117   1.406  0.0592 -0.7190 -0.4189
 6695TIP3    H141500   2.538   0.124   1.356 -0.1183 -0.6436 -0.1253
 6695TIP3    H241501   2.688   0.117   1.341  0.0810  3.5064 -0.5057
 6696TIP3   OH241502   1.182   0.581   3.486 -0.1449 -0.3687  0.4062
 6696TIP3    H141503   1.263   0.530   3.480  2.2525  2.8660  2.9559
 6696TIP3    H241504   1.207   0.669   3.456 -2.7289  0.6687  1.1490
 6697TIP3   OH241505   2.929   0.280  14.353 -0.0725 -0.5483 -0.0992
 6697TIP3    H141506   2.914   0.189  14.378  0.8879 -0.7661 -0.2841
 6697TIP3    H241507   2.864   0.298  14.286 -0.8794 -0.8083  0.6099
 6698TIP3   OH241508   1.115   6.080   3.594  0.4002  0.3944 -0.2343
 6698TIP3    H141509   1.055   6.148   3.562  1.2192  0.2595 -2.1090
 6698TIP3    H241510   1.069   6.040   3.667 -1.0288  1.5112 -0.5044
 6699TIP3   OH241511   3.519   0.413  15.700 -0.8130  0.5808 -0.0614
 6699TIP3    H141512   3.584   0.452  15.759 -0.2948  2.9867 -2.1395
 6699TIP3    H241513   3.470   0.488  15.666 -2.2509 -0.9202 -1.3581
 6700TIP3   OH241514   0.454   4.988  17.022 -0.2668  0.0768 -0.1864
 6700TIP3    H141515   0.544   5.014  17.044 -0.0584 -0.6525 -0.1617
 6700TIP3    H241516   0.428   5.048  16.952  0.6684 -0.4514 -1.0130
 6701TIP3   OH241517   4.606   1.614  11.851  0.0380 -0.5760  0.0467
 6701TIP3    H141518   4.531   1.561  11.822 -0.8411  0.4342  0.4519
 6701TIP3    H241519   4.602   1.613  11.946 -0.1148  0.3938  0.0608
 6702TIP3   OH241520   4.199   3.097   6.209 -0.3196  0.3338  0.4110
 6702TIP3    H141521   4.285   3.062   6.233 -0.8196 -1.8764 -0.8376
 6702TIP3    H241522   4.142   3.071   6.281 -0.4838 -0.6703 -0.0594
 6703TIP3   OH241523   2.677   6.647  11.010 -0.0784  0.1909 -0.1902
 6703TIP3    H141524   2.767   6.625  11.034  0.3605  0.9871 -1.0716
 6703TIP3    H241525   2.639   6.680  11.092  0.9408  1.4191 -0.1863
 6704TIP3   OH241526   4.563   0.195   0.053 -0.6205 -1.0279 -0.3587
 6704TIP3    H141527   4.590   0.277   0.094 -0.9459  0.0488 -2.2499
 6704TIP3    H241528   4.471   0.207   0.034 -0.2307 -1.1048 -2.3513
 6705TIP3   OH241529   4.216   0.149  15.113 -0.0694  0.0797  0.0000
 6705TIP3    H141530   4.252   0.062  15.094  0.2295 -0.3166  2.2314
 6705TIP3    H241531   4.284   0.192  15.164 -0.0786  1.7785 -1.4012
 6706TIP3   OH241532   1.294   6.004  15.613 -0.3530  0.2797 -0.1833
 6706TIP3    H141533   1.327   5.914  15.614  0.4653  0.5764  0.6447
 6706TIP3    H241534   1.205   5.998  15.648  0.1262 -0.0561  1.0085
 6707TIP3   OH241535   4.947   1.975   0.626 -0.5422  0.2433  0.2383
 6707TIP3    H141536   4.956   2.010   0.715  0.8860  0.0849  0.1623
 6707TIP3    H241537   4.913   2.048   0.575  2.0062  1.4251  0.1737
 6708TIP3   OH241538   4.838   1.868  13.040  0.4878  0.4367 -0.1031
 6708TIP3    H141539   4.846   1.867  12.945  1.2845 -0.5148 -0.0287
 6708TIP3    H241540   4.790   1.949  13.059 -0.5613  0.1312 -1.3734
 6709TIP3   OH241541   0.584   4.382  10.511  0.3243 -0.2144  0.7392
 6709TIP3    H141542   0.520   4.450  10.533  0.0341 -0.5507  0.9392
 6709TIP3    H241543   0.609   4.345  10.596  2.8794  1.7900  0.9323
 6710TIP3   OH241544   1.142   0.952   5.994  0.1190  0.2117  0.3374
 6710TIP3    H141545   1.174   0.998   5.916  0.8229 -0.1507  0.3991
 6710TIP3    H241546   1.177   1.002   6.067  0.8931 -0.4182  0.4040
 6711TIP3   OH241547   3.132   6.718  14.932 -0.0788 -0.4348  0.1068
 6711TIP3    H141548   3.117   6.763  15.015 -0.4454 -0.3303 -0.0160
 6711TIP3    H241549   3.180   6.638  14.957 -2.7975 -1.9153  0.7978
 6712TIP3   OH241550   5.010   6.281   0.739 -0.4905  0.4287  0.0899
 6712TIP3    H141551   5.093   6.317   0.708 -0.0743  0.3814  1.1355
 6712TIP3    H241552   4.963   6.258   0.659 -0.4457  2.5507 -0.5851
 6713TIP3   OH241553   6.422   4.872  17.176  0.2308 -0.3913  0.5043
 6713TIP3    H141554   6.453   4.841  17.090  0.5341 -0.9402  0.8079
 6713TIP3    H241555   6.411   4.966  17.165  0.9425 -0.3582  0.0605
 6714TIP3   OH241556   3.936   3.943  10.428 -0.2445  0.1519  0.0486
 6714TIP3    H141557   3.846   3.970  10.444  0.0470  0.5012  1.1815
 6714TIP3    H241558   3.988   4.001  10.483  0.5904 -0.8359  0.3242
 6715TIP3   OH241559   4.468   2.565   6.227  0.7753 -0.1911  0.0322
 6715TIP3    H141560   4.484   2.555   6.320 -0.0751  1.6708  0.4157
 6715TIP3    H241561   4.511   2.648   6.204 -1.6862  0.9633 -0.5352
 6716TIP3   OH241562   0.225   1.325  17.087  0.3740  0.3786 -0.0323
 6716TIP3    H141563   0.301   1.357  17.039 -1.0638  1.1895 -1.8495
 6716TIP3    H241564   0.241   1.231  17.099  2.2013  0.7714  0.6866
 6717TIP3   OH241565   4.676   4.803  14.333 -0.5458  0.0567 -0.2309
 6717TIP3    H141566   4.654   4.827  14.243 -1.9026 -0.8935 -0.1782
 6717TIP3    H241567   4.758   4.848  14.351  0.7931 -1.3433 -2.6201
 6718TIP3   OH241568   0.343   0.564   5.011  0.4709  0.0837  0.1555
 6718TIP3    H141569   0.434   0.586   5.028  0.0687  1.5607  0.4908
 6718TIP3    H241570   0.332   0.475   5.045  1.7021  0.0104  0.3615
 6719TIP3   OH241571   2.228   3.567  12.559 -0.0293  0.0543  0.5609
 6719TIP3    H141572   2.207   3.635  12.494 -0.1379 -0.4154  0.1002
 6719TIP3    H241573   2.322   3.576  12.573 -0.6580  3.0409  3.6160
 6720TIP3   OH241574   5.155   0.896  15.014  0.6784 -0.2339  0.0533
 6720TIP3    H141575   5.075   0.849  14.990  0.6519 -0.0495 -0.2208
 6720TIP3    H241576   5.152   0.976  14.962  0.8392 -0.0380  0.3467
 6721TIP3   OH241577   5.348   3.111   1.043 -0.0100 -0.0397 -0.1787
 6721TIP3    H141578   5.255   3.121   1.062 -0.0847  3.1948 -1.8729
 6721TIP3    H241579   5.351   3.052   0.968 -0.7316  0.1720 -0.3779
 6722TIP3   OH241580   5.479   4.832   0.082  0.1135 -0.5051 -0.4848
 6722TIP3    H141581   5.511   4.904   0.028 -0.0986 -0.4669 -0.5627
 6722TIP3    H241582   5.409   4.872   0.135 -1.3272 -1.0804 -1.8923
 6723TIP3   OH241583   1.727   5.772   3.832  0.2690 -0.1089 -0.2892
 6723TIP3    H141584   1.730   5.776   3.736 -1.3218  0.7495 -0.3294
 6723TIP3    H241585   1.766   5.855   3.861 -1.4602  0.7205 -0.2718
 6724TIP3   OH241586   2.222   2.399   2.741 -0.2614 -0.2458 -0.2396
 6724TIP3    H141587   2.227   2.485   2.783  0.2757  0.4718 -1.7503
 6724TIP3    H241588   2.137   2.398   2.697 -0.3094 -0.5394 -0.1460
 6725TIP3   OH241589   5.959   4.799  12.880 -0.1124  0.2301  0.7139
 6725TIP3    H141590   5.897   4.765  12.816  1.0774 -0.2997 -0.1674
 6725TIP3    H241591   6.016   4.857  12.829  0.5325  0.1903  1.3859
 6726TIP3   OH241592   6.213   5.306  11.898  0.2004  0.1687 -0.0256
 6726TIP3    H141593   6.130   5.353  11.891  0.8145  1.0885 -1.5431
 6726TIP3    H241594   6.188   5.214  11.910 -1.0618  0.1831 -2.2904
 6727TIP3   OH241595   5.421   3.363   3.074 -0.4063 -0.5055  0.2619
 6727TIP3    H141596   5.368   3.439   3.099 -1.2345 -1.7480  2.3417
 6727TIP3    H241597   5.359   3.290   3.072  0.8306 -1.5864  0.6648
 6728TIP3   OH241598   6.323   6.081   1.717  0.3670  0.1896  0.2218
 6728TIP3    H141599   6.251   6.104   1.775  0.2172  1.7738 -0.5726
 6728TIP3    H241600   6.319   6.145   1.646  2.3281  0.0996 -0.0148
 6729TIP3   OH241601   0.785   0.550  10.894  0.4174 -0.1333  0.4864
 6729TIP3    H141602   0.691   0.541  10.907  0.1686  1.1489 -0.3778
 6729TIP3    H241603   0.795   0.578  10.803  1.5271  1.4535  1.0700
 6730TIP3   OH241604   4.701   1.198  16.643 -0.4088 -0.1625 -0.1990
 6730TIP3    H141605   4.767   1.202  16.574  0.0742 -0.0118  0.2592
 6730TIP3    H241606   4.641   1.128  16.617  0.6070 -1.1067 -0.0401
 6731TIP3   OH241607   3.639   1.447  16.023  0.0363  0.0968  0.0541
 6731TIP3    H141608   3.589   1.396  15.959  0.4887 -0.5446  0.2058
 6731TIP3    H241609   3.617   1.408  16.107  0.4028  0.1365  0.1689
 6732TIP3   OH241610   4.329   4.121   2.807 -0.0473  0.2375  0.2056
 6732TIP3    H141611   4.319   4.167   2.891  1.3297 -0.5543  0.8172
 6732TIP3    H241612   4.400   4.166   2.763  1.1835 -1.1301  0.7258
 6733TIP3   OH241613   3.182   6.347   0.239 -0.1841 -0.6169 -0.0763
 6733TIP3    H141614   3.099   6.331   0.194  0.7206 -1.9915 -1.2962
 6733TIP3    H241615   3.237   6.389   0.173  0.1892  0.0525  0.6536
 6734TIP3   OH241616   3.447   3.748   2.828  0.1334 -0.2341 -0.5802
 6734TIP3    H141617   3.427   3.728   2.737 -1.7741 -0.2368 -0.1766
 6734TIP3    H241618   3.531   3.704   2.844 -0.9789 -2.8038 -1.4811
 6735TIP3   OH241619   6.519   4.554  13.268 -0.6350  0.2652 -0.0325
 6735TIP3    H141620   6.455   4.602  13.322 -0.5026 -0.8097  1.0932
 6735TIP3    H241621   6.482   4.557  13.180 -1.8033  0.4174  0.4521
 6736TIP3   OH241622   1.497   5.055  13.584  0.2357  0.0808 -0.3713
 6736TIP3    H141623   1.490   5.127  13.522 -0.9881 -0.3089 -0.7011
 6736TIP3    H241624   1.560   4.995  13.544  1.0614  0.8448 -0.2139
 6737TIP3   OH241625   4.486   2.293   6.633  0.3087 -0.0681 -0.4875
 6737TIP3    H141626   4.451   2.204   6.623 -1.4842  0.3681  1.4251
 6737TIP3    H241627   4.543   2.287   6.710  1.0278  0.2100 -0.9960
 6738TIP3   OH241628   3.028   5.872   4.504 -0.7587  0.1566 -0.0067
 6738TIP3    H141629   3.045   5.947   4.448  0.5588  1.1368  1.6433
 6738TIP3    H241630   2.936   5.882   4.530 -0.5774  1.2234  0.2411
 6739TIP3   OH241631   5.614   0.520  10.503  0.0202  0.3923 -0.0240
 6739TIP3    H141632   5.596   0.614  10.510 -2.2831 -0.0426  0.3670
 6739TIP3    H241633   5.684   0.504  10.566  0.2733  1.8077  0.0767
 6740TIP3   OH241634   2.532   1.092   5.929  0.1969 -0.2181 -0.4280
 6740TIP3    H141635   2.444   1.069   5.960  0.5167  1.4203  1.7781
 6740TIP3    H241636   2.518   1.173   5.879  0.4017 -0.1434 -0.3623
 6741TIP3   OH241637   1.559   1.133  13.462  0.4018 -0.1262 -0.5712
 6741TIP3    H141638   1.551   1.198  13.392 -0.1040  1.8785  1.2964
 6741TIP3    H241639   1.653   1.127  13.478  0.4600  0.0452 -0.8408
 6742TIP3   OH241640   4.708   4.786   1.840  0.1955  0.4495  0.6778
 6742TIP3    H141641   4.619   4.793   1.807  0.7394 -1.8286 -1.3678
 6742TIP3    H241642   4.751   4.866   1.811 -0.5827  0.5232 -0.2917
 6743TIP3   OH241643   5.773   4.322   1.236 -0.8953 -0.5374 -0.3776
 6743TIP3    H141644   5.812   4.274   1.162 -0.0421  2.1959 -1.7668
 6743TIP3    H241645   5.693   4.361   1.199 -0.0306  1.5296 -0.0950
 6744TIP3   OH241646   5.286   1.613  14.065 -0.0922 -1.0724  0.6042
 6744TIP3    H141647   5.285   1.700  14.104 -0.4410 -0.6984 -0.2437
 6744TIP3    H241648   5.368   1.574  14.096  0.0913 -0.4264  0.9412
 6745TIP3   OH241649   0.805   2.462  14.594  0.0472  0.6282  0.6304
 6745TIP3    H141650   0.768   2.376  14.616 -0.2399  0.4369 -0.5508
 6745TIP3    H241651   0.730   2.514  14.564  0.9897 -0.6854 -4.6067
 6746TIP3   OH241652   3.164   1.489   5.820 -0.3207 -0.5279  0.1681
 6746TIP3    H141653   3.170   1.496   5.915 -2.5672  1.5113  0.1979
 6746TIP3    H241654   3.215   1.563   5.788  0.8572 -1.5073 -0.2464
 6747TIP3   OH241655   1.865   5.834  11.755  0.1729  0.1008 -0.0431
 6747TIP3    H141656   1.912   5.756  11.784  1.0487  0.7964  0.4643
 6747TIP3    H241657   1.909   5.906  11.801  0.0546  0.9903 -1.2915
 6748TIP3   OH241658   5.103   3.562  14.503 -0.5110  0.5667  0.1631
 6748TIP3    H141659   5.194   3.537  14.518 -0.5544  0.3605  0.0778
 6748TIP3    H241660   5.062   3.483  14.467 -0.4986  0.9493 -0.7015
 6749TIP3   OH241661   0.952   4.579   4.604 -0.4885  0.0843 -0.2968
 6749TIP3    H141662   1.046   4.561   4.604 -0.7421 -1.2754 -0.8007
 6749TIP3    H241663   0.934   4.608   4.694  0.7266  2.1138 -0.6819
 6750TIP3   OH241664   4.468   4.470   3.721  0.0232 -0.0471 -0.1187
 6750TIP3    H141665   4.560   4.445   3.718 -0.1410 -0.7319  0.3799
 6750TIP3    H241666   4.469   4.562   3.747  0.5182 -0.5013  1.5456
 6751TIP3   OH241667   4.362   5.262   2.614 -0.2495 -0.2359  0.1432
 6751TIP3    H141668   4.351   5.189   2.674  0.5392  0.6248  1.3470
 6751TIP3    H241669   4.377   5.221   2.529 -0.0256 -1.4630  0.7654
 6752TIP3   OH241670   5.496   2.116   5.183  0.7430 -0.0304 -0.4103
 6752TIP3    H141671   5.464   2.197   5.223  2.2655  1.3383 -1.9058
 6752TIP3    H241672   5.509   2.139   5.090 -0.2224 -2.4049 -1.1675
 6753TIP3   OH241673   0.570   4.192  16.802 -0.1724 -0.6110 -0.1019
 6753TIP3    H141674   0.620   4.250  16.860 -0.0807 -0.0200 -0.7698
 6753TIP3    H241675   0.483   4.187  16.842  0.2435 -1.1778  0.7505
 6754TIP3   OH241676   0.298   4.028  13.922 -0.2411  0.1570 -0.0493
 6754TIP3    H141677   0.322   4.102  13.978 -0.9536  0.1131  0.3214
 6754TIP3    H241678   0.285   3.955  13.983 -0.9222  0.0860 -0.2736
 6755TIP3   OH241679   0.528   2.273  13.666  0.1062 -0.1012  0.0753
 6755TIP3    H141680   0.563   2.362  13.651  0.9236 -0.5420 -0.7191
 6755TIP3    H241681   0.565   2.222  13.594 -1.8320 -0.6850 -0.5060
 6756TIP3   OH241682   3.647   0.718   5.799 -0.6311 -0.0700 -0.1368
 6756TIP3    H141683   3.591   0.759   5.733 -0.3809  0.0255 -0.2914
 6756TIP3    H241684   3.639   0.774   5.876  0.2294  0.6447 -0.5606
 6757TIP3   OH241685   5.724   4.829  16.378  0.1132 -0.2738  0.5188
 6757TIP3    H141686   5.786   4.902  16.377  0.1001 -0.2678  0.0412
 6757TIP3    H241687   5.647   4.864  16.422 -0.7353  0.6954 -1.6742
 6758TIP3   OH241688   1.879   5.337   0.288 -0.2742 -0.2025 -0.4487
 6758TIP3    H141689   1.842   5.294   0.365  0.2946 -1.3646 -0.8103
 6758TIP3    H241690   1.940   5.273   0.252  1.2821  1.2424 -0.4848
 6759TIP3   OH241691   5.153   6.312  15.882  0.5302  0.0774 -0.2610
 6759TIP3    H141692   5.249   6.308  15.886  0.5778  1.5290  0.6716
 6759TIP3    H241693   5.125   6.296  15.972 -0.1070 -0.5024 -0.5658
 6760TIP3   OH241694   5.780   2.974  11.964 -0.5204 -0.2909 -0.8438
 6760TIP3    H141695   5.772   2.966  12.059  2.0325  0.9421 -0.4908
 6760TIP3    H241696   5.780   3.068  11.948 -0.0903 -0.4787 -1.9904
 6761TIP3   OH241697   0.255   2.426   1.768  0.2325  0.2724 -0.3090
 6761TIP3    H141698   0.180   2.442   1.711 -0.2046  0.9911  0.4539
 6761TIP3    H241699   0.264   2.506   1.820  1.1854 -0.0195 -0.0016
 6762TIP3   OH241700   1.813   0.923  14.345 -0.0537  0.2471  0.1847
 6762TIP3    H141701   1.738   0.901  14.401 -0.7010  0.0521 -0.7439
 6762TIP3    H241702   1.777   0.982  14.279  0.8674  1.0842  0.4169
 6763TIP3   OH241703   3.360   2.011  12.114 -0.1668 -0.1644  0.1743
 6763TIP3    H141704   3.386   2.021  12.205  1.7900 -0.6329 -0.2922
 6763TIP3    H241705   3.311   1.928  12.112 -1.2912  0.4684  0.9934
 6764TIP3   OH241706   1.273   2.565   1.588 -0.0821  0.3391  0.1101
 6764TIP3    H141707   1.223   2.603   1.515  1.5506  1.4469 -0.4537
 6764TIP3    H241708   1.308   2.483   1.552  0.0111  0.4605 -0.0796
 6765TIP3   OH241709   6.393   3.355   3.563 -0.0096 -0.4636 -0.0306
 6765TIP3    H141710   6.302   3.371   3.589  0.2036 -0.1136  0.5081
 6765TIP3    H241711   6.423   3.438   3.527 -0.0715 -0.7377 -0.7251
 6766TIP3   OH241712   5.449   2.534   1.669  0.5052 -0.0197 -0.1327
 6766TIP3    H141713   5.395   2.530   1.748  0.8793  1.1635  0.2018
 6766TIP3    H241714   5.539   2.540   1.702  0.5438  2.4199 -0.5853
 6767TIP3   OH241715   1.602   2.152   1.953 -0.6539 -0.6984  0.3164
 6767TIP3    H141716   1.547   2.228   1.968  0.7923  0.4227 -0.0107
 6767TIP3    H241717   1.633   2.161   1.863  1.3957 -0.4202  1.0171
 6768TIP3   OH241718   0.172   2.917  17.058 -0.1161  0.3853  0.3979
 6768TIP3    H141719   0.154   2.827  17.031  0.0180  0.2079  0.9060
 6768TIP3    H241720   0.140   2.923  17.148 -1.1821  1.1695 -0.0172
 6769TIP3   OH241721   1.459   0.230  12.892  0.5586  0.5013  0.1359
 6769TIP3    H141722   1.457   0.313  12.843  0.8990 -0.5806 -1.7728
 6769TIP3    H241723   1.551   0.202  12.887  0.1242 -0.8069 -0.6456
 6770TIP3   OH241724   2.670   1.921  16.528  0.0210  0.5032 -0.1172
 6770TIP3    H141725   2.704   1.864  16.459  0.5945 -0.2765  0.7992
 6770TIP3    H241726   2.660   1.863  16.604 -0.2397  1.4377  0.5694
 6771TIP3   OH241727   3.905   5.816  10.371  0.2264 -0.4228  0.0511
 6771TIP3    H141728   3.929   5.785  10.283 -0.9781 -0.3828 -0.2906
 6771TIP3    H241729   3.984   5.801  10.423  0.3038 -2.3387 -0.5585
 6772TIP3   OH241730   6.627   5.424   3.950  0.8357 -0.1238 -0.9179
 6772TIP3    H141731   6.565   5.351   3.952  2.0023 -1.3012 -3.8889
 6772TIP3    H241732   6.573   5.500   3.926  0.0551 -0.5277 -0.4778
 6773TIP3   OH241733   3.806   1.145  11.906  0.5377  0.4964  0.1082
 6773TIP3    H141734   3.810   1.237  11.878  0.9573 -0.1500 -1.9982
 6773TIP3    H241735   3.751   1.102  11.841 -2.1467 -0.2230  2.6921
 6774TIP3   OH241736   2.772   4.924   2.482 -0.0147  0.0550  0.0643
 6774TIP3    H141737   2.836   4.983   2.442  1.9651 -2.0562  0.0185
 6774TIP3    H241738   2.758   4.856   2.415  0.7599 -1.6571  1.5973
 6775TIP3   OH241739   4.750   6.441  13.384  0.1361 -0.2387  0.2666
 6775TIP3    H141740   4.768   6.486  13.466 -1.2470  0.1190  0.3794
 6775TIP3    H241741   4.837   6.417  13.350  0.7394  0.1631  1.5095
 6776TIP3   OH241742   0.461   6.483   4.383 -0.1680  0.3665  0.1220
 6776TIP3    H141743   0.553   6.457   4.383  0.1504  1.4825  0.2555
 6776TIP3    H241744   0.418   6.421   4.323  0.4858 -0.7865  0.8446
 6777TIP3   OH241745   1.190   4.561  13.387 -0.1447 -0.2087 -0.0355
 6777TIP3    H141746   1.128   4.568  13.315 -0.7343  0.5823  0.5496
 6777TIP3    H241747   1.141   4.519  13.457  0.2417 -0.3823  0.1384
 6778TIP3   OH241748   6.498   6.622   4.403 -0.7015  0.4039  0.2009
 6778TIP3    H141749   6.510   6.715   4.421 -2.7978  0.1763  3.0708
 6778TIP3    H241750   6.440   6.619   4.327 -0.1533  1.4301 -0.2621
 6779TIP3   OH241751   1.221   4.352   3.741 -0.6165  0.2025  0.1516
 6779TIP3    H141752   1.185   4.338   3.829 -1.0124 -1.2571 -0.2183
 6779TIP3    H241753   1.314   4.330   3.750 -0.8196 -0.7567  0.0432
 6780TIP3   OH241754   4.714   1.486   1.821 -0.4320  0.0748  0.1650
 6780TIP3    H141755   4.643   1.433   1.785 -0.7913  0.6160  0.0755
 6780TIP3    H241756   4.779   1.489   1.751 -0.5001 -0.0748  0.0932
 6781TIP3   OH241757   4.301   4.719   4.642 -0.0713 -0.1188 -0.3185
 6781TIP3    H141758   4.339   4.775   4.710 -3.9081  2.6734 -0.2981
 6781TIP3    H241759   4.341   4.749   4.561  1.4980 -0.7180  0.2052
 6782TIP3   OH241760   5.564   6.211   2.944 -0.0322 -0.7246 -0.0080
 6782TIP3    H141761   5.507   6.154   2.995 -1.1402 -0.4744 -0.9337
 6782TIP3    H241762   5.560   6.175   2.855  0.4352 -0.0985 -0.2892
 6783TIP3   OH241763   0.421   3.659  11.680 -0.0040  0.3658 -0.2675
 6783TIP3    H141764   0.501   3.656  11.627  1.4486 -0.5320  1.8928
 6783TIP3    H241765   0.433   3.589  11.744 -2.5161  0.2836  0.1272
 6784TIP3   OH241766   5.212   2.451  13.206 -0.2040 -0.3750  0.3671
 6784TIP3    H141767   5.130   2.423  13.246 -0.2805  0.0463  0.5106
 6784TIP3    H241768   5.186   2.487  13.121 -0.3781  1.2965  1.0961
 6785TIP3   OH241769   0.182   1.041  16.910  0.1589 -0.3902 -0.4528
 6785TIP3    H141770   0.222   1.115  16.865  1.7052 -1.2797 -0.5577
 6785TIP3    H241771   0.216   1.045  16.999 -1.1100  0.0199  0.0350
 6786TIP3   OH241772   0.457   5.203   5.713 -0.2167  0.3513  0.1121
 6786TIP3    H141773   0.513   5.200   5.635 -0.7596 -1.7355 -0.2218
 6786TIP3    H241774   0.486   5.129   5.766 -0.5261  1.1693  1.4336
 6787TIP3   OH241775   6.373   3.211  10.585  0.1115  1.1778 -0.4172
 6787TIP3    H141776   6.443   3.273  10.608  0.9613 -0.5441  1.8225
 6787TIP3    H241777   6.329   3.192  10.668 -0.6748 -0.5616 -1.1991
 6788TIP3   OH241778   5.496   0.770  13.773  0.3697 -0.7484 -0.2285
 6788TIP3    H141779   5.580   0.790  13.731  0.5444 -0.4863  0.2462
 6788TIP3    H241780   5.517   0.764  13.866  0.0568 -1.7324 -0.2191
 6789TIP3   OH241781   1.499   2.555  11.288 -0.2424  0.3586 -0.1668
 6789TIP3    H141782   1.455   2.577  11.370  2.0336 -0.1561  1.2458
 6789TIP3    H241783   1.445   2.485  11.250  0.3283 -1.5630  2.4308
 6790TIP3   OH241784   2.167   0.745  17.031 -0.2457 -0.3779  0.1264
 6790TIP3    H141785   2.073   0.749  17.014 -0.3112 -2.1376 -0.0413
 6790TIP3    H241786   2.208   0.762  16.946 -0.4712 -1.9842 -0.3306
 6791TIP3   OH241787   5.942   4.877   3.209 -0.0731 -0.4449  0.4173
 6791TIP3    H141788   5.952   4.960   3.255 -1.2943  1.3976 -2.4995
 6791TIP3    H241789   6.017   4.874   3.150 -0.1248 -1.3325  0.3966
 6792TIP3   OH241790   0.666   3.571  15.491 -0.1011  0.5357  0.0464
 6792TIP3    H141791   0.734   3.605  15.432 -1.1227 -0.1053 -1.5504
 6792TIP3    H241792   0.648   3.483  15.458 -0.2749 -0.0726  1.7086
 6793TIP3   OH241793   5.766   6.407   0.548 -0.3424 -0.0688 -0.1184
 6793TIP3    H141794   5.762   6.493   0.506 -1.9484  0.4748  1.0927
 6793TIP3    H241795   5.763   6.345   0.476 -0.6348  0.8844 -0.9379
 6794TIP3   OH241796   1.330   5.005  13.796  0.0692 -0.5805  0.4809
 6794TIP3    H141797   1.248   4.996  13.747  1.2252 -1.9511 -1.2591
 6794TIP3    H241798   1.398   5.007  13.729  1.6174 -1.4069  1.9782
 6795TIP3   OH241799   3.462   0.204  14.480  0.2270 -0.7519  0.2642
 6795TIP3    H141800   3.496   0.252  14.555  1.3664 -1.6149  0.3048
 6795TIP3    H241801   3.503   0.246  14.404 -0.9844  0.1708  0.0969
 6796TIP3   OH241802   4.063   1.475  14.779 -0.2399 -0.3134  0.3344
 6796TIP3    H141803   4.052   1.541  14.711  0.4943 -0.0877  0.4280
 6796TIP3    H241804   4.040   1.520  14.860 -1.3886 -0.6622  0.2098
 6797TIP3   OH241805   2.261   6.422  14.769 -0.5123 -0.3020 -0.0962
 6797TIP3    H141806   2.186   6.415  14.829 -0.6807 -0.3087 -0.3097
 6797TIP3    H241807   2.241   6.361  14.698 -1.2156  1.1309 -1.1340
 6798TIP3   OH241808   4.527   5.752   0.907 -0.5460  0.5055 -0.0271
 6798TIP3    H141809   4.514   5.753   0.812  2.7518  0.7280 -0.5329
 6798TIP3    H241810   4.496   5.665   0.934  2.1790 -1.1662 -1.9534
 6799TIP3   OH241811   6.359   4.862   3.407 -0.4344 -0.3066 -0.6403
 6799TIP3    H141812   6.406   4.927   3.459 -0.0222 -0.7313 -0.4753
 6799TIP3    H241813   6.279   4.906   3.379 -0.9377 -0.2548  0.8327
 6800TIP3   OH241814   4.329   3.474   4.939 -0.2712  0.0023  0.0089
 6800TIP3    H141815   4.374   3.442   5.017 -0.4426 -1.4564 -0.4838
 6800TIP3    H241816   4.397   3.484   4.874 -0.4218 -0.6808 -0.2543
 6801TIP3   OH241817   5.532   5.414   2.981  0.6036  0.9256  0.0094
 6801TIP3    H141818   5.547   5.332   3.029 -0.6032  0.6060 -0.1363
 6801TIP3    H241819   5.459   5.394   2.922  1.1633  1.7334 -0.9533
 6802TIP3   OH241820   4.992   2.366   0.853  0.1509  0.0199  0.2212
 6802TIP3    H141821   4.968   2.399   0.766  0.8284  1.4252  0.5476
 6802TIP3    H241822   4.924   2.400   0.911  0.1445 -0.2378  0.3645
 6803TIP3   OH241823   0.173   5.098   2.066  0.5335  0.2136 -0.1656
 6803TIP3    H141824   0.113   5.125   1.996  0.2661 -1.6078 -0.6726
 6803TIP3    H241825   0.117   5.057   2.132  1.0498 -0.2568 -0.0092
 6804TIP3   OH241826   4.133   5.287   4.601 -0.6395  0.7077 -0.1609
 6804TIP3    H141827   4.107   5.321   4.515 -0.0621 -0.3227 -0.7481
 6804TIP3    H241828   4.213   5.335   4.622 -0.8901  1.1045 -0.0952
 6805TIP3   OH241829   3.760   4.279   3.097 -0.0906 -0.3107  0.8343
 6805TIP3    H141830   3.705   4.226   3.155 -1.5306 -0.1603 -0.3667
 6805TIP3    H241831   3.849   4.262   3.127 -0.7633 -0.7562  2.6562
 6806TIP3   OH241832   5.582   2.370   0.427 -0.0716 -0.5659  0.3623
 6806TIP3    H141833   5.507   2.310   0.422 -0.8172  0.3880 -0.0618
 6806TIP3    H241834   5.643   2.327   0.487 -0.3457 -2.0259 -0.3804
 6807TIP3   OH241835   0.071   4.610   4.201 -0.1606  0.0487 -0.0845
 6807TIP3    H141836   0.117   4.665   4.264  1.2032 -0.4363 -0.6406
 6807TIP3    H241837   0.138   4.584   4.138 -0.9907 -1.5024 -0.3474
 6808TIP3   OH241838   1.892   3.603   0.032  0.1641  0.5016 -0.1695
 6808TIP3    H141839   1.928   3.522   0.068  0.7056 -0.0010 -1.8021
 6808TIP3    H241840   1.969   3.659   0.018 -0.0504  0.7323 -0.4316
 6809TIP3   OH241841   3.879   4.501   5.425 -0.4845  0.2455 -0.2078
 6809TIP3    H141842   3.788   4.472   5.426 -0.5630  0.4956  0.2673
 6809TIP3    H241843   3.915   4.466   5.344 -0.6271 -1.0281  0.2680
 6810TIP3   OH241844   1.731   1.980  14.324 -0.1705  0.1895  0.1573
 6810TIP3    H141845   1.661   2.044  14.331  0.6064  1.0628  0.0372
 6810TIP3    H241846   1.806   2.020  14.368  0.0487 -1.0408  0.9332
 6811TIP3   OH241847   3.565   2.145   0.218 -0.3466 -0.3360 -0.5992
 6811TIP3    H141848   3.610   2.104   0.291  0.4593 -0.6341 -1.2576
 6811TIP3    H241849   3.485   2.092   0.206 -0.5144 -0.2417  0.0987
 6812TIP3   OH241850   2.556   0.712   2.067  0.1203  0.2000 -0.2816
 6812TIP3    H141851   2.642   0.677   2.092  1.4386  1.5699 -2.6822
 6812TIP3    H241852   2.567   0.739   1.976 -1.9152  3.4861  0.3686
 6813TIP3   OH241853   6.092   3.467  16.268  0.3931  0.2861  0.1076
 6813TIP3    H141854   6.105   3.374  16.251  0.2235  0.0643  1.2023
 6813TIP3    H241855   6.167   3.510  16.226 -0.4162 -0.1765 -1.8953
 6814TIP3   OH241856   1.456   3.510  16.607  0.1845 -0.2737 -0.1662
 6814TIP3    H141857   1.520   3.544  16.670  1.4901  0.3188 -1.7968
 6814TIP3    H241858   1.478   3.418  16.598 -0.7442 -0.6400  1.0982
 6815TIP3   OH241859   0.966   1.447  12.055  0.6457 -0.4653  0.1650
 6815TIP3    H141860   0.888   1.422  12.006  0.7099 -0.6808  0.1690
 6815TIP3    H241861   0.974   1.541  12.042  0.4968 -0.4747  0.0015
 6816TIP3   OH241862   3.254   5.805   2.116  0.0726  0.2953 -0.0897
 6816TIP3    H141863   3.343   5.771   2.126  0.6656  1.3509 -1.5653
 6816TIP3    H241864   3.267   5.896   2.088 -1.4746 -0.0283 -1.9098
 6817TIP3   OH241865   5.478   1.930   4.918 -0.4150  0.1671  0.0779
 6817TIP3    H141866   5.393   1.902   4.952 -1.3647  2.2178 -0.5185
 6817TIP3    H241867   5.531   1.947   4.996  0.0061 -2.6274  0.4536
 6818TIP3   OH241868   4.109   6.156  16.599  0.7936  0.0736 -0.5441
 6818TIP3    H141869   4.129   6.246  16.624  0.4989  0.3248 -1.1997
 6818TIP3    H241870   4.077   6.115  16.679  0.0993  0.7964 -0.4519
 6819TIP3   OH241871   0.872   5.641   3.002  0.2578  0.4878  0.5724
 6819TIP3    H141872   0.778   5.640   3.021  0.4670  0.0728  1.6425
 6819TIP3    H241873   0.906   5.715   3.051  0.5344  0.4641  0.4166
 6820TIP3   OH241874   6.298   3.782  11.188 -0.3610  0.0137  0.3249
 6820TIP3    H141875   6.329   3.850  11.127 -0.4724  1.6616  2.0843
 6820TIP3    H241876   6.203   3.786  11.182 -0.3888  0.7804  1.2621
 6821TIP3   OH241877   1.153   6.758   2.489 -0.0559  0.3853  0.4953
 6821TIP3    H141878   1.099   6.836   2.503 -2.1655 -1.0712  0.8506
 6821TIP3    H241879   1.231   6.790   2.444 -0.8431  2.6994  0.7040
 6822TIP3   OH241880   0.169   2.548  16.197  0.2778  0.3442  0.1384
 6822TIP3    H141881   0.235   2.521  16.133  0.7481 -0.8471  1.1110
 6822TIP3    H241882   0.089   2.560  16.146  1.4537  2.7235 -1.2162
 6823TIP3   OH241883   2.427   6.728   3.792 -0.1667 -0.2705  0.5228
 6823TIP3    H141884   2.375   6.661   3.748  1.9442 -0.5310 -1.6896
 6823TIP3    H241885   2.498   6.747   3.731  0.4037  2.5593  1.9610
 6824TIP3   OH241886   4.779   3.774  14.988  0.1813 -0.1042 -0.0504
 6824TIP3    H141887   4.704   3.721  14.960  0.1766 -0.8010  1.2352
 6824TIP3    H241888   4.740   3.854  15.022  0.0647 -0.1511 -0.0727
 6825TIP3   OH241889   3.491   4.159  10.704 -0.2878  0.5375  0.1941
 6825TIP3    H141890   3.551   4.085  10.702 -1.4197 -0.4742  2.3248
 6825TIP3    H241891   3.404   4.120  10.716 -0.9754  2.1726  0.7219
 6826TIP3   OH241892   1.406   5.388  12.660 -0.3758 -0.3904 -0.0553
 6826TIP3    H141893   1.361   5.469  12.686 -0.5651 -0.0479 -1.3850
 6826TIP3    H241894   1.493   5.417  12.633 -0.1275 -0.7614  0.3326
 6827TIP3   OH241895   0.773   2.764   2.651 -0.3283  0.4069  0.6951
 6827TIP3    H141896   0.725   2.708   2.590  2.9961 -0.7867 -0.9678
 6827TIP3    H241897   0.750   2.853   2.625 -0.6841 -0.1344 -0.8857
 6828TIP3   OH241898   4.273   2.071   3.038  0.4585 -0.1709 -0.1142
 6828TIP3    H141899   4.265   2.136   2.968 -2.1320 -1.6780 -1.3126
 6828TIP3    H241900   4.190   2.023   3.035  1.3222 -1.9197  2.3588
 6829TIP3   OH241901   2.335   3.489   5.315  0.1439 -0.1859  0.4162
 6829TIP3    H141902   2.406   3.485   5.250  0.0302 -2.1152  0.3950
 6829TIP3    H241903   2.367   3.436   5.389 -0.9179 -0.3620  0.7553
 6830TIP3   OH241904   6.102   2.822   3.121 -0.3016  0.0903 -0.0968
 6830TIP3    H141905   6.115   2.774   3.039  1.0351 -1.1413  0.8105
 6830TIP3    H241906   6.188   2.820   3.164 -0.4629  2.5403  0.3722
 6831TIP3   OH241907   1.075   2.775  17.009 -0.5561  0.2480 -0.1413
 6831TIP3    H141908   1.036   2.742  17.090 -0.2300 -0.0598 -0.1084
 6831TIP3    H241909   1.055   2.707  16.944  1.3605 -0.7133  0.2491
 6832TIP3   OH241910   4.871   2.385   2.847 -0.1623 -0.6138 -0.5495
 6832TIP3    H141911   4.777   2.395   2.831 -0.3246 -1.5750 -0.2631
 6832TIP3    H241912   4.912   2.453   2.795 -1.0743  0.3288 -0.0505
 6833TIP3   OH241913   5.545   6.727  16.296  0.0910 -0.8606 -0.1180
 6833TIP3    H141914   5.535   6.641  16.256 -0.2372 -1.2551  0.8026
 6833TIP3    H241915   5.510   6.788  16.230  1.1750 -1.3254 -1.1543
 6834TIP3   OH241916   6.684   6.487   5.352 -0.5411  0.4371 -0.2465
 6834TIP3    H141917   6.728   6.572   5.351 -1.8491  1.1192 -0.8508
 6834TIP3    H241918   6.673   6.464   5.259 -0.9942  0.0351 -0.0990
 6835TIP3   OH241919   2.004   3.516  15.106 -0.5827 -0.1886  0.1223
 6835TIP3    H141920   1.993   3.504  15.012 -0.6882  0.4950  0.0486
 6835TIP3    H241921   1.928   3.568  15.133  0.2771  0.9772  0.3123
 6836TIP3   OH241922   3.356   4.243   5.524  0.1362 -0.9907 -0.7540
 6836TIP3    H141923   3.261   4.253   5.518  0.1318 -1.0551 -0.8016
 6836TIP3    H241924   3.379   4.189   5.448  0.4917  0.9447 -2.0522
 6837TIP3   OH241925   1.903   2.975   6.059 -0.0159  0.1159 -0.9350
 6837TIP3    H141926   1.854   2.920   5.998 -0.0443 -0.2674 -0.5634
 6837TIP3    H241927   1.840   3.042   6.087 -0.4705 -0.6486 -0.0983
 6838TIP3   OH241928   0.542   0.748  14.838  0.8315 -0.0968 -0.0641
 6838TIP3    H141929   0.569   0.687  14.907 -1.4460  0.5213  1.4119
 6838TIP3    H241930   0.586   0.715  14.759 -1.4989 -4.5530  0.3204
 6839TIP3   OH241931   3.649   4.148   4.147 -0.2540  0.9066 -0.2814
 6839TIP3    H141932   3.558   4.169   4.166 -0.5150  0.2805 -0.8373
 6839TIP3    H241933   3.645   4.077   4.083  0.6213  1.0776 -0.5365
 6840TIP3   OH241934   6.099   1.730   4.838  0.2202 -0.0378  0.2506
 6840TIP3    H141935   6.107   1.809   4.892 -0.1775 -1.0690  1.8488
 6840TIP3    H241936   6.190   1.706   4.819  0.3303  1.3028 -1.0128
 6841TIP3   OH241937   6.300   2.984  12.013  0.2109 -0.2785  0.0829
 6841TIP3    H141938   6.272   3.016  12.099  1.7847 -2.2164  1.3572
 6841TIP3    H241939   6.241   2.912  11.994 -0.1388  0.1506 -0.4886
 6842TIP3   OH241940   4.094   2.987  15.113  0.6413 -0.7639  0.4245
 6842TIP3    H141941   4.016   2.941  15.144 -0.0084  0.0977  0.1219
 6842TIP3    H241942   4.165   2.924  15.121 -0.2904 -1.9215 -0.3097
 6843TIP3   OH241943   1.352   2.780  16.491  0.6126 -0.4856  0.2818
 6843TIP3    H141944   1.447   2.780  16.480  0.7130 -3.6170  0.6270
 6843TIP3    H241945   1.320   2.715  16.428 -1.2352 -0.0380  0.7104
 6844TIP3   OH241946   3.724   5.820  16.237 -0.2637 -0.1293 -0.2820
 6844TIP3    H141947   3.814   5.788  16.241 -0.9884 -2.1582  0.8043
 6844TIP3    H241948   3.679   5.759  16.179 -2.0101 -2.0938  2.9520
 6845TIP3   OH241949   0.956   2.399  15.971 -0.2777  0.0834 -0.0684
 6845TIP3    H141950   0.919   2.442  16.048 -1.4629 -1.0111 -0.0043
 6845TIP3    H241951   1.011   2.329  16.006 -1.4576 -0.9314 -0.2092
 6846TIP3   OH241952   1.672   6.713   0.710  0.5809 -0.0304 -0.2222
 6846TIP3    H141953   1.607   6.755   0.767 -0.3823 -0.0749 -1.2773
 6846TIP3    H241954   1.702   6.637   0.761 -0.5090 -0.2567  0.1102
 6847TIP3   OH241955   1.179   2.493  12.136  0.0400  0.4688 -0.5546
 6847TIP3    H141956   1.255   2.551  12.133  0.2797  0.0996 -1.8477
 6847TIP3    H241957   1.171   2.469  12.228  0.5928  1.6879 -0.1706
 6848TIP3   OH241958   5.092   4.733   0.818 -0.9365  0.0188  0.4533
 6848TIP3    H141959   5.044   4.798   0.765  0.9819  1.1015  0.0145
 6848TIP3    H241960   5.093   4.654   0.764 -0.5311  0.5773 -0.3587
 6849TIP3   OH241961   6.689   6.689   4.065 -0.1102  0.2859 -0.4543
 6849TIP3    H141962   6.749   6.718   4.135 -1.9577 -0.5161  1.5084
 6849TIP3    H241963   6.672   6.769   4.014 -0.4910  1.3734  1.3370
 6850TIP3   OH241964   5.925   5.941   1.995 -0.2985 -0.0782  0.4820
 6850TIP3    H141965   5.887   5.899   2.071  1.5798 -1.7319  0.5603
 6850TIP3    H241966   5.856   5.941   1.929 -1.2003 -0.7049  1.4298
 6851TIP3   OH241967   5.445   4.790   3.692 -0.2583 -0.2317 -0.0776
 6851TIP3    H141968   5.416   4.724   3.755  1.5404 -1.4425 -0.4666
 6851TIP3    H241969   5.454   4.741   3.610  2.4042  0.1387 -0.0620
 6852TIP3   OH241970   6.108   1.980  15.757 -0.7821  0.1768 -0.8615
 6852TIP3    H141971   6.180   1.939  15.805 -0.5793 -0.0793 -1.3762
 6852TIP3    H241972   6.037   1.987  15.821 -0.4036  0.1431 -0.4357
 6853TIP3   OH241973   6.621   4.626  11.680  0.0181 -0.1679  0.1880
 6853TIP3    H141974   6.702   4.617  11.730  0.9524  4.4693 -0.3135
 6853TIP3    H241975   6.650   4.625  11.588 -0.6054  0.7237 -0.0185
 6854TIP3   OH241976   5.378   0.701   3.507 -0.7415 -0.2017 -0.6202
 6854TIP3    H141977   5.407   0.792   3.518 -0.1915 -0.6097  1.4014
 6854TIP3    H241978   5.410   0.656   3.585  1.3162 -2.7564 -2.8421
 6855TIP3   OH241979   2.500   1.831  11.515 -0.9895 -0.0944 -0.3519
 6855TIP3    H141980   2.519   1.869  11.600 -0.8821 -0.8584 -0.0276
 6855TIP3    H241981   2.423   1.776  11.529  1.0826 -3.0136  0.0952
 6856TIP3   OH241982   3.018   4.355  16.008 -0.4334 -0.1132 -0.3914
 6856TIP3    H141983   3.076   4.279  16.014  0.1289  0.3889  0.6807
 6856TIP3    H241984   2.955   4.343  16.079 -1.5094 -0.5280 -1.3925
 6857TIP3   OH241985   2.169   0.283  12.712 -1.3030  0.1118 -0.4383
 6857TIP3    H141986   2.234   0.219  12.687 -2.5575 -1.4585  0.1862
 6857TIP3    H241987   2.207   0.327  12.788 -0.8116 -0.5253 -0.3111
 6858TIP3   OH241988   1.957   2.178   2.037  0.4551  0.5044 -0.2682
 6858TIP3    H141989   2.022   2.245   2.020 -1.4719  2.1118 -1.4607
 6858TIP3    H241990   1.914   2.206   2.118  0.7905 -0.2384  0.1817
 6859TIP3   OH241991   1.850   3.825   1.702  0.2642 -0.3216 -0.3426
 6859TIP3    H141992   1.790   3.829   1.777  0.8565  0.8891  0.0727
 6859TIP3    H241993   1.882   3.914   1.692 -0.4674 -0.2893 -2.6058
 6860TIP3   OH241994   3.788   6.358   3.660  0.3789 -0.1568  0.3635
 6860TIP3    H141995   3.755   6.348   3.750 -0.5398  2.8854  0.4170
 6860TIP3    H241996   3.868   6.410   3.670  0.0648  0.5179 -0.6061
 6861TIP3   OH241997   2.292   1.321  12.835  0.5354  0.4303  0.1266
 6861TIP3    H141998   2.343   1.384  12.886 -0.6401  0.8755  0.7984
 6861TIP3    H241999   2.203   1.328  12.871  0.1478 -0.8198 -0.5381
 6862TIP3   OH242000   3.067   0.043  15.191  0.0419 -0.1331 -0.4751
 6862TIP3    H142001   3.105   0.123  15.227 -0.1534 -0.9974  1.6928
 6862TIP3    H242002   2.975   0.045  15.217  0.5122 -2.0856  1.5084
 6863TIP3   OH242003   0.675   2.646   2.413  0.1110 -0.6742  0.4186
 6863TIP3    H142004   0.699   2.578   2.350 -2.0182 -0.2307 -0.9215
 6863TIP3    H242005   0.708   2.727   2.375 -2.1700 -0.2454 -0.7749
 6864TIP3   OH242006   2.262   5.685   3.016 -0.3088 -0.6583 -0.8042
 6864TIP3    H142007   2.184   5.714   2.969 -0.1755 -1.5602 -1.5877
 6864TIP3    H242008   2.336   5.719   2.964 -0.1709  0.4139  0.0730
 6865TIP3   OH242009   0.392   0.299   0.229 -0.3615  0.2905  0.0773
 6865TIP3    H142010   0.372   0.383   0.185  0.9429  0.3751 -0.3764
 6865TIP3    H242011   0.370   0.233   0.163 -0.4934  0.3115  0.0985
 6866TIP3   OH242012   0.921   3.917   3.764 -0.0978 -0.0476  0.2988
 6866TIP3    H142013   0.934   3.907   3.858 -0.1064  3.0335  0.6651
 6866TIP3    H242014   0.967   3.842   3.725  0.4633 -0.9868  2.6917
 6867TIP3   OH242015   5.013   5.605   4.400  0.2332 -0.1890  0.7199
 6867TIP3    H142016   4.934   5.567   4.364 -0.5445  2.0934 -0.0416
 6867TIP3    H242017   4.991   5.625   4.491  0.4434 -0.9609  0.9443
 6868TIP3   OH242018   5.765   0.714   4.088  0.0256  0.3909  0.1557
 6868TIP3    H142019   5.813   0.782   4.136  1.0089  0.7253 -1.2772
 6868TIP3    H242020   5.743   0.649   4.155  1.3239  0.8798  1.0798
 6869TIP3   OH242021   6.380   6.588  14.064 -0.1765  0.1613 -0.1755
 6869TIP3    H142022   6.299   6.555  14.025 -2.0236  0.9456  2.8461
 6869TIP3    H242023   6.373   6.683  14.055  0.9815  0.1820 -0.9476
 6870TIP3   OH242024   3.461   0.338  11.369  0.2414 -0.0382 -0.6517
 6870TIP3    H142025   3.535   0.396  11.351 -0.0613  0.0448 -1.6937
 6870TIP3    H242026   3.398   0.392  11.417  0.9040 -0.1412  0.3373
 6871TIP3   OH242027   5.140   0.311  11.337  0.4122 -0.0679 -0.2472
 6871TIP3    H142028   5.162   0.306  11.244 -0.5224 -0.4194 -0.4552
 6871TIP3    H242029   5.080   0.385  11.344 -0.0118 -0.4280 -0.0258
 6872TIP3   OH242030   4.266   6.177  15.117  0.4832  0.0170  0.0320
 6872TIP3    H142031   4.241   6.085  15.112  0.0827  0.1227  0.0320
 6872TIP3    H242032   4.183   6.224  15.125  0.7421  0.2954  1.1934
 6873TIP3   OH242033   3.639   3.658  11.759 -0.2012  0.0152 -0.3897
 6873TIP3    H142034   3.633   3.753  11.758  2.8999  0.3070  1.2649
 6873TIP3    H242035   3.558   3.629  11.801 -0.2142  2.0722  1.0673
 6874TIP3   OH242036   5.788   5.860   3.181 -0.2920  0.0830  0.4710
 6874TIP3    H142037   5.816   5.846   3.091 -1.1547  1.0464  0.0416
 6874TIP3    H242038   5.867   5.890   3.226 -0.5165  2.5316 -0.6681
 6875TIP3   OH242039   4.335   1.156  13.826 -0.4149 -0.0467 -0.2607
 6875TIP3    H142040   4.288   1.237  13.808 -3.2080 -1.3282  0.9479
 6875TIP3    H242041   4.312   1.098  13.754  0.6890 -0.1548 -0.5373
 6876TIP3   OH242042   0.132   1.088   0.209 -0.5729 -0.0743  0.2376
 6876TIP3    H142043   0.213   1.068   0.257  0.1238 -0.5803 -1.1069
 6876TIP3    H242044   0.162   1.111   0.121 -1.8087  1.1879  0.1360
 6877TIP3   OH242045   2.011   5.702  15.564 -0.2994  0.3056 -0.9643
 6877TIP3    H142046   2.001   5.775  15.503 -1.1550 -0.2907 -1.5369
 6877TIP3    H242047   1.927   5.695  15.608  0.1229  0.3454 -0.1359
 6878TIP3   OH242048   6.192   2.878  13.344  0.6817  0.5714 -0.6048
 6878TIP3    H142049   6.155   2.966  13.348 -0.3336  0.0623  2.2480
 6878TIP3    H242050   6.258   2.877  13.413  2.1458 -0.2801 -1.9896
 6879TIP3   OH242051   3.639   5.589  15.816 -0.2894  1.0746 -0.0883
 6879TIP3    H142052   3.594   5.654  15.761 -1.5272  0.3955  0.0988
 6879TIP3    H242053   3.642   5.511  15.762  1.0863  1.2373 -0.2616
 6880TIP3   OH242054   4.454   2.186  14.189  0.4122  0.1039  0.0164
 6880TIP3    H142055   4.448   2.139  14.272  1.0084  1.8804  1.0899
 6880TIP3    H242056   4.364   2.207  14.167  0.4483  2.0380  1.6423
 6881TIP3   OH242057   2.386   6.153   4.390 -0.1716  0.2734  0.8749
 6881TIP3    H142058   2.421   6.127   4.475  1.0567 -0.9197  0.0350
 6881TIP3    H242059   2.451   6.214   4.355  0.5127 -1.0107 -0.1703
 6882TIP3   OH242060   3.196   4.831   0.016 -0.8148  0.0488 -0.3864
 6882TIP3    H142061   3.112   4.839   0.061 -0.8069  0.0123 -0.3653
 6882TIP3    H242062   3.193   4.744  -0.024 -0.5733 -0.1561  0.0497
 6883TIP3   OH242063   2.879   3.745  13.274  0.5993  0.1574 -0.4411
 6883TIP3    H142064   2.877   3.785  13.188 -0.9134 -0.7773 -0.8682
 6883TIP3    H242065   2.971   3.724  13.289  1.2982  3.0294 -0.5206
 6884TIP3   OH242066   2.194   6.453  14.290  0.0195 -0.3691  0.0903
 6884TIP3    H142067   2.221   6.467  14.199 -1.0243 -1.0279 -0.3257
 6884TIP3    H242068   2.191   6.358  14.300  0.2052 -0.2991  0.8430
 6885TIP3   OH242069   4.167   1.171   6.198  0.1384  0.4745  0.4433
 6885TIP3    H142070   4.221   1.105   6.241 -1.1131  0.4673  2.0475
 6885TIP3    H242071   4.168   1.245   6.258 -0.9371  0.7769  0.0959
 6886TIP3   OH242072   3.138   1.874   5.353 -0.4472  0.2161  0.0548
 6886TIP3    H142073   3.092   1.826   5.422  0.3014 -0.6588 -0.0364
 6886TIP3    H242074   3.069   1.898   5.291 -0.8857 -0.5108  0.2474
 6887TIP3   OH242075   2.910   6.327  14.123  0.2603  0.2905  0.1525
 6887TIP3    H142076   2.820   6.350  14.099  0.4332  0.6789 -0.1235
 6887TIP3    H242077   2.914   6.342  14.218  0.6281  2.2594 -0.1607
 6888TIP3   OH242078   2.957   0.281   1.006  0.4349  0.0227  0.4258
 6888TIP3    H142079   2.883   0.337   0.981  0.3802 -0.1577  0.1838
 6888TIP3    H242080   3.024   0.343   1.036  0.5253  0.2485 -0.2312
 6889TIP3   OH242081   5.536   5.496  15.729  0.1030  0.3578  0.3088
 6889TIP3    H142082   5.579   5.477  15.813 -0.3748  1.5201  0.8261
 6889TIP3    H242083   5.481   5.419  15.712  0.2244  0.1066  1.0402
 6890TIP3   OH242084   4.134   5.905   0.213 -0.5224 -0.1486 -0.4474
 6890TIP3    H142085   4.091   5.954   0.283 -0.2188 -3.0707  1.8803
 6890TIP3    H242086   4.224   5.940   0.212 -0.6727  0.2668  0.2290
 6891TIP3   OH242087   6.454   1.916  16.531 -0.2896  0.0844 -0.6732
 6891TIP3    H142088   6.541   1.944  16.503  0.4474 -0.0834  1.4131
 6891TIP3    H242089   6.394   1.965  16.474  1.1384  0.3377 -1.9982
 6892TIP3   OH242090   1.105   4.156  16.399 -0.0792 -0.1353 -0.1201
 6892TIP3    H142091   1.162   4.080  16.397 -0.4142 -0.3751 -0.9597
 6892TIP3    H242092   1.117   4.193  16.486 -0.2635 -1.4062  0.4520
 6893TIP3   OH242093   6.397   6.382  16.138 -0.4366  0.1131 -0.1307
 6893TIP3    H142094   6.305   6.368  16.116 -0.1897 -1.8553 -0.0296
 6893TIP3    H242095   6.399   6.382  16.233 -0.3254  0.1008 -0.1317
 6894TIP3   OH242096   5.963   2.968  16.213  0.1158  0.1897 -0.1851
 6894TIP3    H142097   6.015   2.982  16.293  0.1284  0.7446 -0.2874
 6894TIP3    H242098   5.982   3.045  16.159 -0.3522  0.1001 -0.4761
 6895TIP3   OH242099   6.087   6.166  13.928 -0.2946  0.1223  0.6512
 6895TIP3    H142100   6.013   6.138  13.982 -0.5197  0.1459  0.3587
 6895TIP3    H242101   6.162   6.119  13.963 -0.9536 -2.1587 -0.8961
 6896TIP3   OH242102   3.454   6.649  14.014  0.3320 -0.0231 -0.1276
 6896TIP3    H142103   3.547   6.660  14.031  0.1194 -1.5350  2.2233
 6896TIP3    H242104   3.414   6.645  14.101 -1.6942 -1.2736 -1.0779
 6897TIP3   OH242105   4.833   5.388  15.229 -0.1094  0.8395  0.1759
 6897TIP3    H142106   4.791   5.449  15.289  0.5243  0.8032  0.6616
 6897TIP3    H242107   4.760   5.339  15.190 -0.4634 -0.2552  2.1199
 6898TIP3   OH242108   4.608   4.897   5.263 -0.2977  0.5409  0.1038
 6898TIP3    H142109   4.658   4.932   5.189  0.9169 -1.4030 -0.0236
 6898TIP3    H242110   4.558   4.825   5.227 -2.2662  1.6659  0.5122
 6899TIP3   OH242111   4.406   5.832   6.266  0.3839  0.1663 -0.0378
 6899TIP3    H142112   4.431   5.901   6.328 -0.8099  0.0965  0.5422
 6899TIP3    H242113   4.312   5.843   6.255  0.3921 -0.5816 -0.9328
 6900TIP3   OH242114   4.535   4.758   5.834  0.0459  0.4697 -0.0677
 6900TIP3    H142115   4.555   4.820   5.903 -1.2423 -0.3030  1.0422
 6900TIP3    H242116   4.588   4.681   5.855 -2.1221 -0.6519  1.4573
 6901TIP3   OH242117   4.263   5.882   3.401 -0.5413 -0.2480  0.9558
 6901TIP3    H142118   4.300   5.818   3.340 -0.9750 -0.5256  0.9781
 6901TIP3    H242119   4.170   5.883   3.381 -0.4066  0.9998  0.3996
 6902TIP3   OH242120   2.377   2.922  12.208 -0.6976 -0.1086  0.0653
 6902TIP3    H142121   2.286   2.908  12.183 -0.6995  0.4563 -0.2434
 6902TIP3    H242122   2.426   2.915  12.126 -0.6144  0.9161  0.0158
 6903TIP3   OH242123   1.578   5.334   1.272  0.3469 -0.2540 -0.4633
 6903TIP3    H142124   1.651   5.274   1.253  0.8268  0.6297 -1.4696
 6903TIP3    H242125   1.520   5.325   1.197  0.7928  1.0904 -0.9748
 6904TIP3   OH242126   6.232   2.749   6.089 -0.7455  0.3080 -0.2240
 6904TIP3    H142127   6.196   2.691   6.156  0.6298  0.2178  0.4641
 6904TIP3    H242128   6.226   2.837   6.127 -0.3689  0.3066 -0.1548
 6905TIP3   OH242129   3.465   3.098   0.573 -0.9424 -0.1334  0.4124
 6905TIP3    H142130   3.492   3.017   0.616  0.8553 -0.3483 -1.0897
 6905TIP3    H242131   3.401   3.071   0.507  1.0074 -0.5869 -1.3373
 6906TIP3   OH242132   4.534   6.171   5.578  0.1688 -0.5948  0.5611
 6906TIP3    H142133   4.536   6.089   5.627  0.9944 -0.3541  0.9369
 6906TIP3    H242134   4.457   6.163   5.521  1.2452 -2.3934 -0.7105
 6907TIP3   OH242135   1.635   1.520  14.981  0.2934 -0.3854  0.2466
 6907TIP3    H142136   1.615   1.428  14.964  0.6655 -0.0883 -2.0026
 6907TIP3    H242137   1.703   1.542  14.917 -0.0182  1.5430  0.5365
 6908TIP3   OH242138   5.611   4.743   1.457 -0.6996  0.1902 -0.1989
 6908TIP3    H142139   5.694   4.699   1.475 -1.7237 -2.0534 -0.7868
 6908TIP3    H242140   5.618   4.769   1.365 -0.3202  0.7764 -0.0089
 6909TIP3   OH242141   4.298   0.263   0.040  0.2271  0.6038  0.3396
 6909TIP3    H142142   4.246   0.298  -0.032  1.9242  0.1570 -1.1154
 6909TIP3    H242143   4.254   0.297   0.119 -2.5217 -0.1421 -0.8101
 6910TIP3   OH242144   6.570   6.157  15.331  0.4075 -0.0963  0.2406
 6910TIP3    H142145   6.627   6.080  15.322 -0.1252 -0.2751 -2.0251
 6910TIP3    H242146   6.617   6.227  15.285 -0.2868  0.2799  0.1075
 6911TIP3   OH242147   1.405   4.870  17.219 -0.3579 -0.1993  1.0618
 6911TIP3    H142148   1.343   4.932  17.256 -1.2186  1.4640 -2.9385
 6911TIP3    H242149   1.351   4.797  17.187 -0.1105  0.2848 -0.5367
 6912TIP3   OH242150   4.292   0.708  16.343  0.4980 -0.3155  0.1117
 6912TIP3    H142151   4.197   0.715  16.340  0.5437  0.3930  0.1723
 6912TIP3    H242152   4.324   0.787  16.298  1.0505 -0.1094  0.8346
 6913TIP3   OH242153   4.591   0.774  14.121  0.0091  0.0936 -0.3193
 6913TIP3    H142154   4.585   0.865  14.150 -1.4537 -0.6658  1.8527
 6913TIP3    H242155   4.662   0.737  14.173 -0.1455 -0.3064 -0.3891
 6914TIP3   OH242156   4.802   0.561  16.867  0.1106 -0.2940 -0.2372
 6914TIP3    H142157   4.874   0.525  16.815  1.0958 -0.9144  1.5042
 6914TIP3    H242158   4.771   0.487  16.918 -0.9372  0.2775 -0.0283
 6915TIP3   OH242159   5.945   6.252  13.008 -0.2686 -0.1702 -0.4061
 6915TIP3    H142160   5.867   6.248  13.063 -0.9272  1.9106 -1.1655
 6915TIP3    H242161   5.998   6.322  13.047  0.3391 -0.2832 -1.0207
 6916TIP3   OH242162   0.788   0.315   1.368  0.2215  0.2056  0.3316
 6916TIP3    H142163   0.836   0.233   1.373  0.4195  0.2263 -1.0424
 6916TIP3    H242164   0.736   0.317   1.448  0.8796 -0.8365  0.7964
 6917TIP3   OH242165   2.318   2.349  14.533 -0.1314  0.0608  0.3262
 6917TIP3    H142166   2.330   2.356  14.627  0.4347 -2.0321  0.4178
 6917TIP3    H242167   2.238   2.400  14.515 -0.6466 -0.1454  2.0118
 6918TIP3   OH242168   5.798   3.476  13.436 -0.0299 -0.7944 -0.0033
 6918TIP3    H142169   5.830   3.415  13.370 -0.7416 -1.3490  0.1581
 6918TIP3    H242170   5.702   3.467  13.432 -0.1146 -0.0316  0.3406
 6919TIP3   OH242171   3.427   1.255   1.433 -0.7654  0.3563  1.0381
 6919TIP3    H142172   3.419   1.170   1.389  0.2273  0.6758  0.2461
 6919TIP3    H242173   3.346   1.262   1.485 -1.0588 -0.8722  0.7696
 6920TIP3   OH242174   5.346   4.752   2.711 -0.0415  0.4131 -0.4864
 6920TIP3    H142175   5.256   4.751   2.679 -0.0067 -2.4551 -0.5713
 6920TIP3    H242176   5.395   4.799   2.643 -1.1678  0.5117 -1.2422
 6921TIP3   OH242177   5.810   4.379  12.538 -0.2205 -0.1977  0.1601
 6921TIP3    H142178   5.827   4.327  12.617 -1.1630  0.0351  0.5193
 6921TIP3    H242179   5.722   4.352  12.510 -2.2783  3.7534  2.3837
 6922TIP3   OH242180   5.285   5.367   4.598 -0.5301 -0.7235 -0.6017
 6922TIP3    H142181   5.280   5.461   4.610 -0.6302 -0.7802 -0.1763
 6922TIP3    H242182   5.346   5.354   4.526  0.2831 -0.3809  0.0269
 6923TIP3   OH242183   2.935   5.859  12.446 -0.2541  0.5439  0.3559
 6923TIP3    H142184   2.998   5.818  12.386  0.9025  1.8645  0.6247
 6923TIP3    H242185   2.866   5.892  12.389 -0.9627 -1.3147  0.0922
 6924TIP3   OH242186   5.858   5.839   5.113 -0.0138  0.0768 -0.5624
 6924TIP3    H142187   5.930   5.853   5.174  0.2281 -0.9821 -0.5998
 6924TIP3    H242188   5.816   5.925   5.106  0.1604  0.2916  0.8280
 6925TIP3   OH242189   5.233   2.572   6.070 -0.2091 -0.4704  0.0310
 6925TIP3    H142190   5.200   2.505   6.010 -0.7007  0.1195 -0.3670
 6925TIP3    H242191   5.328   2.569   6.061 -0.1211 -2.2561  1.2474
 6926TIP3   OH242192   2.204   5.871   1.197  0.5833 -0.0108 -0.3140
 6926TIP3    H142193   2.277   5.851   1.139 -0.1931 -1.4128 -0.8371
 6926TIP3    H242194   2.199   5.795   1.256 -0.0305  0.3778  0.1427
 6927TIP3   OH242195   0.478   3.750  16.346  0.4782 -0.1194 -0.5395
 6927TIP3    H142196   0.472   3.720  16.256 -1.1458 -0.4982 -0.3155
 6927TIP3    H242197   0.424   3.689  16.396  2.0488 -0.4345  0.8429
 6928TIP3   OH242198   6.626   6.164   3.539  0.6365 -0.3972 -0.8399
 6928TIP3    H142199   6.586   6.243   3.504 -0.1508 -0.5733 -0.3370
 6928TIP3    H242200   6.595   6.094   3.481  1.2390 -0.3630 -1.2144
 6929TIP3   OH242201   0.630   6.643   5.221 -0.6899  0.0992 -0.1089
 6929TIP3    H142202   0.671   6.660   5.306 -0.4952  0.7343 -0.3321
 6929TIP3    H242203   0.556   6.585   5.242 -0.9538  0.6712  0.5568
 6930TIP3   OH242204   5.680   1.475   5.286 -0.1768 -0.0017 -0.2063
 6930TIP3    H142205   5.759   1.449   5.333  0.2093  0.9573 -0.3187
 6930TIP3    H242206   5.610   1.426   5.329  0.2394  0.4631  1.0383
 6931TIP3   OH242207   1.870   2.456  11.042  0.8901  0.1720 -0.5742
 6931TIP3    H142208   1.962   2.483  11.036  0.1990  2.5953 -1.1479
 6931TIP3    H242209   1.873   2.363  11.062  3.4739  0.2714 -0.3214
 6932TIP3   OH242210   0.360   2.714   5.551 -0.2177  0.0183 -0.1331
 6932TIP3    H142211   0.329   2.800   5.579 -2.2271 -1.0556  1.0814
 6932TIP3    H242212   0.283   2.657   5.557  1.0242 -1.8388 -1.0599
 6933TIP3   OH242213   5.878   3.493   0.750  0.0643 -0.3597  0.2733
 6933TIP3    H142214   5.815   3.473   0.819 -1.2067  0.4662 -0.6153
 6933TIP3    H242215   5.957   3.521   0.797 -0.7633  0.1557  1.3866
 6934TIP3   OH242216   3.051   3.460  14.471  0.3658 -0.4873 -0.4329
 6934TIP3    H142217   3.113   3.499  14.410 -1.5460  1.1184 -1.4113
 6934TIP3    H242218   3.035   3.372  14.436  0.5505 -0.1697 -1.3321
 6935TIP3   OH242219   5.170   1.663   3.452  0.6448 -0.2827 -0.0506
 6935TIP3    H142220   5.157   1.573   3.422  1.9592 -0.3428 -0.4585
 6935TIP3    H242221   5.147   1.661   3.545  1.0752 -1.1276  0.0394
 6936TIP3   OH242222   3.559   4.743   1.927  0.4175  0.5087 -0.1417
 6936TIP3    H142223   3.576   4.725   1.835  0.6803  0.5933 -0.1107
 6936TIP3    H242224   3.505   4.822   1.926  1.2951  1.1125 -0.1863
 6937TIP3   OH242225   1.896   1.152   3.718  0.5058  0.0592  0.2305
 6937TIP3    H142226   1.915   1.061   3.696  3.2934  0.6122  0.1704
 6937TIP3    H242227   1.911   1.158   3.812 -0.4360  0.2932  0.3741
 6938TIP3   OH242228   4.873   2.204   0.445 -0.2173  0.0551  0.7147
 6938TIP3    H142229   4.884   2.278   0.505  1.6691  1.1675 -0.9206
 6938TIP3    H242230   4.797   2.228   0.391  0.7863  1.1589 -0.2494
 6939TIP3   OH242231   5.768   1.236  16.791 -0.2741  0.1866 -0.6683
 6939TIP3    H142232   5.839   1.279  16.838  0.2895 -0.7359 -0.6627
 6939TIP3    H242233   5.688   1.279  16.823  0.2874  1.3729 -0.8456
 6940TIP3   OH242234   0.965   5.228   1.358  0.0265 -0.3748 -0.4922
 6940TIP3    H142235   0.932   5.288   1.292  2.6082 -0.1448 -1.6127
 6940TIP3    H242236   0.907   5.152   1.353 -1.3007  0.6800 -1.2797
 6941TIP3   OH242237   3.540   3.656  14.813  0.0008  0.3094 -0.4158
 6941TIP3    H142238   3.574   3.568  14.798  0.3032  0.2708  0.4397
 6941TIP3    H242239   3.470   3.666  14.749 -2.0706 -1.7150  1.3967
 6942TIP3   OH242240   3.193   2.909   5.534  0.2394  0.5487 -0.6005
 6942TIP3    H142241   3.168   2.994   5.569  0.7286  1.3180 -2.0673
 6942TIP3    H242242   3.184   2.919   5.439 -0.3635 -1.2465 -0.7519
 6943TIP3   OH242243   6.731   0.582  13.253 -0.2358 -0.0117  0.6967
 6943TIP3    H142244   6.688   0.604  13.170 -0.5662  0.8775  1.1035
 6943TIP3    H242245   6.693   0.497  13.276 -2.3683  1.0959  1.4230
 6944TIP3   OH242246   2.920   1.171  12.661 -1.0318 -0.5328 -0.2929
 6944TIP3    H142247   2.948   1.262  12.652 -1.3060 -0.5716 -1.6269
 6944TIP3    H242248   3.002   1.122  12.671 -0.9254 -0.0580  1.3522
 6945TIP3   OH242249   5.228   5.298  12.570  1.0835  0.0322  0.0715
 6945TIP3    H142250   5.139   5.273  12.597  1.2428  0.0029  0.5871
 6945TIP3    H242251   5.222   5.310  12.476  0.1776  1.4927  0.2961
 6946TIP3   OH242252   0.499   1.079  15.365  0.1527 -0.8847 -0.5001
 6946TIP3    H142253   0.521   1.136  15.439  3.6628 -0.2698 -1.8918
 6946TIP3    H242254   0.550   1.000  15.379 -1.1609 -1.8241 -0.9447
 6947TIP3   OH242255   3.188   3.384  13.928 -0.2067  0.1730 -0.5971
 6947TIP3    H142256   3.110   3.331  13.911 -0.1755 -0.3767  0.8839
 6947TIP3    H242257   3.158   3.474  13.921 -0.6926 -0.0343 -1.2540
 6948TIP3   OH242258   5.731   3.681   5.379 -0.8205  0.1358 -0.1041
 6948TIP3    H142259   5.759   3.645   5.294  1.4208  2.2372 -0.3052
 6948TIP3    H242260   5.796   3.648   5.441 -2.2539 -1.1079  0.7777
 6949TIP3   OH242261   2.593   4.593   5.914  0.5772 -0.3078 -0.4475
 6949TIP3    H142262   2.642   4.663   5.957  0.1640 -0.8974  1.0307
 6949TIP3    H242263   2.620   4.514   5.960 -0.7603 -0.8029 -0.5042
 6950TIP3   OH242264   2.793   5.286  13.341 -0.5010  0.6928 -0.3193
 6950TIP3    H142265   2.825   5.232  13.269  1.4447  2.0346 -0.4801
 6950TIP3    H242266   2.865   5.288  13.404 -2.3938 -0.9765  2.0056
 6951TIP3   OH242267   3.867   3.369   3.345 -0.3705 -0.1424 -0.0894
 6951TIP3    H142268   3.856   3.464   3.338 -1.1143 -0.2729 -0.8388
 6951TIP3    H242269   3.961   3.356   3.342 -0.2798  0.5447 -0.4606
 6952TIP3   OH242270   2.512   0.904  15.424 -0.0523 -0.0883  0.2745
 6952TIP3    H142271   2.426   0.930  15.457  0.0106 -0.4720  0.7442
 6952TIP3    H242272   2.574   0.938  15.489  0.1467  0.0829 -0.0019
 6953TIP3   OH242273   2.645   2.125   3.680 -0.3987  0.0989  0.2931
 6953TIP3    H142274   2.638   2.205   3.628 -1.3912  0.6069  1.1706
 6953TIP3    H242275   2.719   2.141   3.739 -0.4703  0.3066  0.3294
 6954TIP3   OH242276   0.915   5.298   4.404  0.0697 -0.3903 -0.6568
 6954TIP3    H142277   0.831   5.321   4.444 -0.4627  0.8930 -2.4923
 6954TIP3    H242278   0.966   5.261   4.477 -1.5730  0.0901  0.7775
 6955TIP3   OH242279   1.716   6.509   1.788 -0.0025 -0.1071 -0.4570
 6955TIP3    H142280   1.676   6.590   1.759  1.3757 -0.0699 -2.3284
 6955TIP3    H242281   1.665   6.440   1.747  0.2415 -0.1342 -0.7117
 6956TIP3   OH242282   0.806   0.577   1.316  0.3936 -0.3817 -0.3944
 6956TIP3    H142283   0.790   0.484   1.332  3.4698 -1.0554 -0.8650
 6956TIP3    H242284   0.825   0.613   1.402 -0.8409 -0.1604 -0.2059
 6957TIP3   OH242285   1.201   5.954  14.971  0.1641 -0.3291  0.5441
 6957TIP3    H142286   1.184   5.915  15.057 -0.7829  0.9360  0.9514
 6957TIP3    H242287   1.204   6.048  14.988 -2.1843  0.1121 -1.1247
 6958TIP3   OH242288   1.776   5.757   1.541  0.1440  0.4004 -0.6094
 6958TIP3    H142289   1.741   5.672   1.514  2.0719 -0.3233 -0.8721
 6958TIP3    H242290   1.871   5.748   1.535  0.5464  1.3586  2.9527
 6959TIP3   OH242291   6.643   3.931  15.164  0.3300  0.0875  0.3602
 6959TIP3    H142292   6.719   3.956  15.216  1.5453 -0.1494 -1.2802
 6959TIP3    H242293   6.586   3.886  15.227  2.1094 -0.8755  1.3302
 6960TIP3   OH242294   4.889   3.098  16.016  0.3345 -0.0409  0.0491
 6960TIP3    H142295   4.803   3.059  16.027 -0.5108  1.1641 -1.8426
 6960TIP3    H242296   4.875   3.192  16.029  1.5508  0.0710  0.6514
 6961TIP3   OH242297   5.224   5.391  17.090  0.2563  0.2078  0.4298
 6961TIP3    H142298   5.191   5.308  17.054 -0.6012  1.0401 -0.7220
 6961TIP3    H242299   5.213   5.381  17.185 -1.9904 -0.1071  0.1625
 6962TIP3   OH242300   6.550   1.274   0.103 -0.3729  0.0390 -0.4136
 6962TIP3    H142301   6.487   1.232   0.045 -0.3191 -1.8981  0.8759
 6962TIP3    H242302   6.628   1.287   0.049 -0.8818 -0.2593 -1.2252
 6963TIP3   OH242303   5.079   5.123  17.105  0.4443 -0.3838  0.5823
 6963TIP3    H142304   5.073   5.044  17.051 -1.5653 -0.9632  1.5686
 6963TIP3    H242305   5.151   5.105  17.165  2.8800  0.3910 -2.0269
 6964TIP3   OH242306   2.447   3.905  11.615 -0.4210 -0.0556  0.2216
 6964TIP3    H142307   2.473   3.986  11.570  0.6775 -1.0588 -0.9853
 6964TIP3    H242308   2.513   3.893  11.683 -1.1631  0.5979  1.0635
 6965TIP3   OH242309   2.658   1.260  11.644  0.2331 -0.1764 -0.5741
 6965TIP3    H142310   2.719   1.334  11.644  0.2393 -0.1843  0.5033
 6965TIP3    H242311   2.715   1.183  11.647  0.2268 -0.2391 -1.6940
 6966TIP3   OH242312   2.419   6.336   1.288  0.2198 -0.1297  0.2654
 6966TIP3    H142313   2.512   6.313   1.287  0.3996  0.6139 -0.1526
 6966TIP3    H242314   2.388   6.314   1.200  0.4281  1.3623 -0.1853
 6967TIP3   OH242315   4.380   4.839  14.424  0.0292  0.4025 -0.9667
 6967TIP3    H142316   4.470   4.819  14.400 -0.1040 -0.2433 -0.9327
 6967TIP3    H242317   4.327   4.782  14.367 -0.3113 -0.7456  0.4901
 6968TIP3   OH242318   3.347   0.349   0.868 -0.1585  0.3747  0.3949
 6968TIP3    H142319   3.315   0.323   0.954  0.3995 -2.3706 -0.1755
 6968TIP3    H242320   3.278   0.322   0.808 -0.3264  1.8294 -0.0714
 6969TIP3   OH242321   5.818   0.853   5.658 -0.5585 -0.5602 -0.3724
 6969TIP3    H142322   5.755   0.854   5.585 -0.9255  0.7953 -0.0504
 6969TIP3    H242323   5.768   0.887   5.733  0.4579  0.2172 -0.0393
 6970TIP3   OH242324   1.550   0.714  13.142  0.1173 -0.1810  0.3022
 6970TIP3    H142325   1.567   0.784  13.079  0.8516 -0.2408  0.4314
 6970TIP3    H242326   1.560   0.756  13.227 -1.4971  0.0546  0.3967
 6971TIP3   OH242327   3.138   5.803   1.839 -0.2744 -0.5229  0.1241
 6971TIP3    H142328   3.218   5.776   1.795  1.2368  0.8680  1.9272
 6971TIP3    H242329   3.160   5.802   1.932 -2.6513 -1.0328  0.7260
 6972TIP3   OH242330   3.338   4.623   2.672  0.4165  0.3866 -0.2970
 6972TIP3    H142331   3.318   4.716   2.660  0.5046  0.4696  0.1562
 6972TIP3    H242332   3.286   4.578   2.607  0.2112  0.7420 -0.3791
 6973TIP3   OH242333   2.764   2.829  16.553  0.4826 -0.2123  0.1090
 6973TIP3    H142334   2.711   2.852  16.630  2.1804  0.5708  1.0646
 6973TIP3    H242335   2.773   2.734  16.557 -0.7167 -0.3368  0.0210
 6974TIP3   OH242336   0.711   0.163  15.318 -0.1594  0.2191  0.2264
 6974TIP3    H142337   0.720   0.124  15.405  2.1101 -1.5520 -0.7587
 6974TIP3    H242338   0.680   0.092  15.262  1.3906  0.5270 -1.0425
 6975TIP3   OH242339   4.461   2.515   5.029 -0.3033 -0.3433  0.0085
 6975TIP3    H142340   4.504   2.597   5.050  0.9974 -1.2902  1.1365
 6975TIP3    H242341   4.384   2.513   5.085 -0.2094  0.0022  0.1506
 6976TIP3   OH242342   5.191   4.453   4.827  0.3740 -0.1671  0.0450
 6976TIP3    H142343   5.182   4.474   4.920 -0.4983 -1.6863  0.3230
 6976TIP3    H242344   5.266   4.394   4.823  0.5647  0.0962 -0.2450
 6977TIP3   OH242345   5.285   1.187  13.363 -0.2593 -0.4522  0.5119
 6977TIP3    H142346   5.235   1.225  13.436  0.8011  1.8025  0.1094
 6977TIP3    H242347   5.372   1.227  13.371 -0.3097  0.3072 -2.3379
 6978TIP3   OH242348   2.683   1.748   0.844  0.0834  0.3866 -0.3903
 6978TIP3    H142349   2.602   1.745   0.894  0.9326  0.3792  0.9959
 6978TIP3    H242350   2.670   1.685   0.773 -1.9516  1.9697 -1.4522
 6979TIP3   OH242351   1.857   2.569   3.841 -0.8506 -0.1955  0.6368
 6979TIP3    H142352   1.916   2.494   3.837  1.1753  1.4468 -2.2920
 6979TIP3    H242353   1.802   2.552   3.917  1.4355 -3.2407  1.7289
 6980TIP3   OH242354   2.401   4.888   3.020 -0.2027  0.3518  0.5589
 6980TIP3    H142355   2.310   4.904   3.045  0.1370 -1.1796  2.9619
 6980TIP3    H242356   2.396   4.823   2.950 -0.9565  0.1992  0.7528
 6981TIP3   OH242357   0.104   1.128   4.528  0.1593  0.0736 -0.2720
 6981TIP3    H142358   0.019   1.168   4.508  0.3607 -0.3709 -2.1080
 6981TIP3    H242359   0.102   1.114   4.623 -0.5957  2.8341  0.1469
 6982TIP3   OH242360   1.079   2.693   5.167 -0.3208  0.2011 -0.3573
 6982TIP3    H142361   1.004   2.633   5.166  0.4767 -0.8579  0.7608
 6982TIP3    H242362   1.148   2.645   5.122  0.2666  0.3561  0.3637
 6983TIP3   OH242363   6.301   0.771  16.561  0.0915  0.3608 -0.3572
 6983TIP3    H142364   6.353   0.820  16.498 -0.8287  0.5470 -0.9786
 6983TIP3    H242365   6.357   0.698  16.586  1.3111  1.4837  0.2649
 6984TIP3   OH242366   5.744   3.668   4.113 -0.1738 -0.3030  0.2194
 6984TIP3    H142367   5.724   3.760   4.131  1.7878  0.5265 -1.5776
 6984TIP3    H242368   5.751   3.627   4.199 -0.8799  1.2620  1.0390
 6985TIP3   OH242369   0.950   4.901  11.194  0.2633 -0.0867  0.4226
 6985TIP3    H142370   0.988   4.835  11.136  4.5223  0.9338  1.8590
 6985TIP3    H242371   0.899   4.958  11.136 -1.0786 -2.8887 -1.2449
 6986TIP3   OH242372   6.761   5.694   6.247 -0.1772 -0.5490  0.0093
 6986TIP3    H142373   6.700   5.662   6.181  0.6726  0.5969 -1.3517
 6986TIP3    H242374   6.715   5.766   6.290  0.2592  0.4224 -1.1283
 6987TIP3   OH242375   6.608   1.915   4.528 -0.6480 -0.2730  0.8056
 6987TIP3    H142376   6.669   1.955   4.590  0.2555 -0.6555  0.1685
 6987TIP3    H242377   6.637   1.946   4.442 -0.8447 -1.1131  0.4305
 6988TIP3   OH242378   4.547   5.837   0.113  0.5167 -0.6740 -0.2745
 6988TIP3    H142379   4.557   5.809   0.022  0.9426 -0.6917 -0.2207
 6988TIP3    H242380   4.634   5.827   0.151  1.0776  2.2347 -0.6918
 6989TIP3   OH242381   2.372   1.733  16.867  0.4447  0.0652  0.3568
 6989TIP3    H142382   2.345   1.802  16.928  1.0532 -0.4975  1.2741
 6989TIP3    H242383   2.377   1.654  16.921  0.0782 -0.6364 -0.6208
 6990TIP3   OH242384   5.682   2.538   0.971 -0.5107  0.0231 -0.1187
 6990TIP3    H142385   5.712   2.457   1.012  1.0454  1.1572  1.0508
 6990TIP3    H242386   5.624   2.510   0.901 -0.4980 -2.0752  0.6893
 6991TIP3   OH242387   5.236   2.707  11.589 -0.6421  0.2160  0.3759
 6991TIP3    H142388   5.158   2.653  11.585 -0.2882 -0.2378 -0.3436
 6991TIP3    H242389   5.297   2.667  11.528  1.1223 -0.9547  2.8185
 6992TIP3   OH242390   2.943   4.564   4.772 -0.2405  0.5530 -0.0899
 6992TIP3    H142391   2.983   4.505   4.836  1.9617  0.4566 -1.5201
 6992TIP3    H242392   2.864   4.518   4.743 -0.2627 -0.2313  1.1554
 6993TIP3   OH242393   0.712   2.850   1.763  0.5361  0.0004 -0.4863
 6993TIP3    H142394   0.781   2.855   1.696 -0.2630 -0.6376 -1.3607
 6993TIP3    H242395   0.708   2.939   1.799  2.3565 -0.1377  0.1370
 6994TIP3   OH242396   1.961   4.033  12.962  0.6943  0.2007 -0.1360
 6994TIP3    H142397   1.921   4.119  12.957  1.5819  0.7250  1.4308
 6994TIP3    H242398   1.890   3.974  12.989  0.2122  0.5324 -0.6863
 6995TIP3   OH242399   5.241   3.059  12.585  1.0115 -1.0631 -0.0914
 6995TIP3    H142400   5.176   3.005  12.629  0.0941  0.1844  0.1279
 6995TIP3    H242401   5.315   3.064  12.646 -0.3213  0.8013  1.4216
 6996TIP3   OH242402   3.377   5.301   5.632 -0.4835  0.1348  0.3327
 6996TIP3    H142403   3.418   5.287   5.546 -1.1273 -2.2600  0.3787
 6996TIP3    H242404   3.342   5.390   5.628  0.6493  0.5221 -1.3986
 6997TIP3   OH242405   0.520   4.466   3.384  0.0042  0.6542 -0.1395
 6997TIP3    H142406   0.459   4.409   3.339  1.2533 -1.3294  0.6293
 6997TIP3    H242407   0.605   4.448   3.343  0.9685 -0.3969  2.2094
 6998TIP3   OH242408   2.556   5.314   2.728  0.1985  0.7660  0.4843
 6998TIP3    H142409   2.612   5.293   2.654 -1.8951 -1.4625 -0.5122
 6998TIP3    H242410   2.563   5.238   2.786 -2.1574  0.2073  0.0880
 6999TIP3   OH242411   5.595   6.027   2.092  0.7670 -0.0398 -0.4099
 6999TIP3    H142412   5.628   5.938   2.106 -0.3434 -0.5237 -0.8010
 6999TIP3    H242413   5.591   6.036   1.997  0.7291  0.3751 -0.3699
 7000TIP3   OH242414   4.485   2.882   2.912 -0.7307  0.0250  0.3645
 7000TIP3    H142415   4.515   2.875   2.821  1.5967 -2.9344  1.2684
 7000TIP3    H242416   4.396   2.847   2.912 -0.8013  0.2002 -0.7921
 7001TIP3   OH242417   3.557   6.511  16.585 -0.0044 -0.6770  0.2488
 7001TIP3    H142418   3.592   6.426  16.561  0.7321 -0.1000 -0.7209
 7001TIP3    H242419   3.480   6.523  16.529  0.0625 -0.5770  0.1782
 7002TIP3   OH242420   1.461   3.907  15.327 -0.0461  0.3972 -0.8296
 7002TIP3    H142421   1.471   3.993  15.368  0.3453 -0.8345  1.7391
 7002TIP3    H242422   1.548   3.889  15.290  0.2617  0.5195 -0.1782
 7003TIP3   OH242423   1.798   1.777   2.589 -0.5655  0.0330 -0.0580
 7003TIP3    H142424   1.881   1.733   2.607 -0.4579 -0.5224 -1.8359
 7003TIP3    H242425   1.776   1.751   2.500 -3.4664 -1.0962  0.9319
 7004TIP3   OH242426   3.772   5.477  12.318 -0.3671 -0.3481 -0.4104
 7004TIP3    H142427   3.822   5.410  12.271  0.1266 -2.2669  2.7048
 7004TIP3    H242428   3.808   5.560  12.286  1.3603 -1.6067 -1.8756
 7005TIP3   OH242429   5.344   0.736  10.881 -0.6089  0.7905 -0.0270
 7005TIP3    H142430   5.420   0.700  10.926 -1.0620 -1.0181 -0.6744
 7005TIP3    H242431   5.269   0.692  10.921 -1.0493 -0.4412 -2.1286
 7006TIP3   OH242432   2.011   5.658  11.564 -0.1605 -0.4303 -0.8199
 7006TIP3    H142433   1.970   5.727  11.512  2.9181  1.6497 -0.6315
 7006TIP3    H242434   2.099   5.650  11.527  0.0759 -3.0938  0.2694
 7007TIP3   OH242435   3.047   0.482  15.372 -0.5962 -0.0466 -0.1286
 7007TIP3    H142436   3.028   0.575  15.387 -0.1909 -0.0237  0.2358
 7007TIP3    H242437   2.962   0.439  15.379 -1.1123  0.5426 -2.2244
 7008TIP3   OH242438   5.774   3.943  11.904 -0.3434  0.4384 -0.0167
 7008TIP3    H142439   5.717   3.945  11.827  0.2936  1.3085 -0.4741
 7008TIP3    H242440   5.756   3.858  11.945 -0.8167  0.0459 -1.0242
 7009TIP3   OH242441   1.519   5.037   3.479 -0.2304 -0.4944  0.1542
 7009TIP3    H142442   1.531   5.126   3.512 -0.3144 -0.7403  0.8619
 7009TIP3    H242443   1.602   5.016   3.437 -0.7409  0.4785 -1.3650
 7010TIP3   OH242444   0.665   2.043  17.075 -0.2712 -0.7600 -0.0954
 7010TIP3    H142445   0.677   1.971  17.014 -2.7008  0.0702 -1.5931
 7010TIP3    H242446   0.575   2.035  17.105 -0.6565  1.7819 -0.4642
 7011TIP3   OH242447   1.778   1.360   4.718  0.1264 -0.1610 -0.3178
 7011TIP3    H142448   1.833   1.377   4.641 -1.3112 -0.9644 -1.5475
 7011TIP3    H242449   1.727   1.440   4.729 -0.3853 -0.4164 -0.8135
 7012TIP3   OH242450   4.438   4.466  10.611 -0.9994 -0.4395  0.0067
 7012TIP3    H142451   4.406   4.552  10.584  0.0932  0.0018  0.0918
 7012TIP3    H242452   4.482   4.431  10.534 -1.1268 -0.7676  0.0824
 7013TIP3   OH242453   4.380   4.227  14.736  0.8230 -0.1695 -0.0702
 7013TIP3    H142454   4.382   4.258  14.827  0.1248  0.3369 -0.2254
 7013TIP3    H242455   4.466   4.186  14.723  0.6858 -0.8274  1.0175
 7014TIP3   OH242456   0.657   4.623  14.337 -0.0743  0.1041 -0.8824
 7014TIP3    H142457   0.700   4.704  14.309  3.0933 -1.1994 -0.0800
 7014TIP3    H242458   0.723   4.555  14.323 -1.9573 -2.0435  0.3298
 7015TIP3   OH242459   1.587   4.007  13.461 -0.1403 -0.5723 -0.8273
 7015TIP3    H142460   1.501   3.966  13.473 -0.0506 -0.2141  1.2992
 7015TIP3    H242461   1.646   3.934  13.443 -0.1303 -1.3896  2.1356
 7016TIP3   OH242462   4.510   3.674   0.826 -0.2747  0.7470 -0.1475
 7016TIP3    H142463   4.531   3.681   0.920  1.1802 -0.0025 -0.3921
 7016TIP3    H242464   4.568   3.737   0.785 -0.4757  0.6348 -0.6005
 7017TIP3   OH242465   4.345   6.474   0.038  0.2359  0.0239 -0.0340
 7017TIP3    H142466   4.434   6.498   0.011  0.3427  0.2853  0.5384
 7017TIP3    H242467   4.301   6.557   0.054 -1.0264 -0.0013 -3.1441
 7018TIP3   OH242468   6.390   5.109  15.190 -0.2441 -0.0376  0.1731
 7018TIP3    H142469   6.384   5.104  15.285  2.0094  0.8042  0.3911
 7018TIP3    H242470   6.440   5.031  15.165 -2.4151 -1.2658 -0.5423
 7019TIP3   OH242471   3.322   1.051   2.785  0.3179 -0.4391 -0.3744
 7019TIP3    H142472   3.236   1.089   2.768  0.0338 -0.5924  0.6656
 7019TIP3    H242473   3.384   1.116   2.753 -0.1691  0.6402  0.8352
 7020TIP3   OH242474   2.812   0.556   0.895  0.1435  0.0640 -0.1655
 7020TIP3    H142475   2.719   0.553   0.873 -0.0562 -0.8924  0.8028
 7020TIP3    H242476   2.856   0.526   0.815 -0.4746 -1.2386 -0.0269
 7021TIP3   OH242477   5.309   1.215  14.127  0.4040 -0.2786  0.8088
 7021TIP3    H142478   5.246   1.241  14.194  0.1739  1.5373 -0.0794
 7021TIP3    H242479   5.279   1.258  14.047 -1.1449 -4.8945 -1.2834
 7022TIP3   OH242480   0.693   0.675   2.519 -0.3553  0.2812  0.3657
 7022TIP3    H142481   0.607   0.632   2.513 -0.0505 -0.6369  2.1376
 7022TIP3    H242482   0.680   0.761   2.480 -1.7071 -0.4016 -0.7174
 7023TIP3   OH242483   2.762   0.962  12.393  0.2551  0.1599 -0.1184
 7023TIP3    H142484   2.672   0.959  12.425  0.3265  0.6142  0.1305
 7023TIP3    H242485   2.801   0.879  12.421 -0.3417 -0.4154 -0.9875
 7024TIP3   OH242486   1.064   6.304   3.045 -0.2031 -0.5702 -0.0744
 7024TIP3    H142487   1.052   6.394   3.012  0.0618  0.4313  2.4391
 7024TIP3    H242488   0.975   6.274   3.063 -0.1332  0.4293  2.1403
 7025TIP3   OH242489   4.861   2.905  11.966  0.0713 -0.6777 -0.1246
 7025TIP3    H142490   4.771   2.935  11.969  0.1917 -0.4334  1.0953
 7025TIP3    H242491   4.856   2.818  11.925 -0.6692 -0.5304 -0.3482
 7026TIP3   OH242492   0.475   6.227   0.051 -1.3169 -0.2033 -0.1953
 7026TIP3    H142493   0.428   6.302   0.088  0.1688  0.4532  0.3969
 7026TIP3    H242494   0.531   6.265  -0.017  1.0962 -0.4359  1.6087
 7027TIP3   OH242495   0.071   3.478  13.121 -0.4661 -0.6497  1.1071
 7027TIP3    H142496   0.052   3.397  13.073 -0.1159 -0.6834  1.0214
 7027TIP3    H242497  -0.014   3.517  13.137 -0.6125 -0.8505  0.8191
 7028TIP3   OH242498   2.994   1.879  12.110  0.0138  0.4920 -0.0081
 7028TIP3    H142499   3.012   1.951  12.049  0.1663  0.1555 -0.3573
 7028TIP3    H242500   3.001   1.919  12.196 -2.6138  1.5733 -0.2441
 7029TIP3   OH242501   5.014   5.284   2.084 -0.2646 -0.5340 -0.6382
 7029TIP3    H142502   4.970   5.210   2.128 -0.9513 -0.1989 -0.7483
 7029TIP3    H242503   5.096   5.247   2.051  0.1051 -0.8739  0.6348
 7030TIP3   OH242504   4.245   1.491   4.753 -0.3262  0.4059  0.1104
 7030TIP3    H142505   4.213   1.431   4.820 -0.2077  1.0314  0.7296
 7030TIP3    H242506   4.224   1.578   4.786  1.2636  0.7924  0.1541
 7031TIP3   OH242507   5.209   2.772   2.826 -0.0504  0.2133 -0.2257
 7031TIP3    H142508   5.292   2.724   2.830  0.0035  0.3299  0.0672
 7031TIP3    H242509   5.197   2.806   2.915 -0.2962  0.3931 -0.3286
 7032TIP3   OH242510   2.376   3.864  10.760  0.0133 -0.2947  0.3989
 7032TIP3    H142511   2.355   3.797  10.695 -2.3892 -1.2466  2.0664
 7032TIP3    H242512   2.463   3.840  10.792 -0.9102 -2.8362  1.1513
 7033TIP3   OH242513   6.655   4.462   5.073  0.1999 -0.5764 -0.1233
 7033TIP3    H142514   6.688   4.441   4.986  0.4724 -1.2180  0.1324
 7033TIP3    H242515   6.689   4.393   5.129  1.5309  0.8138  0.8412
 7034TIP3   OH242516   0.388   2.698  13.585  0.0266 -0.5768  0.0730
 7034TIP3    H142517   0.368   2.778  13.536  0.5971 -0.8581 -0.6269
 7034TIP3    H242518   0.308   2.645  13.577 -0.0795 -0.3933 -0.1076
 7035TIP3   OH242519   2.249   2.189   7.045  0.1155 -0.0880  0.2055
 7035TIP3    H142520   2.290   2.267   7.008  0.3631 -0.2885  0.0541
 7035TIP3    H242521   2.179   2.167   6.984 -0.1684  0.2110  0.4252
 7036TIP3   OH242522   6.625   3.212   4.256  0.4923  1.0336 -0.4195
 7036TIP3    H142523   6.656   3.141   4.200  1.0660  1.2325 -0.3553
 7036TIP3    H242524   6.701   3.238   4.307  0.2083  1.4872 -0.2189
 7037TIP3   OH242525   5.714   1.017  14.200  0.0874  0.1663  0.4362
 7037TIP3    H142526   5.709   0.923  14.185 -1.7342  0.1559  1.0346
 7037TIP3    H242527   5.669   1.056  14.125  1.3278  0.5941 -0.0955
 7038TIP3   OH242528   1.595   4.238   6.252  0.6883  0.2375  0.4311
 7038TIP3    H142529   1.640   4.191   6.322 -0.3858  0.6689  1.4347
 7038TIP3    H242530   1.523   4.284   6.297  0.0454  0.5905 -0.9376
 7039TIP3   OH242531   1.879   0.445  14.324 -0.0484  0.3295  0.2482
 7039TIP3    H142532   1.836   0.370  14.365  0.9090  0.1385  0.8987
 7039TIP3    H242533   1.930   0.485  14.394 -0.0416  1.2071 -0.2579
 7040TIP3   OH242534   3.205   6.208  10.807 -0.0962  0.5762  0.9533
 7040TIP3    H142535   3.237   6.298  10.803  1.2360  0.0198 -3.0223
 7040TIP3    H242536   3.113   6.214  10.782  0.0137  0.8501  0.6022
 7041TIP3   OH242537   1.919   2.921  16.399 -0.4281  0.2669  0.3140
 7041TIP3    H142538   1.879   2.840  16.368 -2.1943  1.6341 -1.0973
 7041TIP3    H242539   1.855   2.959  16.458 -0.1044  1.2087  0.0677
 7042TIP3   OH242540   3.449   5.930  13.258 -0.2943 -0.1813 -0.1067
 7042TIP3    H142541   3.469   5.837  13.254  0.4439 -0.0351 -0.0625
 7042TIP3    H242542   3.395   5.940  13.337 -1.2322 -0.7163 -0.6882
 7043TIP3   OH242543   1.136   6.557  11.726 -0.4479  0.0231 -0.1857
 7043TIP3    H142544   1.166   6.636  11.681  2.5938 -0.9325  0.0338
 7043TIP3    H242545   1.112   6.586  11.813 -1.1534  1.0155 -0.7096
 7044TIP3   OH242546   3.558   3.985  13.970 -1.0687 -0.0842 -0.4782
 7044TIP3    H142547   3.648   3.954  13.981 -0.0422  2.3159 -1.8210
 7044TIP3    H242548   3.507   3.906  13.950  0.6665 -1.4944  0.5585
 7045TIP3   OH242549   6.603   0.074   4.513 -0.2039 -0.7330 -0.6063
 7045TIP3    H142550   6.652   0.155   4.523 -1.0780 -0.1990 -0.6757
 7045TIP3    H242551   6.670   0.009   4.491  0.2483  0.3668 -2.5865
 7046TIP3   OH242552   4.656   5.903   0.666  0.1760  0.7443  0.0872
 7046TIP3    H142553   4.633   5.810   0.674  0.5417  0.6910  0.5626
 7046TIP3    H242554   4.751   5.905   0.673  0.1900  1.1285 -0.2092
 7047TIP3   OH242555   1.029   2.640   1.470 -0.1232  0.2281  0.0819
 7047TIP3    H142556   0.949   2.588   1.471 -0.4706  0.7790  1.7196
 7047TIP3    H242557   1.003   2.726   1.503  1.5940 -0.2795  2.9998
 7048TIP3   OH242558   0.135   0.266   3.585  0.0850  0.2282 -0.3349
 7048TIP3    H142559   0.146   0.343   3.641 -0.4491 -0.6842  1.0465
 7048TIP3    H242560   0.040   0.262   3.568  0.2857  0.7351 -1.6630
 7049TIP3   OH242561   4.935   0.782  14.078 -0.7496 -0.2252 -0.2148
 7049TIP3    H142562   4.913   0.861  14.028 -3.2300 -0.5767  0.2397
 7049TIP3    H242563   4.922   0.807  14.169  0.8689 -0.4609  0.0947
 7050TIP3   OH242564   5.842   1.542   4.097 -0.5083 -0.3347  0.1075
 7050TIP3    H142565   5.784   1.608   4.136  1.9285  1.1542  1.3787
 7050TIP3    H242566   5.792   1.461   4.100 -2.0348  0.6285  2.3794
 7051TIP3   OH242567   0.206   0.623  12.936 -0.3722  0.1321  0.2433
 7051TIP3    H142568   0.158   0.660  13.010 -1.8708  0.3573 -0.7972
 7051TIP3    H242569   0.165   0.663  12.859  0.1084 -1.2627 -0.7652
 7052TIP3   OH242570   2.649   2.778   4.838 -0.4637 -0.2117 -0.1208
 7052TIP3    H142571   2.556   2.754   4.833 -0.4253 -0.3695 -0.0916
 7052TIP3    H242572   2.649   2.873   4.843 -0.4960  0.0151 -3.3788
 7053TIP3   OH242573   1.503   5.207  17.066  0.0595 -0.3853 -0.0654
 7053TIP3    H142574   1.427   5.150  17.054 -1.0063  1.3602 -1.8065
 7053TIP3    H242575   1.574   5.164  17.019 -1.3666  0.8979 -3.5639
 7054TIP3   OH242576   1.598   1.224   5.640  0.1928 -0.6222  0.1736
 7054TIP3    H142577   1.675   1.260   5.596 -0.4162  0.6578  0.1418
 7054TIP3    H242578   1.533   1.214   5.571 -0.4092  0.3928  0.5768
 7055TIP3   OH242579   5.765   0.795  14.668 -0.1037  0.0715 -0.4271
 7055TIP3    H142580   5.742   0.823  14.756  1.3892  0.3623 -0.1072
 7055TIP3    H242581   5.684   0.803  14.618 -1.0431 -0.4257  0.9952
 7056TIP3   OH242582   6.431   6.425   0.955  0.2396 -0.1404  0.4981
 7056TIP3    H142583   6.392   6.472   0.881  0.6976 -0.3150  0.1492
 7056TIP3    H242584   6.365   6.432   1.024 -0.5381 -0.6613 -0.1815
 7057TIP3   OH242585   4.523   2.540  14.338  0.0827 -0.3515 -0.2605
 7057TIP3    H142586   4.542   2.446  14.331 -1.0639 -0.7835  1.8696
 7057TIP3    H242587   4.441   2.551  14.290  1.6597  0.1258 -2.9528
 7058TIP3   OH242588   5.598   3.909  11.690 -0.1738 -0.8865  0.0930
 7058TIP3    H142589   5.538   3.845  11.729  0.9545 -1.3179  1.1420
 7058TIP3    H242590   5.560   3.994  11.711 -0.7094 -1.1735  0.2766
 7059TIP3   OH242591   1.050   6.342  16.824 -0.2439 -0.9425 -0.7466
 7059TIP3    H142592   0.968   6.331  16.776 -0.5323 -0.6833 -0.3252
 7059TIP3    H242593   1.118   6.321  16.761 -0.6685 -2.1194 -0.8298
 7060TIP3   OH242594   0.340   6.593  15.394  0.0577  0.0202  0.0118
 7060TIP3    H142595   0.432   6.572  15.410  0.1762 -0.0618 -0.7649
 7060TIP3    H242596   0.338   6.627  15.305 -0.5205  0.9565  0.3745
 7061TIP3   OH242597   5.942   2.186  11.777  0.0531 -0.1962  0.2582
 7061TIP3    H142598   5.953   2.103  11.731  0.1168 -0.4995  0.8172
 7061TIP3    H242599   5.852   2.184  11.809 -0.5149  0.7081 -1.2086
 7062TIP3   OH242600   4.724   3.231   3.776  0.4414  0.5309  0.0236
 7062TIP3    H142601   4.730   3.193   3.688  0.6506 -1.7010  0.9561
 7062TIP3    H242602   4.812   3.262   3.794  0.8908 -0.7754  0.1763
 7063TIP3   OH242603   2.407   2.460  11.951  0.2785 -0.5120 -0.4751
 7063TIP3    H142604   2.399   2.548  11.915 -1.4404 -0.6129 -0.3690
 7063TIP3    H242605   2.473   2.468  12.019 -0.3738  0.8466  0.0173
 7064TIP3   OH242606   0.754   5.951   1.426  0.2738  0.6533  0.6283
 7064TIP3    H142607   0.719   5.920   1.343 -2.1531  1.5330  1.2848
 7064TIP3    H242608   0.707   6.033   1.443  1.7282  1.1948  2.1885
 7065TIP3   OH242609   2.737   3.797  15.875  0.1314 -0.0168  0.1446
 7065TIP3    H142610   2.705   3.871  15.926 -0.2852  0.1778 -0.3932
 7065TIP3    H242611   2.832   3.801  15.885  0.2213  1.4948 -1.1001
 7066TIP3   OH242612   4.382   5.559   4.312  0.4033 -0.5680  0.1547
 7066TIP3    H142613   4.301   5.590   4.352  0.3221 -0.5752 -0.0031
 7066TIP3    H242614   4.446   5.559   4.383 -0.4761 -3.4618  1.0280
 7067TIP3   OH242615   3.897   1.793   5.576 -0.1684 -0.0539 -0.3279
 7067TIP3    H142616   3.809   1.807   5.611 -0.1418 -1.6288  0.4179
 7067TIP3    H242617   3.956   1.820   5.647 -0.1038 -2.0879  0.4314
 7068TIP3   OH242618   6.321   0.304  11.827  0.1938 -0.2960 -0.5351
 7068TIP3    H142619   6.413   0.317  11.849 -0.0441 -1.3005  1.0940
 7068TIP3    H242620   6.320   0.301  11.731  1.5262  1.9591 -0.6459
 7069TIP3   OH242621   5.968   1.951   2.284  0.7314  0.3385  0.1741
 7069TIP3    H142622   5.939   2.043   2.290 -0.1520  0.0639  0.1328
 7069TIP3    H242623   6.019   1.948   2.203  2.6062  1.2907  1.2719
 7070TIP3   OH242624   4.215   4.083   3.948  0.0171 -0.4964  0.2042
 7070TIP3    H142625   4.187   4.098   4.038 -0.7019  0.5285 -0.1765
 7070TIP3    H242626   4.308   4.106   3.947 -0.1336  0.1311  0.5402
 7071TIP3   OH242627   1.727   6.478  13.628 -0.1912  0.1801  0.1955
 7071TIP3    H142628   1.747   6.444  13.541 -1.5826 -1.1068  0.3498
 7071TIP3    H242629   1.810   6.514  13.659  0.8705 -1.2944 -0.7995
 7072TIP3   OH242630   5.402   2.668  14.883  0.4113  0.1063  0.0003
 7072TIP3    H142631   5.392   2.641  14.791  3.0598  0.5503 -0.4565
 7072TIP3    H242632   5.381   2.590  14.934  0.9814 -0.7508 -1.0629
 7073TIP3   OH242633   2.389   1.487  13.032 -0.5289 -0.1836  0.1431
 7073TIP3    H142634   2.336   1.458  13.106  2.3580  0.0363  2.3688
 7073TIP3    H242635   2.428   1.569  13.061  1.6962 -0.7569 -1.0917
 7074TIP3   OH242636   2.590   6.127  14.103  0.2087  0.1424  0.2891
 7074TIP3    H142637   2.655   6.067  14.139  0.2789  0.6203  0.9660
 7074TIP3    H242638   2.599   6.207  14.155 -0.0327  0.6715 -0.4555
 7075TIP3   OH242639   2.426   0.934   2.760 -0.3089 -0.1700 -0.0991
 7075TIP3    H142640   2.404   0.948   2.668  1.0215  3.0752  0.0134
 7075TIP3    H242641   2.344   0.905   2.800 -1.7084  1.4935 -1.6875
 7076TIP3   OH242642   4.702   3.737   3.256  0.2765 -0.3090 -0.2827
 7076TIP3    H142643   4.714   3.676   3.328 -0.9498 -0.0887  0.1258
 7076TIP3    H242644   4.785   3.735   3.208  0.2602 -2.3110 -0.2919
 7077TIP3   OH242645   1.397   6.241  12.962  0.4994  0.1008 -0.1641
 7077TIP3    H142646   1.349   6.266  12.883  1.5419 -0.4205 -0.9739
 7077TIP3    H242647   1.371   6.306  13.027  0.1951  0.9765 -1.1393
 7078TIP3   OH242648   0.879   2.534  15.413  0.5467 -0.2285 -0.2071
 7078TIP3    H142649   0.913   2.619  15.385 -0.4567  0.1459 -0.2785
 7078TIP3    H242650   0.790   2.530  15.378  0.3994 -1.0860  0.2472
 7079TIP3   OH242651   0.932   4.030  14.976  0.1302 -0.1635  0.1502
 7079TIP3    H142652   0.997   3.968  15.011 -0.0265 -0.0580  0.6289
 7079TIP3    H242653   0.913   4.088  15.049 -1.1114 -0.6892  0.2539
 7080TIP3   OH242654   2.503   3.852   0.567 -0.4664 -0.2474 -0.0158
 7080TIP3    H142655   2.558   3.850   0.489 -0.8056  0.5303 -0.2827
 7080TIP3    H242656   2.565   3.862   0.639 -0.0811 -1.8904 -0.0911
 7081TIP3   OH242657   2.407   4.097  15.054  0.0284 -0.0901  0.4601
 7081TIP3    H142658   2.378   4.027  15.113 -1.1389  1.3782  1.6495
 7081TIP3    H242659   2.428   4.170  15.111  1.2740  0.5548 -0.7760
 7082TIP3   OH242660   3.915   3.204   3.878  0.1946 -0.1378 -0.4087
 7082TIP3    H142661   3.868   3.253   3.944  0.5882  0.1111 -0.3095
 7082TIP3    H242662   3.857   3.203   3.802 -0.2070 -0.3265 -0.0970
 7083TIP3   OH242663   3.750   1.123   2.980  0.4198 -0.4786  0.1282
 7083TIP3    H142664   3.715   1.056   3.039 -0.4214 -0.5677 -0.4629
 7083TIP3    H242665   3.744   1.083   2.893  1.6285 -0.3407 -0.0323
 7084TIP3   OH242666   0.795   0.033   1.644  0.3769  0.1736 -0.1385
 7084TIP3    H142667   0.818   0.055   1.554  0.1319 -1.2145 -0.5503
 7084TIP3    H242668   0.760  -0.056   1.639  1.6960 -0.4800  1.5103
 7085TIP3   OH242669   5.296   2.227   2.992  0.2853  0.2056  0.2072
 7085TIP3    H142670   5.228   2.284   3.026  1.9011  2.4683 -0.2852
 7085TIP3    H242671   5.377   2.260   3.030  1.5285 -0.3417 -1.8736
 7086TIP3   OH242672   4.243   1.089  12.934  0.2737  0.5707  0.5321
 7086TIP3    H142673   4.183   1.109  13.006  1.4231  1.1911  1.3256
 7086TIP3    H242674   4.199   1.124  12.856 -1.4626 -1.0360  0.7581
 7087TIP3   OH242675   3.926   5.816   1.707 -0.0623  0.3802  0.2316
 7087TIP3    H142676   3.966   5.748   1.653  0.3566  0.2200  0.7377
 7087TIP3    H242677   3.934   5.896   1.656 -2.9978 -0.4155 -1.5727
 7088TIP3   OH242678   2.211   0.799  13.439  0.9078 -0.6339 -0.4656
 7088TIP3    H142679   2.156   0.740  13.388 -0.0458 -1.5861  1.5892
 7088TIP3    H242680   2.218   0.877  13.386 -4.6552  0.5729  0.2515
 7089TIP3   OH242681   1.546   0.681  14.794  0.4521 -0.2955 -0.1971
 7089TIP3    H142682   1.487   0.678  14.869  0.5631  1.8043  0.0062
 7089TIP3    H242683   1.634   0.682  14.833  0.4968  1.7839 -0.2703
 7090TIP3   OH242684   3.569   6.659  13.520  0.1427  0.3733 -0.3577
 7090TIP3    H142685   3.560   6.720  13.446  5.0902 -0.8372 -2.1424
 7090TIP3    H242686   3.643   6.693  13.570  1.1468 -2.5215  0.2022
 7091TIP3   OH242687   3.951   1.720  13.043  0.1092 -0.0077 -0.7825
 7091TIP3    H142688   3.932   1.626  13.036  0.8196 -0.3423  1.4408
 7091TIP3    H242689   3.928   1.755  12.957 -0.2586 -2.1988 -1.6208
 7092TIP3   OH242690   2.445   2.557  13.857 -0.2172 -0.2753  0.7082
 7092TIP3    H142691   2.368   2.564  13.913  1.9787  2.7509  3.5601
 7092TIP3    H242692   2.487   2.476  13.884 -0.1760  0.2161  2.1702
 7093TIP3   OH242693   2.035   3.560  11.817 -0.0175  0.6969  0.0487
 7093TIP3    H142694   1.944   3.582  11.797  1.0802  4.5117 -1.0706
 7093TIP3    H242695   2.057   3.612  11.894  1.9216  1.6781 -1.1295
 7094TIP3   OH242696   1.935   3.555   1.054  0.2276  0.3825  0.2049
 7094TIP3    H142697   1.981   3.519   0.978 -0.0993 -1.5393  0.8798
 7094TIP3    H242698   1.868   3.613   1.017  1.2895  0.9492 -0.8822
 7095TIP3   OH242699   5.252   1.489  16.315 -0.5352  0.4765  0.5361
 7095TIP3    H142700   5.234   1.397  16.335  0.6120  0.4802  1.6102
 7095TIP3    H242701   5.347   1.494  16.307 -0.6913  1.2767 -1.0427
 7096TIP3   OH242702   0.721   4.274  13.839 -0.3799 -0.2146  0.1671
 7096TIP3    H142703   0.765   4.323  13.908  0.7041 -0.2162 -0.4954
 7096TIP3    H242704   0.641   4.323  13.821 -0.5358 -0.0694  1.2261
 7097TIP3   OH242705   2.847   3.647  14.401  0.2210 -0.4735 -0.5050
 7097TIP3    H142706   2.851   3.635  14.307  0.9287  0.3481 -0.5868
 7097TIP3    H242707   2.919   3.594  14.436  0.4658 -0.1336 -0.4930
 7098TIP3   OH242708   1.564   5.618  14.844 -0.2875  0.0582  0.0149
 7098TIP3    H142709   1.592   5.532  14.812  0.5845  0.1516  0.5248
 7098TIP3    H242710   1.569   5.611  14.939 -1.0170  0.4112  0.0879
 7099TIP3   OH242711   5.633   1.758  12.597 -0.3089  0.8283 -0.3038
 7099TIP3    H142712   5.586   1.842  12.605  0.0837  1.0810 -0.6189
 7099TIP3    H242713   5.583   1.710  12.531 -0.6513  0.7326  0.0220
 7100TIP3   OH242714   2.453   5.151   4.819  0.9544 -0.4054 -0.3118
 7100TIP3    H142715   2.398   5.109   4.884  1.6182 -1.0248 -0.1548
 7100TIP3    H242716   2.391   5.198   4.763  0.3799  0.0883  0.7216
 7101TIP3   OH242717   5.704   1.014   3.661 -0.8869 -0.1428  0.3886
 7101TIP3    H142718   5.619   1.056   3.649 -1.2337 -0.8390  0.3442
 7101TIP3    H242719   5.683   0.925   3.690 -0.1639 -0.1094  1.0627
 7102TIP3   OH242720   3.618   3.736   0.691 -0.1207  0.3027  0.2672
 7102TIP3    H142721   3.586   3.755   0.779  0.0943  1.5101  0.0939
 7102TIP3    H242722   3.652   3.819   0.659 -2.8660  0.6350 -2.0563
 7103TIP3   OH242723   3.457   0.232  12.811 -0.3673 -0.3116  0.3999
 7103TIP3    H142724   3.485   0.145  12.783  1.4672  0.5227 -0.4721
 7103TIP3    H242725   3.481   0.289  12.738 -0.8764  1.0203  1.2609
 7104TIP3   OH242726   4.032   5.430   3.933 -0.7606 -0.1164  0.0620
 7104TIP3    H142727   4.100   5.493   3.909  0.2971 -1.1080  0.3945
 7104TIP3    H242728   3.989   5.470   4.009  1.4989 -0.8795  1.7934
 7105TIP3   OH242729   0.205   2.763  13.942  0.1797 -0.4728 -0.0018
 7105TIP3    H142730   0.232   2.783  14.031 -1.2961  0.9378  0.1653
 7105TIP3    H242731   0.170   2.846  13.909 -0.3718 -1.2731 -1.4759
 7106TIP3   OH242732   4.517   5.858   1.638  0.1548  0.0554  0.1449
 7106TIP3    H142733   4.544   5.903   1.557 -2.5668  1.3288 -0.1054
 7106TIP3    H242734   4.444   5.802   1.611  0.2955 -0.7583  1.4297
 7107TIP3   OH242735   2.725   0.709   4.863 -0.0700 -0.2376 -0.3943
 7107TIP3    H142736   2.667   0.785   4.855  0.2024  0.1099  0.7838
 7107TIP3    H242737   2.736   0.678   4.774 -3.0751 -1.0708 -0.5383
 7108TIP3   OH242738   2.513   0.191   4.214  0.0154 -0.2197 -0.1828
 7108TIP3    H142739   2.542   0.223   4.300 -1.5968  0.0173  0.2815
 7108TIP3    H242740   2.500   0.097   4.227 -1.2869 -0.0035  0.1395
 7109TIP3   OH242741   1.220   2.974   2.993  0.3675 -0.2346 -1.0063
 7109TIP3    H142742   1.189   3.064   2.997  1.1698 -0.0023  0.2843
 7109TIP3    H242743   1.310   2.978   3.024  0.0077 -1.6431  0.3111
 7110TIP3   OH242744   3.297   4.891   1.146 -0.3272 -0.7324  0.0079
 7110TIP3    H142745   3.380   4.868   1.104 -0.3646 -2.4858  0.8280
 7110TIP3    H242746   3.231   4.839   1.101 -0.9374  0.3509 -0.3725
 7111TIP3   OH242747   1.845   4.065   3.762 -0.2447  0.1481 -0.2969
 7111TIP3    H142748   1.847   4.138   3.824  0.3865 -0.6069  0.6010
 7111TIP3    H242749   1.754   4.037   3.760 -0.0180 -0.7863  1.4746
 7112TIP3   OH242750   0.008   6.662  15.014 -0.6963 -0.2885  0.5690
 7112TIP3    H142751   0.012   6.725  14.943 -0.5670 -0.8235  0.0962
 7112TIP3    H242752   0.099   6.637  15.029 -0.8643 -1.4982 -0.2837
 7113TIP3   OH242753   6.544   0.827  10.796 -0.4610 -0.9722 -0.3521
 7113TIP3    H142754   6.482   0.825  10.724 -2.0840 -1.9163  1.0339
 7113TIP3    H242755   6.549   0.919  10.822 -1.4162 -0.9230 -0.3506
 7114TIP3   OH242756   0.128   6.381   4.628  0.4070 -0.1957  1.0273
 7114TIP3    H142757   0.182   6.454   4.659 -0.1587  0.4438  0.5074
 7114TIP3    H242758   0.167   6.304   4.670  1.7990  0.2424  0.5765
 7115TIP3   OH242759   0.782   4.841   2.196  0.2931  1.0918 -0.5153
 7115TIP3    H142760   0.832   4.909   2.151  0.3897  0.1695 -1.8304
 7115TIP3    H242761   0.755   4.781   2.127 -1.1094  0.6116  0.4204
 7116TIP3   OH242762   2.880   2.619   0.868  0.7511 -0.3544  0.3045
 7116TIP3    H142763   2.824   2.684   0.911 -0.6625 -0.8771 -0.6815
 7116TIP3    H242764   2.897   2.554   0.936 -1.6625 -1.2997  0.0681
 7117TIP3   OH242765   4.425   5.668  11.150  0.1541 -0.6067 -0.4341
 7117TIP3    H142766   4.364   5.667  11.224  1.1933  0.5378  0.4753
 7117TIP3    H242767   4.404   5.748  11.102  0.0926 -0.8711 -0.8496
 7118TIP3   OH242768   5.060   0.989   5.486  0.0872  0.2983 -0.5061
 7118TIP3    H142769   5.017   0.919   5.437  0.8664 -0.8726  0.4656
 7118TIP3    H242770   5.003   1.005   5.562 -0.6898  1.5347 -1.3291
 7119TIP3   OH242771   4.057   2.189  16.934  0.6064 -0.4655  0.2621
 7119TIP3    H142772   4.140   2.147  16.912  0.2286 -1.5172  0.8072
 7119TIP3    H242773   4.029   2.146  17.015  0.2568  0.9108  0.9003
 7120TIP3   OH242774   2.869   5.819   0.006 -0.3236  0.6640 -0.4155
 7120TIP3    H142775   2.855   5.848  -0.084  2.5755  0.1854 -1.0751
 7120TIP3    H242776   2.781   5.808   0.042 -1.5365 -0.2548 -3.5288
 7121TIP3   OH242777   1.545   4.902  16.302 -0.1745 -0.0479  0.1190
 7121TIP3    H142778   1.553   4.861  16.388  0.6403 -1.1261 -0.4583
 7121TIP3    H242779   1.451   4.902  16.284 -0.4800  1.5354  1.6337
 7122TIP3   OH242780   0.687   3.690   2.877  0.0405  0.2537 -0.0708
 7122TIP3    H142781   0.767   3.743   2.881 -0.6970  1.2776  1.5561
 7122TIP3    H242782   0.693   3.632   2.953 -0.5347  0.0209 -0.2018
 7123TIP3   OH242783   3.548   4.436   4.045  0.1179  0.5870 -0.4258
 7123TIP3    H142784   3.467   4.450   3.996 -0.2304  0.5372  0.1280
 7123TIP3    H242785   3.553   4.510   4.105 -0.0342  0.0699  0.2306
 7124TIP3   OH242786   6.499   0.577  15.256  0.1502  0.5469  1.3450
 7124TIP3    H142787   6.405   0.560  15.262  0.2651 -0.3250  0.6977
 7124TIP3    H242788   6.516   0.640  15.326 -0.9104  0.6937  1.4840
 7125TIP3   OH242789   4.629   1.763  10.832  0.0054  0.5013 -0.1827
 7125TIP3    H142790   4.611   1.780  10.739 -0.5844  0.2879 -0.1066
 7125TIP3    H242791   4.688   1.688  10.831 -0.8360 -0.1700 -0.3510
 7126TIP3   OH242792   3.217   0.759   5.334 -0.5508 -0.7266  0.0971
 7126TIP3    H142793   3.126   0.740   5.309 -0.1522 -0.2778 -1.7403
 7126TIP3    H242794   3.220   0.854   5.344  0.1832 -0.5338 -1.7980
 7127TIP3   OH242795   4.409   2.842   4.256  0.2668 -0.8567 -0.5228
 7127TIP3    H142796   4.320   2.878   4.265  0.7481 -0.0019  1.0599
 7127TIP3    H242797   4.395   2.748   4.252 -0.8155 -0.6601 -1.7760
 7128TIP3   OH242798   3.129   0.308  10.951 -0.6239  0.2327  0.0839
 7128TIP3    H142799   3.197   0.314  11.019  0.1748  0.9476 -0.7561
 7128TIP3    H242800   3.123   0.215  10.932  0.9726  0.2542 -0.6529
 7129TIP3   OH242801   2.093   3.482   5.448 -0.0344  0.2270 -0.2570
 7129TIP3    H142802   2.160   3.497   5.382  0.7725  0.7834  0.6820
 7129TIP3    H242803   2.136   3.500   5.531 -1.5593  1.3558  0.3120
 7130TIP3   OH242804   1.728   4.180  12.992 -0.1398  0.4577 -0.1705
 7130TIP3    H142805   1.651   4.138  13.031  0.9416 -0.5887  0.8836
 7130TIP3    H242806   1.742   4.259  13.044 -1.6696  1.7238 -1.6188
 7131TIP3   OH242807   1.684   5.360  11.838 -0.1322  0.2588 -0.1420
 7131TIP3    H142808   1.682   5.416  11.915 -0.2688 -0.3632  0.3168
 7131TIP3    H242809   1.754   5.396  11.784  1.3756 -0.5092  1.2308
 7132TIP3   OH242810   1.755   5.130   1.154 -0.0747  0.2259 -0.3691
 7132TIP3    H142811   1.807   5.051   1.138 -0.7709  0.0443 -1.7663
 7132TIP3    H242812   1.680   5.122   1.095 -1.3859  0.7817  1.1885
 7133TIP3   OH242813   0.926   0.210   2.231 -0.1087  0.3362  0.1571
 7133TIP3    H142814   0.925   0.246   2.142 -0.9425 -0.0413  0.0121
 7133TIP3    H242815   0.954   0.119   2.219  0.2616  0.4269  0.3331
 7134TIP3   OH242816   5.359   5.568  12.503  0.3430 -0.2080 -0.2412
 7134TIP3    H142817   5.418   5.639  12.528  0.6894 -0.8791  0.8333
 7134TIP3    H242818   5.280   5.584  12.554  0.1430 -0.1838 -0.5517
 7135TIP3   OH242819   2.427   2.827   4.200  0.3045 -0.3322 -0.4534
 7135TIP3    H142820   2.428   2.802   4.293 -0.4023  1.2926 -0.0027
 7135TIP3    H242821   2.428   2.743   4.153  2.3266 -1.1436  0.9947
 7136TIP3   OH242822   3.083   0.574   2.784 -0.2070  0.0230  0.4251
 7136TIP3    H142823   2.998   0.548   2.820 -0.1189 -0.9404 -0.0587
 7136TIP3    H242824   3.061   0.627   2.708 -0.3906  1.6927  1.6032
 7137TIP3   OH242825   6.489   3.673   5.889 -0.4559  0.3574  0.2925
 7137TIP3    H142826   6.514   3.766   5.894 -1.3037  0.5807  0.5000
 7137TIP3    H242827   6.488   3.644   5.980  1.0662 -0.2003  0.1342
 7138TIP3   OH242828   3.185   4.373  15.125 -0.0704 -0.0825 -0.0685
 7138TIP3    H142829   3.119   4.333  15.068  1.3029 -1.4190 -0.7613
 7138TIP3    H242830   3.175   4.327  15.209  0.0665 -0.3659 -0.2087
 7139TIP3   OH242831   6.071   2.349  10.797  0.0713 -0.0358  0.0062
 7139TIP3    H142832   5.995   2.380  10.748 -0.1371  1.0744  1.0106
 7139TIP3    H242833   6.134   2.323  10.730 -1.1995 -0.9976 -0.8339
 7140TIP3   OH242834   0.351   0.793   6.090  0.2842  0.3027  0.5525
 7140TIP3    H142835   0.267   0.758   6.121 -1.1330  0.6102 -2.6867
 7140TIP3    H242836   0.371   0.864   6.152 -0.2388 -1.7666  3.1799
 7141TIP3   OH242837   3.367   3.765  13.810 -0.0146  0.3357  0.3180
 7141TIP3    H142838   3.397   3.693  13.755 -0.8939  0.4514 -0.3212
 7141TIP3    H242839   3.283   3.735  13.844 -0.5360  1.1970 -0.2073
 7142TIP3   OH242840   5.369   6.443   5.257  0.1656  0.1977  0.2977
 7142TIP3    H142841   5.296   6.489   5.299 -0.0491  0.4015 -0.2973
 7142TIP3    H242842   5.434   6.511   5.239 -0.5564  0.4330 -1.4587
 7143TIP3   OH242843   2.013   1.301  14.238  0.1873  0.2414 -0.3569
 7143TIP3    H142844   1.920   1.315  14.256 -0.3552 -2.4465 -0.8942
 7143TIP3    H242845   2.015   1.226  14.179  2.6618  0.9163 -1.1804
 7144TIP3   OH242846   4.578   5.205   1.355 -0.2650  0.0753  0.2964
 7144TIP3    H142847   4.559   5.221   1.447 -0.6688  0.8688  0.0791
 7144TIP3    H242848   4.649   5.266   1.335  1.4002 -1.6859  0.6677
 7145TIP3   OH242849   5.837   3.960  15.390  0.1427  0.0233 -0.0320
 7145TIP3    H142850   5.777   3.885  15.386 -0.5255  0.5953 -1.0178
 7145TIP3    H242851   5.808   4.017  15.319 -0.3145  1.9259  1.6385
 7146TIP3   OH242852   2.999   0.486  11.613 -0.1137 -0.1596  0.1623
 7146TIP3    H142853   2.964   0.462  11.698 -0.1687  1.3502  0.5708
 7146TIP3    H242854   2.929   0.465  11.551  0.6182 -3.0750  0.2154
 7147TIP3   OH242855   0.716   3.354   5.023 -0.2096 -0.4445  0.1270
 7147TIP3    H142856   0.649   3.356   5.092  0.2565 -2.7792  0.7005
 7147TIP3    H242857   0.676   3.305   4.952 -0.6868  1.9696 -1.3097
 7148TIP3   OH242858   3.550   5.249   3.315 -0.2394  0.3691  0.1842
 7148TIP3    H142859   3.579   5.327   3.362 -0.1598  0.4102  0.0665
 7148TIP3    H242860   3.561   5.270   3.222 -0.6046  0.3682  0.1397
 7149TIP3   OH242861   6.620   4.396   0.533 -0.2827 -0.1651 -0.2101
 7149TIP3    H142862   6.590   4.329   0.595  1.9097  0.2410  1.3481
 7149TIP3    H242863   6.575   4.476   0.562 -0.6858 -0.3607 -0.2897
 7150TIP3   OH242864   2.250   5.677   1.365 -0.0493 -0.3241 -0.2915
 7150TIP3    H142865   2.340   5.702   1.388  0.8904 -2.6132 -1.3293
 7150TIP3    H242866   2.251   5.582   1.365 -2.3902 -0.3733 -0.7559
 7151TIP3   OH242867   3.320   5.531  14.910 -0.2115  0.5449 -0.0401
 7151TIP3    H142868   3.391   5.594  14.927  2.0561 -1.0893 -3.0379
 7151TIP3    H242869   3.248   5.585  14.878  2.0679  1.6498 -3.6585
 7152TIP3   OH242870   1.670   1.489   2.483  0.0673 -0.6585 -0.0468
 7152TIP3    H142871   1.610   1.532   2.544 -0.3908  0.6031 -1.3416
 7152TIP3    H242872   1.615   1.469   2.407  0.9410 -0.8777 -0.6233
 7153TIP3   OH242873   6.127   0.450  11.351  0.3516  0.2423  0.4692
 7153TIP3    H142874   6.221   0.432  11.349  0.1578 -0.6833 -0.6100
 7153TIP3    H242875   6.110   0.503  11.273 -0.0920  0.0340  0.4195
 7154TIP3   OH242876   3.628   5.628  16.086  0.5615 -0.4376  0.4114
 7154TIP3    H142877   3.613   5.609  15.993 -1.3935  0.9171  0.4290
 7154TIP3    H242878   3.540   5.634  16.124  1.3169  0.3240  2.0796
 7155TIP3   OH242879   2.540   6.192  13.861  0.3299  0.6549  0.2729
 7155TIP3    H142880   2.620   6.170  13.814 -0.9554  1.2768 -2.3512
 7155TIP3    H242881   2.551   6.154  13.948  1.8100 -2.7258 -1.2850
 7156TIP3   OH242882   3.127   2.028  14.334  0.0628  0.1603  0.3029
 7156TIP3    H142883   3.132   1.944  14.288  1.9218  0.2404  0.2921
 7156TIP3    H242884   3.146   2.006  14.425 -0.6911  0.4010  0.5192
 7157TIP3   OH242885   5.429   4.639   0.597 -0.1702  0.2671  0.1949
 7157TIP3    H142886   5.435   4.591   0.679  1.3313 -1.1988 -0.7257
 7157TIP3    H242887   5.369   4.588   0.543 -0.5975  0.8339  0.1310
 7158TIP3   OH242888   0.967   0.185  13.898 -0.2062  0.0738  0.0408
 7158TIP3    H142889   1.034   0.155  13.837 -0.1752 -0.1923  0.2015
 7158TIP3    H242890   0.922   0.105  13.925  1.3624 -0.1020  2.2395
 7159TIP3   OH242891   5.386   0.968   2.462  0.6621  0.2450  0.0494
 7159TIP3    H142892   5.399   0.876   2.487 -2.2993 -0.5052 -1.0734
 7159TIP3    H242893   5.421   1.017   2.537 -0.0781 -1.8424  1.8322
 7160TIP3   OH242894   6.427   0.836   1.558 -0.0266 -0.5329  0.0890
 7160TIP3    H142895   6.480   0.774   1.509 -0.3641 -0.9522  0.2496
 7160TIP3    H242896   6.478   0.855   1.637  1.6117  1.9554 -1.5055
 7161TIP3   OH242897   0.414   6.376   2.227  0.0048 -0.1270  0.2370
 7161TIP3    H142898   0.427   6.378   2.133 -0.2936 -1.0193  0.1677
 7161TIP3    H242899   0.485   6.322   2.260 -0.0682 -0.0716  0.4901
 7162TIP3   OH242900   4.625   5.225   3.426  0.2146 -0.1180  0.0693
 7162TIP3    H142901   4.531   5.215   3.444  0.0718 -0.9793 -1.0870
 7162TIP3    H242902   4.663   5.250   3.510 -1.0159 -0.0152  0.6043
 7163TIP3   OH242903   3.995   5.799   5.066 -0.1908 -0.2105 -0.2758
 7163TIP3    H142904   4.049   5.856   5.120  0.0101 -1.2387  0.6300
 7163TIP3    H242905   4.035   5.802   4.979  0.1502  0.5678 -0.0956
 7164TIP3   OH242906   2.911   0.138  15.809  0.2163  0.3176  0.0449
 7164TIP3    H142907   2.930   0.081  15.734 -0.3600 -0.0917  0.2050
 7164TIP3    H242908   2.979   0.205  15.806  1.4426 -0.8980  0.3984
 7165TIP3   OH242909   5.757   3.935   4.168  0.0365  0.2565 -0.1617
 7165TIP3    H142910   5.845   3.972   4.183  0.5680 -1.0852  0.1046
 7165TIP3    H242911   5.725   3.980   4.091  1.5256 -0.2062 -1.0743
 7166TIP3   OH242912   3.528   4.202   2.537  0.0842  0.1226 -0.0735
 7166TIP3    H142913   3.500   4.205   2.628  0.6076 -1.7876  0.1605
 7166TIP3    H242914   3.525   4.110   2.513  2.1769  0.3259 -1.2870
 7167TIP3   OH242915   0.873   1.682  14.075 -0.5525  0.0056 -0.3204
 7167TIP3    H142916   0.959   1.682  14.033  0.7994  1.6858  2.2700
 7167TIP3    H242917   0.834   1.766  14.051 -0.9515 -0.2158 -0.4607
 7168TIP3   OH242918   1.400   4.264  10.962 -0.0821  0.0020 -0.0958
 7168TIP3    H142919   1.310   4.246  10.937  0.5580  0.2841 -2.7876
 7168TIP3    H242920   1.448   4.184  10.941 -0.0607 -0.9707  3.4585
 7169TIP3   OH242921   0.743   0.845   4.813  0.5410  0.6326  0.4587
 7169TIP3    H142922   0.730   0.864   4.906 -0.9833  0.5760  0.2645
 7169TIP3    H242923   0.687   0.909   4.768  1.8116  1.1261 -0.4473
 7170TIP3   OH242924   2.767   5.889   4.268  0.0034 -0.1789  0.2248
 7170TIP3    H142925   2.688   5.934   4.239 -0.0935 -1.0643 -0.9095
 7170TIP3    H242926   2.755   5.880   4.363 -1.1228 -0.0628  0.1037
 7171TIP3   OH242927   2.233   3.853   0.531 -0.2564  0.0617  0.4291
 7171TIP3    H142928   2.327   3.859   0.549 -0.3253 -0.7483  1.1035
 7171TIP3    H242929   2.227   3.830   0.439  0.2120  0.2550  0.3497
 7172TIP3   OH242930   5.164   5.557  15.639  0.6022  0.0083 -0.3540
 7172TIP3    H142931   5.139   5.567  15.731  0.7986 -3.7342  0.1668
 7172TIP3    H242932   5.214   5.475  15.636 -0.3696 -0.5408 -3.9792
 7173TIP3   OH242933   5.800   4.276   0.972 -0.3441  1.0337  0.2880
 7173TIP3    H142934   5.855   4.204   0.942 -0.0158  1.8204 -1.0517
 7173TIP3    H242935   5.712   4.237   0.979 -0.2133  0.5498 -0.6410
 7174TIP3   OH242936   1.022   2.533  12.734 -0.8179 -0.6373  0.5011
 7174TIP3    H142937   1.061   2.460  12.685  0.9595  1.6691 -1.6289
 7174TIP3    H242938   0.955   2.568  12.675 -0.4524  0.5507  0.7973
 7175TIP3   OH242939   6.183   4.167  16.918  0.3322  0.1870 -0.2710
 7175TIP3    H142940   6.229   4.118  16.850 -2.3839 -0.3123 -1.8262
 7175TIP3    H242941   6.146   4.100  16.976  0.2787  0.5275  0.0916
 7176TIP3   OH242942   1.341   5.953  14.678  0.3732  0.0176 -0.2203
 7176TIP3    H142943   1.376   6.006  14.751 -0.1608  2.2863 -1.5492
 7176TIP3    H242944   1.416   5.941  14.619  0.4085 -0.4243 -0.0866
 7177TIP3   OH242945   2.677   3.605   4.728  0.5224 -0.3084 -0.4066
 7177TIP3    H142946   2.707   3.515   4.718  1.0035 -0.0070 -1.7716
 7177TIP3    H242947   2.586   3.604   4.697 -0.5531 -0.9505  2.5277
 7178TIP3   OH242948   0.103   4.893  12.260 -0.2190 -0.4609  0.2952
 7178TIP3    H142949   0.028   4.887  12.319 -0.6146  0.0531 -0.1417
 7178TIP3    H242950   0.098   4.981  12.223  1.2829 -0.0026  1.1411
 7179TIP3   OH242951   5.970   1.392   3.906 -0.5060  0.4665 -0.5618
 7179TIP3    H142952   5.901   1.343   3.950  0.1829 -0.1630 -0.1683
 7179TIP3    H242953   6.005   1.451   3.972  1.3322 -1.3118  0.1242
 7180TIP3   OH242954   3.064   2.993   3.735  0.6468 -0.1766  0.1454
 7180TIP3    H142955   3.103   2.977   3.650  1.2621  3.3199 -0.3047
 7180TIP3    H242956   3.138   3.005   3.794  0.2175 -1.7443  1.0512
 7181TIP3   OH242957   1.588   1.102   3.717  0.2411 -0.0756 -0.4972
 7181TIP3    H142958   1.569   1.029   3.658 -0.6189 -0.8332  0.6776
 7181TIP3    H242959   1.603   1.060   3.802 -0.3189  1.1196  0.2023
 7182TIP3   OH242960   5.288   2.084  14.649 -0.2168 -0.2937 -0.3875
 7182TIP3    H142961   5.279   1.990  14.661 -1.8511 -0.2064 -0.8957
 7182TIP3    H242962   5.311   2.117  14.736  4.4568 -1.5990 -0.9886
 7183TIP3   OH242963   1.709   3.547  14.901 -0.4538  0.1387 -0.6362
 7183TIP3    H142964   1.676   3.463  14.933 -0.1775 -0.1316 -1.0556
 7183TIP3    H242965   1.642   3.578  14.840 -0.8460  0.5188 -0.0216
 7184TIP3   OH242966   2.746   1.077  12.876  0.0309 -0.3618 -0.3107
 7184TIP3    H142967   2.794   1.121  12.806 -0.7744  0.3189 -0.4499
 7184TIP3    H242968   2.691   1.146  12.914 -2.4294 -1.5743 -1.5842
 7185TIP3   OH242969   2.931   6.667   5.368 -0.2252 -0.7044 -0.5789
 7185TIP3    H142970   2.845   6.625   5.367 -1.4684  1.7475 -1.5316
 7185TIP3    H242971   2.944   6.697   5.278 -0.1850  2.3716  0.3746
 7186TIP3   OH242972   3.146   6.666  15.502 -0.5178 -0.2458 -0.7018
 7186TIP3    H142973   3.062   6.711  15.511 -0.4974  0.3526 -3.2931
 7186TIP3    H242974   3.133   6.605  15.429  0.9251 -1.0776 -0.2859
 7187TIP3   OH242975   3.130   5.816  15.386  0.3237  0.0727 -0.2894
 7187TIP3    H142976   3.170   5.842  15.468  1.8614 -3.0808  0.0461
 7187TIP3    H242977   3.052   5.767  15.411  0.1170  0.1640 -0.7402
 7188TIP3   OH242978   6.637   3.459  14.551  0.4746 -0.7219 -0.5029
 7188TIP3    H142979   6.711   3.519  14.543  0.2807  0.1624  3.2188
 7188TIP3    H242980   6.651   3.414  14.634 -3.8320  0.5633  1.0998
 7189TIP3   OH242981   3.571   3.899   2.491 -0.5663 -0.5781  0.3020
 7189TIP3    H142982   3.504   3.840   2.525  0.5069 -2.3194 -0.5290
 7189TIP3    H242983   3.596   3.861   2.406  0.5867  0.7248  0.0301
 7190TIP3   OH242984   2.691   3.291  14.382 -0.3996 -0.0678  0.3323
 7190TIP3    H142985   2.607   3.307  14.425 -1.3163 -1.1030 -0.9947
 7190TIP3    H242986   2.677   3.210  14.332  1.5737 -0.5619  0.5456
 7191TIP3   OH242987   6.742   6.739  13.569  0.1242 -1.3882 -0.4078
 7191TIP3    H142988   6.763   6.760  13.478  0.9682 -1.9581 -0.3444
 7191TIP3    H242989   6.661   6.788  13.587  2.3352  2.3225 -0.0684
 7192TIP3   OH242990   3.588   3.584   4.496 -0.5204 -0.3687 -0.1138
 7192TIP3    H142991   3.580   3.656   4.434 -0.8561 -1.4089 -1.3000
 7192TIP3    H242992   3.669   3.539   4.470 -0.1923 -0.2936  0.7542
 7193TIP3   OH242993   3.036   5.088  12.679 -0.4262  0.0573  0.0023
 7193TIP3    H142994   3.054   4.994  12.673 -3.5871 -0.5787 -0.9120
 7193TIP3    H242995   3.039   5.119  12.589  0.7554  0.8660  0.3194
 7194TIP3   OH242996   2.587   1.401   2.888 -0.5171 -1.0137  0.5992
 7194TIP3    H142997   2.571   1.429   2.798  2.2820  0.5255  0.5588
 7194TIP3    H242998   2.534   1.460   2.942 -1.6298 -1.4808  0.0405
 7195TIP3   OH242999   2.799   2.459  12.356  0.0820  0.2729 -0.4244
 7195TIP3    H143000   2.844   2.529  12.403 -1.1318  0.6793  0.1609
 7195TIP3    H243001   2.869   2.406  12.318  1.0590  0.6404  0.8278
 7196TIP3   OH243002   3.438   1.046   0.989 -0.0683  1.0067  0.1968
 7196TIP3    H143003   3.450   1.140   0.974  1.7001  0.7254 -0.2104
 7196TIP3    H243004   3.486   1.028   1.070 -0.5139  0.4763  0.3471
 7197TIP3   OH243005   2.679   0.400  16.700 -0.6837 -0.8458  0.1717
 7197TIP3    H143006   2.690   0.382  16.607  0.1856 -2.7176  0.6155
 7197TIP3    H243007   2.753   0.355  16.742 -0.1046  1.3680  1.6272
 7198TIP3   OH243008   5.656   0.263   5.874 -0.1762 -0.6018 -0.6585
 7198TIP3    H143009   5.748   0.280   5.891  0.3505 -2.4422 -1.5745
 7198TIP3    H243010   5.626   0.214   5.950 -0.2647 -0.5223 -0.6413
 7199TIP3   OH243011   5.146   0.327   3.514 -0.1412  0.7706  0.3159
 7199TIP3    H143012   5.104   0.407   3.481 -1.3159  0.1689  0.3530
 7199TIP3    H243013   5.217   0.311   3.452  1.8564  3.3572  1.8125
 7200TIP3   OH243014   2.023   5.107   0.232  0.1801 -0.0983  0.5123
 7200TIP3    H143015   1.979   5.057   0.163  0.7567  0.9829 -0.6594
 7200TIP3    H243016   2.049   5.041   0.296 -1.2835 -0.9899  0.1994
 7201TIP3   OH243017   2.871   5.687  12.134  0.7463  0.0256  0.3786
 7201TIP3    H143018   2.879   5.767  12.082  0.3089  0.5836  1.1527
 7201TIP3    H243019   2.959   5.650  12.136  0.5245 -0.6897 -1.8173
 7202TIP3   OH243020   5.544   2.190  14.602 -0.1987  0.0159  0.0593
 7202TIP3    H143021   5.454   2.164  14.619  0.3145 -1.5922  0.3798
 7202TIP3    H243022   5.593   2.108  14.597  1.4066  0.8964  0.7466
 7203TIP3   OH243023   2.059   1.036  11.238  0.0326 -0.0906  0.4467
 7203TIP3    H143024   2.001   1.093  11.289  0.3039  0.5194  0.0758
 7203TIP3    H243025   2.053   1.069  11.149 -0.2023 -0.9695  0.1330
 7204TIP3   OH243026   2.256   2.911   3.038 -0.3870  0.2548 -0.3642
 7204TIP3    H143027   2.263   3.005   3.018  1.5193  0.2312  0.1235
 7204TIP3    H243028   2.335   2.891   3.087 -1.9949 -1.0941  1.7302
 7205TIP3   OH243029   4.305   6.435   6.303 -0.6207  0.4435  0.0883
 7205TIP3    H143030   4.395   6.436   6.272 -0.9902  0.3093 -1.0120
 7205TIP3    H243031   4.285   6.527   6.323 -0.4211  0.5436 -0.1838
 7206TIP3   OH243032   3.798   6.312   0.425 -0.2510  0.4823  0.2365
 7206TIP3    H143033   3.746   6.275   0.354  2.1381 -0.4714 -1.0815
 7206TIP3    H243034   3.812   6.239   0.486  1.1614  0.2214 -0.3918
 7207TIP3   OH243035   2.989   4.064   6.525  0.1861 -0.6849  0.8795
 7207TIP3    H143036   2.893   4.068   6.524  0.2477  2.3875 -0.7699
 7207TIP3    H243037   3.014   4.112   6.604  0.3878 -3.6935  2.7244
 7208TIP3   OH243038   0.891   5.905  17.130  0.0734  0.3302  0.2415
 7208TIP3    H143039   0.949   5.962  17.078  0.5476 -0.2362  0.1447
 7208TIP3    H243040   0.950   5.858  17.189 -0.2581 -0.4538 -0.0471
 7209TIP3   OH243041   6.057   4.252   0.377 -0.3352 -0.2473 -0.0828
 7209TIP3    H143042   6.122   4.266   0.446  1.1779  2.4360 -2.0049
 7209TIP3    H243043   5.979   4.299   0.408  0.2019  0.5877  0.0048
 7210TIP3   OH243044   1.447   4.577  15.676  0.2540 -0.2985  0.0615
 7210TIP3    H143045   1.476   4.567  15.585  0.7725 -0.4396  0.2393
 7210TIP3    H243046   1.355   4.553  15.674 -0.0620  0.9338 -0.6634
 7211TIP3   OH243047   1.195   3.371  16.846 -0.6334 -0.0175  0.1479
 7211TIP3    H143048   1.202   3.406  16.935  0.7253 -2.6783  1.1367
 7211TIP3    H243049   1.284   3.379  16.810 -0.6349 -1.1451 -0.1160
 7212TIP3   OH243050   6.001   1.610   5.945  0.0952  0.2105  0.3166
 7212TIP3    H143051   5.942   1.616   6.020 -2.0127  0.7149 -1.3376
 7212TIP3    H243052   6.073   1.669   5.967  0.7599 -1.5332  3.0157
 7213TIP3   OH243053   2.610   5.739  12.936  0.1072  0.1877 -0.1892
 7213TIP3    H143054   2.606   5.805  13.005  1.1701  0.5708 -0.4806
 7213TIP3    H243055   2.653   5.784  12.863  0.9134 -0.8468 -0.3598
 7214TIP3   OH243056   1.808   0.958  12.438 -0.2911 -0.0191  0.3986
 7214TIP3    H143057   1.873   0.909  12.388 -1.2773 -0.5234 -0.4123
 7214TIP3    H243058   1.748   0.991  12.371 -1.4987 -0.5098  1.2429
 7215TIP3   OH243059   4.112   5.200  11.768 -0.2764 -0.5174 -0.1421
 7215TIP3    H143060   4.097   5.134  11.701 -0.3502 -0.8129  0.1644
 7215TIP3    H243061   4.026   5.242  11.779  0.2274  0.9820 -1.7569
 7216TIP3   OH243062   6.609   4.265   5.896  0.0382 -0.4516  0.1116
 7216TIP3    H143063   6.641   4.199   5.834  0.0657  0.7422 -1.1721
 7216TIP3    H243064   6.682   4.281   5.955  0.8911  0.2645 -1.1289
 7217TIP3   OH243065   0.942   1.137  13.742  0.6328  0.1710 -0.0948
 7217TIP3    H143066   0.986   1.208  13.788  0.1704  0.5640 -0.2504
 7217TIP3    H243067   0.888   1.094  13.809  0.9441 -0.0652  0.0086
 7218TIP3   OH243068   3.977   6.739   2.218  0.3162  0.7851 -0.3261
 7218TIP3    H143069   3.953   6.735   2.311  0.3864  0.1686 -0.3329
 7218TIP3    H243070   3.915   6.801   2.180  0.8559  1.7220  0.3079
 7219TIP3   OH243071   0.214   0.287  12.745  0.5824  0.3865  0.2825
 7219TIP3    H143072   0.140   0.247  12.791  0.1976 -0.6802 -1.2333
 7219TIP3    H243073   0.186   0.377  12.729 -0.7535 -0.2275 -0.9915
 7220TIP3   OH243074   2.531   0.241   0.810  0.0493  0.1777 -0.5826
 7220TIP3    H143075   2.507   0.214   0.721 -0.0932  2.5573 -1.2777
 7220TIP3    H243076   2.464   0.304   0.835  1.3473  1.1980  0.3615
 7221TIP3   OH243077   0.132   1.746  13.158  0.8447  0.4089 -0.7965
 7221TIP3    H143078   0.183   1.805  13.215  1.3906 -0.0222 -0.8379
 7221TIP3    H243079   0.182   1.665  13.157  0.2685  0.0539 -1.0246
 7222TIP3   OH243080   6.268   5.171  14.331  0.2993  0.8559  0.1247
 7222TIP3    H143081   6.208   5.174  14.257  0.5951 -0.9018 -0.2085
 7222TIP3    H243082   6.328   5.244  14.316  0.5750  0.3061 -1.5676
 7223TIP3   OH243083   2.005   3.569   1.316 -0.4805  0.8293 -0.3610
 7223TIP3    H143084   1.958   3.579   1.233 -0.2514  0.9565 -0.4782
 7223TIP3    H243085   2.094   3.544   1.289 -0.7588 -0.4572 -0.1117
 7224TIP3   OH243086   5.102   1.273  12.719 -0.1817 -0.1513  0.3557
 7224TIP3    H143087   5.061   1.305  12.799  0.9988  0.6689  0.6455
 7224TIP3    H243088   5.030   1.268  12.656 -0.6872  1.5792  0.7654
 7225TIP3   OH243089   5.306   5.178  16.548  0.1240  0.0369 -0.1528
 7225TIP3    H143090   5.359   5.195  16.625  0.0351  0.6263 -0.2216
 7225TIP3    H243091   5.251   5.103  16.572  0.6319 -0.2601  0.0829
 7226TIP3   OH243092   6.686   3.442   5.118 -0.4181  0.2161  0.6910
 7226TIP3    H143093   6.679   3.347   5.106 -1.4363  0.4733 -0.8746
 7226TIP3    H243094   6.637   3.460   5.198  0.2684 -0.6389  1.3168
 7227TIP3   OH243095   6.529   3.512   1.128 -0.0347  0.0132  0.2784
 7227TIP3    H143096   6.548   3.462   1.048  0.1643  0.3609  0.1056
 7227TIP3    H243097   6.557   3.455   1.199 -0.0608 -0.2339  0.0919
 7228TIP3   OH243098   2.718   4.927   5.016 -0.2950  0.3625 -0.2184
 7228TIP3    H143099   2.784   4.861   4.995  0.4715  0.9942  0.1847
 7228TIP3    H243100   2.707   4.977   4.935 -0.3280  0.2109 -0.3068
 7229TIP3   OH243101   2.546   4.725  16.680  0.1020  0.0404 -0.2513
 7229TIP3    H143102   2.522   4.636  16.707 -0.6836  0.3797  0.2016
 7229TIP3    H243103   2.575   4.768  16.760  0.9782  0.0334 -0.5675
 7230TIP3   OH243104   4.572   4.859  13.162  0.3151 -0.0267  0.0358
 7230TIP3    H143105   4.588   4.778  13.114  2.4849  0.3133  0.1182
 7230TIP3    H243106   4.626   4.924  13.118  0.9781  0.6749  1.8489
 7231TIP3   OH243107   0.469   1.323  15.877 -0.5947 -0.0670 -0.5637
 7231TIP3    H143108   0.467   1.389  15.808 -0.3620  0.9192  0.3588
 7231TIP3    H243109   0.388   1.337  15.927 -0.1781  0.0221  0.0940
 7232TIP3   OH243110   3.915   1.098   1.137 -0.4103 -0.3979  0.1772
 7232TIP3    H143111   3.951   1.172   1.087  0.6922 -0.6310  0.6074
 7232TIP3    H243112   3.852   1.138   1.196  0.1063  0.1948  0.3346
 7233TIP3   OH243113   6.735   1.924  13.740 -0.6460  0.1314 -0.3891
 7233TIP3    H143114   6.745   1.851  13.678 -2.0054 -0.8040  0.4710
 7233TIP3    H243115   6.678   1.986  13.694 -0.1496  0.2895 -0.7998
 7234TIP3   OH243116   5.226   1.369  15.856  0.1601 -0.5471  0.2816
 7234TIP3    H143117   5.316   1.377  15.886  0.3052  0.2352 -0.3453
 7234TIP3    H243118   5.228   1.398  15.765 -0.5217 -1.5892 -0.0735
 7235TIP3   OH243119   3.000   2.523   1.951  0.4529 -0.0254 -0.3182
 7235TIP3    H143120   3.017   2.575   2.029  0.0328  1.1663 -0.9969
 7235TIP3    H243121   3.005   2.586   1.879  0.1683 -0.9744 -1.1838
 7236TIP3   OH243122   5.279   2.349  11.838  0.2815  0.1418 -0.3069
 7236TIP3    H143123   5.218   2.417  11.808  0.6732  1.1696  1.1925
 7236TIP3    H243124   5.293   2.368  11.930 -0.1628 -2.4151  0.3203
 7237TIP3   OH243125   5.202   5.443  14.201 -0.1473  0.2920 -0.0917
 7237TIP3    H143126   5.260   5.443  14.125  2.5439  0.5600  1.8864
 7237TIP3    H243127   5.122   5.399  14.171  0.4385  1.3683 -3.3395
 7238TIP3   OH243128   3.428   6.736  15.449 -0.6893  0.3315  0.0743
 7238TIP3    H143129   3.436   6.772  15.537  0.2565 -1.9176  0.9555
 7238TIP3    H243130   3.335   6.714  15.440 -0.6516 -0.1187  0.7949
 7239TIP3   OH243131   4.528   0.751   4.745  0.4661  0.0064  0.0369
 7239TIP3    H143132   4.447   0.746   4.695  0.2203  0.4910  0.3869
 7239TIP3    H243133   4.588   0.693   4.698  0.4751  1.0459 -1.2644
 7240TIP3   OH243134   3.010   3.746   0.905 -0.1974  0.5708  0.2345
 7240TIP3    H143135   2.952   3.683   0.947 -0.3708 -0.3218 -1.3228
 7240TIP3    H243136   2.973   3.760   0.819  1.6346  0.3326 -0.6265
 7241TIP3   OH243137   0.938   0.482  15.863  0.6003 -0.0635  0.0224
 7241TIP3    H143138   0.936   0.473  15.767 -1.5350 -1.1778  0.1264
 7241TIP3    H243139   1.000   0.415  15.891  0.0186 -0.8406 -0.5026
 7242TIP3   OH243140   4.961   3.640  12.561 -0.3624  0.2540  0.1549
 7242TIP3    H143141   5.047   3.596  12.562 -0.6515 -0.3250  1.2478
 7242TIP3    H243142   4.938   3.648  12.654 -1.8901 -0.3867 -0.1493
 7243TIP3   OH243143   0.651   3.420   4.366 -0.1292  0.2457 -0.0633
 7243TIP3    H143144   0.569   3.451   4.327 -0.6448 -1.2587 -0.1958
 7243TIP3    H243145   0.716   3.429   4.296 -0.3988  0.4451 -0.2886
 7244TIP3   OH243146   4.417   5.997   2.947  0.4051 -0.0638 -0.6860
 7244TIP3    H143147   4.426   5.989   2.852 -0.2831  1.9544 -0.9664
 7244TIP3    H243148   4.323   5.989   2.963  0.5123 -0.3526 -0.1928
 7245TIP3   OH243149   0.166   5.322  16.749  0.5481  0.8874  0.0293
 7245TIP3    H143150   0.222   5.248  16.776  0.0218  1.4416  2.7206
 7245TIP3    H243151   0.092   5.319  16.809 -0.3223  2.6133 -0.9444
 7246TIP3   OH243152   6.182   0.725   2.299 -0.3228  0.0751 -0.8640
 7246TIP3    H143153   6.116   0.670   2.341 -0.9671  0.9761 -0.6874
 7246TIP3    H243154   6.264   0.703   2.343 -0.9882  1.0119  0.8639
 7247TIP3   OH243155   1.488   4.293   5.172  0.2154 -0.2527 -0.3959
 7247TIP3    H143156   1.504   4.229   5.241 -0.2801 -0.5997 -0.6021
 7247TIP3    H243157   1.405   4.334   5.197  0.7212  0.5818 -0.0579
 7248TIP3   OH243158   5.066   1.023  12.918  0.5302 -0.2394  0.4274
 7248TIP3    H143159   5.152   1.010  12.878  0.4362  1.7322 -0.4591
 7248TIP3    H243160   5.062   1.117  12.937 -1.3239 -0.3583  0.7202
 7249TIP3   OH243161   0.835   3.556  10.735  0.0040  0.0898 -0.2179
 7249TIP3    H143162   0.774   3.628  10.747 -0.1349 -0.0734  0.0602
 7249TIP3    H243163   0.784   3.488  10.690 -0.2687 -0.3900  0.8197
 7250TIP3   OH243164   3.380   5.122   0.526 -0.5220  0.4108  0.5650
 7250TIP3    H143165   3.467   5.096   0.495 -1.0766  1.4527 -2.0861
 7250TIP3    H243166   3.390   5.214   0.552 -1.2133  1.1462 -1.6295
 7251TIP3   OH243167   5.913   2.226  15.492 -0.3029 -0.1904  0.3174
 7251TIP3    H143168   5.915   2.207  15.398  1.2187  0.3316  0.2441
 7251TIP3    H243169   5.999   2.262  15.512 -1.0791  1.0151  1.6443
 7252TIP3   OH243170   4.600   2.562   2.399  0.0322 -1.2120  0.2327
 7252TIP3    H143171   4.606   2.581   2.305  3.2409 -0.3763  0.5349
 7252TIP3    H243172   4.518   2.515   2.409 -1.1769  0.1184 -2.7541
 7253TIP3   OH243173   5.359   6.092   2.246 -0.4838  0.2577  0.1431
 7253TIP3    H143174   5.441   6.074   2.201 -1.4351 -1.7397 -0.8771
 7253TIP3    H243175   5.385   6.125   2.332  1.3639  0.9494 -0.6603
 7254TIP3   OH243176   0.067   5.502   4.690 -0.1531  0.3965 -0.4405
 7254TIP3    H143177  -0.018   5.459   4.697 -0.1728  0.5567  0.3085
 7254TIP3    H243178   0.058   5.582   4.741  1.6769 -1.4689  2.9670
 7255TIP3   OH243179   6.556   5.327   3.626 -0.0110 -0.2515 -0.2827
 7255TIP3    H143180   6.650   5.347   3.627  0.0998 -0.4919 -2.5101
 7255TIP3    H243181   6.515   5.402   3.668  1.1063  0.3454 -0.2359
 7256TIP3   OH243182   2.000   5.956  11.183 -0.1028 -0.6248 -0.3627
 7256TIP3    H143183   2.086   5.921  11.208 -0.3135 -1.0013 -0.1552
 7256TIP3    H243184   2.019   6.019  11.114  0.4468  0.0597  0.4017
 7257TIP3   OH243185   0.952   5.646   0.631  0.0800 -0.1348 -0.0770
 7257TIP3    H143186   1.025   5.596   0.595 -0.0912 -1.5572  1.4782
 7257TIP3    H243187   0.992   5.703   0.696 -0.1223 -0.5644  0.4285
 7258TIP3   OH243188   2.312   0.822   0.799 -0.0629  0.4253  0.2597
 7258TIP3    H143189   2.242   0.887   0.801 -0.6525 -0.2268  1.8553
 7258TIP3    H243190   2.275   0.747   0.752 -1.4462 -0.9706  3.4020
 7259TIP3   OH243191   4.275   0.447  10.664  0.4927 -0.0900  0.5008
 7259TIP3    H143192   4.186   0.428  10.695  0.6072 -0.2164  0.7511
 7259TIP3    H243193   4.330   0.381  10.706  0.4211 -1.3157 -1.2828
 7260TIP3   OH243194   2.558   0.795  11.188  0.2891 -0.0575  0.2552
 7260TIP3    H143195   2.645   0.788  11.226  0.8956  1.3591 -0.8546
 7260TIP3    H243196   2.499   0.770  11.259  1.5842 -0.9617  1.0325
 7261TIP3   OH243197   1.203   4.678  14.199 -0.6416 -0.0400  0.2803
 7261TIP3    H143198   1.252   4.720  14.269  1.0702 -1.9642  0.2625
 7261TIP3    H243199   1.207   4.740  14.126 -1.4423  1.4544  1.4828
 7262TIP3   OH243200   2.487   4.776   0.586 -0.4246  0.2561 -0.3514
 7262TIP3    H143201   2.537   4.721   0.525 -0.3574  0.4694 -0.4847
 7262TIP3    H243202   2.535   4.769   0.668  0.9711  2.0807 -0.9836
 7263TIP3   OH243203   4.673   3.562   0.618  0.0771  0.4029  0.1991
 7263TIP3    H143204   4.695   3.520   0.701  0.4643  0.7630  0.2825
 7263TIP3    H243205   4.642   3.491   0.562  3.6775 -0.5477 -0.7328
 7264TIP3   OH243206   1.470   3.968   4.936 -0.4276 -0.1248  0.0811
 7264TIP3    H143207   1.565   3.962   4.921 -0.5707  0.2473 -1.0548
 7264TIP3    H243208   1.434   3.894   4.888 -0.7793  0.2076 -0.1680
 7265TIP3   OH243209   0.556   6.520   2.814 -0.2061 -0.1451  0.6299
 7265TIP3    H143210   0.623   6.582   2.844 -1.1957  0.5971  1.3578
 7265TIP3    H243211   0.511   6.567   2.744 -0.0927 -0.5562  0.2877
 7266TIP3   OH243212   0.345   5.838  13.985  0.3390 -0.0626 -0.5730
 7266TIP3    H143213   0.335   5.846  14.080  0.2027  0.9759 -0.6734
 7266TIP3    H243214   0.257   5.854  13.950 -0.1157 -2.6621 -0.7566
 7267TIP3   OH243215   1.052   1.978   3.598  0.6541 -0.5732  0.0433
 7267TIP3    H143216   1.008   1.980   3.683  0.5164 -0.1327 -0.0407
 7267TIP3    H243217   0.983   1.956   3.536  0.7677 -0.9602  0.0515
 7268TIP3   OH243218   5.350   4.121   0.847  0.3853  0.0370  0.2714
 7268TIP3    H143219   5.343   4.031   0.878  0.5822 -0.1663 -0.2724
 7268TIP3    H243220   5.379   4.113   0.756  1.0766  0.6683  0.4329
 7269TIP3   OH243221   6.303   1.843   5.179 -0.0537 -0.3249 -0.2419
 7269TIP3    H143222   6.343   1.889   5.253  1.9314 -0.5513 -1.1506
 7269TIP3    H243223   6.370   1.781   5.150 -1.0782 -0.7286 -1.7856
 7270TIP3   OH243224   6.158   0.016   5.699 -0.1640 -0.0437 -0.1464
 7270TIP3    H143225   6.092   0.079   5.671  0.5875  0.2998 -1.1896
 7270TIP3    H243226   6.235   0.036   5.645  0.4381 -1.1408  0.2806
 7271TIP3   OH243227   5.846   4.296  14.668 -0.2741  0.0387 -0.4593
 7271TIP3    H143228   5.824   4.277  14.577 -0.7417  0.9841 -0.5494
 7271TIP3    H243229   5.924   4.244  14.685 -0.3493 -0.3627 -1.3152
 7272TIP3   OH243230   1.034   1.770  16.216 -0.1126 -0.2690 -0.4823
 7272TIP3    H143231   1.115   1.733  16.182 -1.1752 -2.0372 -1.1756
 7272TIP3    H243232   1.037   1.862  16.189  0.6223 -0.8402 -2.4804
 7273TIP3   OH243233   0.246   2.573  13.350 -0.2766 -0.5021 -0.5229
 7273TIP3    H143234   0.276   2.526  13.272 -0.2364  0.8675 -1.3491
 7273TIP3    H243235   0.196   2.647  13.316  0.1347  0.3720  0.7384
 7274TIP3   OH243236   4.547   4.119   5.901  0.1105 -0.5422  0.1014
 7274TIP3    H143237   4.625   4.150   5.948  0.7079 -0.0824 -1.1630
 7274TIP3    H243238   4.559   4.025   5.893 -0.1488 -0.6672  1.1426
 7275TIP3   OH243239   6.504   5.681   3.928 -0.1902 -0.1539  0.2787
 7275TIP3    H143240   6.421   5.684   3.976 -0.6894  0.3654 -0.5926
 7275TIP3    H243241   6.519   5.771   3.901 -0.0435 -0.4750 -0.7341
 7276TIP3   OH243242   5.140   3.112  11.477  0.2680  0.0494  0.1719
 7276TIP3    H143243   5.112   3.037  11.530  1.1315  0.0892  0.6896
 7276TIP3    H243244   5.226   3.087  11.443  0.8661  1.0795  0.8990
 7277TIP3   OH243245   1.397   3.680   4.015  0.1095  0.0269  0.3952
 7277TIP3    H143246   1.465   3.614   4.004  1.5449  1.7392 -1.4653
 7277TIP3    H243247   1.442   3.763   4.002 -2.0673  1.2760  0.5396
 7278TIP3   OH243248   6.371   2.036  13.360  0.2081 -0.0540 -0.0289
 7278TIP3    H143249   6.465   2.047  13.379  0.4228  1.2571 -1.7515
 7278TIP3    H243250   6.365   1.949  13.320  0.4353 -0.8340  1.5827
 7279TIP3   OH243251   0.894   6.597   2.006  0.4047 -0.0972  0.3410
 7279TIP3    H143252   0.848   6.678   2.029  1.1547  0.1280  1.0419
 7279TIP3    H243253   0.934   6.615   1.921 -1.8607 -0.7256 -0.9288
 7280TIP3   OH243254   1.437   5.186   2.945 -0.8185 -0.4722 -0.1945
 7280TIP3    H143255   1.486   5.243   3.004  2.7078  0.6262 -3.8848
 7280TIP3    H243256   1.469   5.098   2.964  1.2684  0.0261 -1.2352
 7281TIP3   OH243257   1.430   0.409  16.430 -0.0641  0.2471 -0.0903
 7281TIP3    H143258   1.436   0.495  16.472 -0.4730  0.3894 -0.3223
 7281TIP3    H243259   1.336   0.391  16.425  0.0457 -0.6155  0.7695
 7282TIP3   OH243260   0.983   6.322   2.004  0.2569 -0.6060 -0.1617
 7282TIP3    H143261   0.939   6.406   1.999  0.7599 -0.3177  0.1989
 7282TIP3    H243262   1.074   6.341   1.983  0.5347 -0.9160  0.7247
 7283TIP3   OH243263   4.954   1.077  14.679 -0.0253 -0.2902  0.0350
 7283TIP3    H143264   4.912   1.104  14.598 -0.6840 -0.4534  0.3219
 7283TIP3    H243265   4.883   1.074  14.743  0.6047  0.5254  0.7860
 7284TIP3   OH243266   3.840   3.570  16.471 -0.2237 -0.7512 -0.0738
 7284TIP3    H143267   3.865   3.581  16.562 -0.5959  0.1744 -0.0840
 7284TIP3    H243268   3.847   3.657  16.432  0.0026 -1.1452 -0.9491
 7285TIP3   OH243269   0.321   0.297  11.208 -0.1321  0.0374 -0.0376
 7285TIP3    H143270   0.293   0.218  11.162 -1.3362 -0.5573  1.6572
 7285TIP3    H243271   0.256   0.363  11.183  1.1398  0.6647 -1.8277
 7286TIP3   OH243272   0.697   4.350   4.828  0.6132 -0.0690 -0.0196
 7286TIP3    H143273   0.690   4.379   4.737  0.9546  0.3517  0.0894
 7286TIP3    H243274   0.607   4.327   4.853  0.1159  2.0969  0.2901
 7287TIP3   OH243275   1.723   5.294   3.476  0.0786  0.6703  0.7206
 7287TIP3    H143276   1.764   5.248   3.550  2.4706  1.5143 -0.0349
 7287TIP3    H243277   1.790   5.356   3.447 -1.9408  2.3995 -0.3007
 7288TIP3   OH243278   0.546   6.700   4.179 -0.4085 -0.3186 -0.4410
 7288TIP3    H143279   0.481   6.678   4.246 -1.4449  2.1863 -0.5709
 7288TIP3    H243280   0.611   6.752   4.226  0.4738 -1.1234 -0.7513
 7289TIP3   OH243281   5.763   5.955  15.152 -0.7907  0.3297  0.1368
 7289TIP3    H143282   5.725   5.868  15.165  0.0676 -0.1708 -0.6280
 7289TIP3    H243283   5.782   5.987  15.241  0.9449 -1.2036  0.3567
 7290TIP3   OH243284   5.757   4.363  15.923  0.0488 -0.4715 -0.2112
 7290TIP3    H143285   5.688   4.319  15.973 -1.3780  1.7109 -0.1859
 7290TIP3    H243286   5.710   4.418  15.861  1.8063 -1.3033 -2.3562
 7291TIP3   OH243287   4.186   5.246  15.901 -0.1008  0.2938  0.0990
 7291TIP3    H143288   4.139   5.180  15.850  2.1296 -1.8243  0.6825
 7291TIP3    H243289   4.191   5.209  15.989  0.7738  1.4465  0.5480
 7292TIP3   OH243290   2.584   5.276  12.421 -0.0216  0.2093  0.1703
 7292TIP3    H143291   2.607   5.365  12.446 -0.7767  0.5181 -0.2159
 7292TIP3    H243292   2.503   5.258  12.468  0.1715 -0.3024  0.3102
 7293TIP3   OH243293   6.441   2.883   5.922  0.0299 -0.1613 -0.0905
 7293TIP3    H143294   6.366   2.940   5.902  1.1557  1.1708 -0.5851
 7293TIP3    H243295   6.404   2.815   5.978 -1.5699  0.4389 -0.3656
 7294TIP3   OH243296   6.000   2.830  17.087 -0.5315 -0.0920  0.4726
 7294TIP3    H143297   5.998   2.909  17.141 -1.2347  0.4611 -0.3376
 7294TIP3    H243298   5.911   2.794  17.093 -1.1697  0.9961 -1.7465
 7295TIP3   OH243299   4.195   1.961   4.447 -0.4490 -0.0203 -0.2100
 7295TIP3    H143300   4.210   1.931   4.536  1.7063  0.3190 -0.4337
 7295TIP3    H243301   4.138   1.894   4.408  1.5994 -2.1004  0.3068
 7296TIP3   OH243302   3.008   2.708   1.722  0.0200  0.1459  0.2430
 7296TIP3    H143303   3.057   2.789   1.706  1.3256 -1.2526 -3.4418
 7296TIP3    H243304   2.921   2.726   1.686  0.3182 -0.0638 -0.6017
 7297TIP3   OH243305   3.104   4.790  16.622  0.0268 -0.0341 -0.1593
 7297TIP3    H143306   3.174   4.729  16.597  0.3474 -0.0351  0.7179
 7297TIP3    H243307   3.027   4.734  16.636 -0.5344  0.1249 -2.5415
 7298TIP3   OH243308   2.799   3.654   2.461 -0.6784  0.2287  0.1002
 7298TIP3    H143309   2.856   3.714   2.412  0.2964 -0.2246  0.6545
 7298TIP3    H243310   2.844   3.570   2.456 -1.5353 -0.2381  0.1708
 7299TIP3   OH243311   4.936   0.178   1.851 -0.3229 -0.5814 -0.0222
 7299TIP3    H143312   4.885   0.122   1.909 -0.1955  0.9576  1.5851
 7299TIP3    H243313   4.910   0.150   1.763 -2.0818 -1.4909  0.7587
 7300TIP3   OH243314   0.988   4.563  11.907 -0.3545  0.0038  0.3655
 7300TIP3    H143315   0.925   4.498  11.937 -1.8868  1.5735  0.6348
 7300TIP3    H243316   1.007   4.538  11.816 -0.5095 -1.1149  0.6359
 7301TIP3   OH243317   2.057   3.960   1.325  0.7016 -0.6285 -0.2013
 7301TIP3    H143318   2.041   3.890   1.262 -0.4392 -0.7560  0.2140
 7301TIP3    H243319   2.133   3.931   1.375 -0.1085 -1.8491  0.3493
 7302TIP3   OH243320   3.844   4.202  12.398 -0.4754 -0.3050 -0.0514
 7302TIP3    H143321   3.823   4.219  12.306  0.2869  2.4376  0.2099
 7302TIP3    H243322   3.926   4.152  12.396 -0.2582  0.0734 -0.8943
 7303TIP3   OH243323   3.385   1.038   2.133 -0.0658 -0.4097 -0.3553
 7303TIP3    H143324   3.418   1.128   2.136 -1.6468  0.2314 -1.5567
 7303TIP3    H243325   3.447   0.988   2.187  0.8760  1.3704  0.2533
 7304TIP3   OH243326   4.598   2.441  15.331 -0.4892 -0.4307  0.0496
 7304TIP3    H143327   4.623   2.517  15.279 -2.1920 -0.4888 -0.8932
 7304TIP3    H243328   4.672   2.381  15.323  0.3932  0.6603 -0.1036
 7305TIP3   OH243329   1.043   0.196  16.906  0.2257 -0.1790  0.0644
 7305TIP3    H143330   1.062   0.161  16.993  1.8944  1.8268  0.5443
 7305TIP3    H243331   1.022   0.119  16.853 -0.2469 -1.4785  2.0808
 7306TIP3   OH243332   0.287   3.263  12.961 -0.0242 -0.0219 -0.4048
 7306TIP3    H143333   0.325   3.348  12.938 -0.5248  0.2454 -0.2330
 7306TIP3    H243334   0.250   3.231  12.880  1.1935 -0.6142 -0.7468
 7307TIP3   OH243335   3.994   4.746  16.231  0.0988  0.2480  0.4096
 7307TIP3    H143336   4.069   4.782  16.278 -1.3373  3.4556  0.3853
 7307TIP3    H243337   3.978   4.661  16.273  1.9377  0.7997  2.3252
 7308TIP3   OH243338   2.131   4.683  12.826  0.3718  0.2169  0.0660
 7308TIP3    H143339   2.041   4.654  12.835 -0.2474  1.7233 -1.1070
 7308TIP3    H243340   2.165   4.633  12.751 -0.3571  1.6779 -1.2588
 7309TIP3   OH243341   4.247   1.902  16.673  0.1024 -0.3175  0.4823
 7309TIP3    H143342   4.230   1.965  16.743 -2.1474 -0.7864  0.3964
 7309TIP3    H243343   4.282   1.955  16.601  0.5288  0.4542  1.2492
 7310TIP3   OH243344   2.438   3.602  14.005  0.2484  0.1811 -0.0986
 7310TIP3    H143345   2.485   3.530  14.047 -0.4589  0.4605  1.1947
 7310TIP3    H243346   2.505   3.645  13.951  1.0796 -0.4343  0.4136
 7311TIP3   OH243347   1.380   5.318  12.253  0.8709 -0.2375 -0.2843
 7311TIP3    H143348   1.388   5.235  12.300  1.2511 -0.5427 -0.8728
 7311TIP3    H243349   1.468   5.355  12.256 -0.0156  1.8007  2.9386
 7312TIP3   OH243350   5.527   1.929  13.084 -0.1252 -0.7925  0.3975
 7312TIP3    H143351   5.515   1.904  13.176  1.3910  0.3638  0.9338
 7312TIP3    H243352   5.481   1.862  13.035 -2.7677 -0.3023  2.0723
 7313TIP3   OH243353   6.559   6.629   1.411 -0.4104 -0.1363  0.2112
 7313TIP3    H143354   6.521   6.700   1.359 -0.5774 -1.7908 -1.9606
 7313TIP3    H243355   6.495   6.613   1.480 -1.2677  0.5043 -0.4290
 7314TIP3   OH243356   2.035   6.757   1.209 -0.1687 -0.3001 -0.2414
 7314TIP3    H143357   2.104   6.790   1.266 -3.2609  0.7340  3.0858
 7314TIP3    H243358   2.014   6.671   1.245 -3.3944  1.1121  1.4605
 7315TIP3   OH243359   4.371   2.207   3.270 -0.5513 -0.0843  0.1174
 7315TIP3    H143360   4.344   2.182   3.182 -0.5944 -1.1240  0.4169
 7315TIP3    H243361   4.399   2.125   3.311 -0.7783  0.3426  1.1539
 7316TIP3   OH243362   0.531   6.239  13.619  0.4283 -0.2307 -0.3107
 7316TIP3    H143363   0.528   6.280  13.705  1.8874  0.0196 -0.3715
 7316TIP3    H243364   0.502   6.307  13.559 -0.8293 -0.4808 -0.0062
 7317TIP3   OH243365   3.729   1.824  14.197 -0.5450  0.4134 -0.1055
 7317TIP3    H143366   3.664   1.787  14.257  1.4216 -1.3985  0.9441
 7317TIP3    H243367   3.795   1.863  14.254  0.5152  0.1070 -1.1150
 7318TIP3   OH243368   4.392   6.564   3.567 -0.2087 -0.9780 -0.3458
 7318TIP3    H143369   4.346   6.481   3.578  0.5548 -1.3275  0.2725
 7318TIP3    H243370   4.465   6.544   3.510 -1.8236 -0.0349 -2.8394
 7319TIP3   OH243371   5.957   6.103   5.351  0.3574 -0.2273 -0.1285
 7319TIP3    H143372   5.996   6.133   5.433 -0.4202 -0.5292  0.3513
 7319TIP3    H243373   6.009   6.146   5.283 -0.2378  1.6134  0.5355
 7320TIP3   OH243374   1.659   5.901   6.527 -0.2846  0.2401  0.3412
 7320TIP3    H143375   1.571   5.908   6.564 -0.3837  0.9416 -0.0210
 7320TIP3    H243376   1.713   5.873   6.601 -0.8871 -0.6406  0.4555
 7321TIP3   OH243377   3.616   2.104  17.162 -0.1970  0.4007  0.6158
 7321TIP3    H143378   3.710   2.123  17.169  0.8197 -3.9695  0.3852
 7321TIP3    H243379   3.586   2.100  17.253  0.7876 -2.0570  0.8856
 7322TIP3   OH243380   4.628   2.149   6.420  0.2454  0.0214 -0.1708
 7322TIP3    H143381   4.600   2.101   6.497  1.8911 -0.9770 -0.1654
 7322TIP3    H243382   4.644   2.238   6.451  2.4690 -0.7614  1.0194
 7323TIP3   OH243383   6.766   2.023   4.706 -0.1767  0.0681  0.1506
 7323TIP3    H143384   6.848   2.002   4.660 -0.3410 -0.5259  0.1211
 7323TIP3    H243385   6.793   2.080   4.778 -0.0747  2.0207 -1.4063
 7324TIP3   OH243386   6.405   5.632  13.262 -0.1247  0.0164  0.2746
 7324TIP3    H143387   6.461   5.708  13.246  0.4302 -0.4140  0.1490
 7324TIP3    H243388   6.399   5.628  13.358  0.3958 -0.1709  0.3054
 7325TIP3   OH243389   5.472   4.250   5.864  1.2401 -0.0125  0.9162
 7325TIP3    H143390   5.466   4.240   5.769 -0.0485  0.2776  0.9588
 7325TIP3    H243391   5.478   4.160   5.897  3.1352 -0.0560  0.4811
 7326TIP3   OH243392   4.761   3.088  14.881  0.2305  0.2099  0.2828
 7326TIP3    H143393   4.806   3.007  14.903  1.1845  0.9221  0.9458
 7326TIP3    H243394   4.674   3.079  14.922  0.6267 -0.1088  1.0575
 7327TIP3   OH243395   5.183   6.262   5.639 -0.4986 -0.7756 -0.3328
 7327TIP3    H143396   5.106   6.314   5.618  0.6764  0.7087 -1.0493
 7327TIP3    H243397   5.240   6.321   5.688 -0.0832 -2.0424  0.7294
 7328TIP3   OH243398   4.041   3.822   6.253 -0.2490  0.6806  0.0326
 7328TIP3    H143399   4.111   3.842   6.316  0.3114  0.3597 -0.4866
 7328TIP3    H243400   3.984   3.761   6.299  1.0542 -0.8550 -0.3399
 7329TIP3   OH243401   3.346   5.897  12.532  0.0219  0.4522 -0.3826
 7329TIP3    H143402   3.291   5.832  12.575  1.0301 -1.3955 -1.8182
 7329TIP3    H243403   3.415   5.916  12.595 -1.0778  1.2499  0.6065
 7330TIP3   OH243404   0.580   0.472   1.167 -0.7184 -0.3894  0.6905
 7330TIP3    H143405   0.564   0.479   1.261  0.9982  0.8533  0.9120
 7330TIP3    H243406   0.645   0.539   1.149  0.3868 -1.8811 -1.0535
 7331TIP3   OH243407   0.348   5.057   3.455  0.3663  0.3067  0.3354
 7331TIP3    H143408   0.279   4.997   3.482  0.3787 -1.3067 -2.9753
 7331TIP3    H243409   0.411   5.002   3.408  2.1280  2.3446  0.2329
 7332TIP3   OH243410   0.833   0.384   3.861 -0.4714  0.0246  0.1807
 7332TIP3    H143411   0.761   0.326   3.886  0.5312 -0.1712  2.6722
 7332TIP3    H243412   0.827   0.389   3.765 -1.5756 -2.8574  0.0462
 7333TIP3   OH243413   5.194   4.976   2.865 -0.5931  0.0546 -0.4999
 7333TIP3    H143414   5.099   4.970   2.872 -0.6127  0.3285 -0.5494
 7333TIP3    H243415   5.210   5.018   2.781 -0.4320  0.0973 -0.4490
 7334TIP3   OH243416   4.371   6.348  15.288 -0.1964  0.3204  0.0587
 7334TIP3    H143417   4.337   6.337  15.377  0.3685 -0.4312  0.1831
 7334TIP3    H243418   4.348   6.267  15.243  0.2824  0.3477 -0.2378
 7335TIP3   OH243419   3.049   2.260  13.749 -0.3801 -0.5434  0.5118
 7335TIP3    H143420   2.976   2.206  13.717  0.0513 -0.7239 -0.1765
 7335TIP3    H243421   3.044   2.340  13.697  0.5579 -0.9937 -0.2920
 7336TIP3   OH243422   6.479   4.470  15.641 -0.6028 -0.2369  0.2649
 7336TIP3    H143423   6.435   4.552  15.618 -0.3894 -0.1494  0.1737
 7336TIP3    H243424   6.407   4.407  15.651 -0.7945  0.0494  0.7073
 7337TIP3   OH243425   0.204   4.086  10.993 -0.1228  0.1337  0.1339
 7337TIP3    H143426   0.184   4.029  10.919  0.6037 -0.3683  0.3208
 7337TIP3    H243427   0.274   4.144  10.961  1.1009 -0.9459  0.8358
 7338TIP3   OH243428   3.563   5.500   6.434  0.3842 -0.7819  0.1139
 7338TIP3    H143429   3.589   5.567   6.370  1.0205 -1.0986  0.0424
 7338TIP3    H243430   3.533   5.426   6.381 -0.6315 -0.4338  0.1956
 7339TIP3   OH243431   4.085   1.051   6.483 -0.0784 -0.3956  0.5072
 7339TIP3    H143432   4.002   1.084   6.449  0.6617 -0.0526 -0.9743
 7339TIP3    H243433   4.114   1.117   6.545 -0.4918 -0.1045  0.3918
 7340TIP3   OH243434   4.166   0.760  15.554 -0.1068 -0.0239  0.3074
 7340TIP3    H143435   4.179   0.677  15.600 -1.0378 -0.0631  0.5112
 7340TIP3    H243436   4.239   0.815  15.583 -0.4074 -0.2111  1.4671
 7341TIP3   OH243437   2.603   6.049  12.844 -0.7299 -0.0794  0.1623
 7341TIP3    H143438   2.537   6.019  12.783 -0.1385  0.6767 -0.8704
 7341TIP3    H243439   2.666   6.097  12.790  0.6130 -0.7011  1.1336
 7342TIP3   OH243440   0.014   3.750   2.723  0.4639 -0.5351 -0.4691
 7342TIP3    H143441  -0.075   3.784   2.734  0.0494 -1.1689 -1.8384
 7342TIP3    H243442   0.050   3.749   2.812 -1.8307 -2.7995  0.4767
 7343TIP3   OH243443   2.432   1.105   0.235  0.7202 -0.3590  0.0083
 7343TIP3    H143444   2.526   1.088   0.246  0.9719  0.0728 -1.3631
 7343TIP3    H243445   2.422   1.197   0.259  0.2007 -1.0466  2.5957
 7344TIP3   OH243446   5.886   4.641  12.626 -0.3007  0.4322 -0.0761
 7344TIP3    H143447   5.852   4.558  12.594 -0.4878  0.8112 -0.8605
 7344TIP3    H243448   5.980   4.625  12.639 -0.6027 -0.3450  1.2305
 7345TIP3   OH243449   2.112   1.749   1.181  0.1844 -0.3273  0.1385
 7345TIP3    H143450   2.097   1.768   1.274  1.5450  0.9991  0.1107
 7345TIP3    H243451   2.206   1.732   1.176  0.1865  0.0304 -1.0759
 7346TIP3   OH243452   5.006   5.344  12.048  0.1037  0.0837 -0.0784
 7346TIP3    H143453   4.925   5.298  12.067 -0.0011  0.8499  1.4651
 7346TIP3    H243454   4.994   5.379  11.960 -1.3473  0.3675  0.2135
 7347TIP3   OH243455   5.303   4.522   4.199 -0.3551  0.4784  0.5009
 7347TIP3    H143456   5.267   4.453   4.145 -0.3948  0.0767  1.0358
 7347TIP3    H243457   5.250   4.522   4.278  0.2811  0.4413  0.9360
 7348TIP3   OH243458   4.367   5.525   1.864  0.1518 -0.9856 -0.1354
 7348TIP3    H143459   4.377   5.479   1.948 -2.6610 -0.8690  0.3295
 7348TIP3    H243460   4.362   5.455   1.799 -0.1433 -1.1752  0.0902
 7349TIP3   OH243461   3.963   2.298  13.365  0.5702  0.2354  0.0771
 7349TIP3    H143462   3.904   2.368  13.393  0.8638 -0.0578  1.4777
 7349TIP3    H243463   3.914   2.250  13.298 -0.3328  0.6796  0.4122
 7350TIP3   OH243464   2.458   3.005   2.319  0.2965  0.0855  0.3617
 7350TIP3    H143465   2.453   2.988   2.225  1.7146 -0.5844  0.3973
 7350TIP3    H243466   2.522   3.077   2.327  0.5605 -0.2017  0.8497
 7351TIP3   OH243467   6.699   2.755   5.456 -0.8423 -0.0174  0.0138
 7351TIP3    H143468   6.752   2.675   5.469  0.5669  0.4830 -2.3103
 7351TIP3    H243469   6.652   2.766   5.538  1.0840 -1.6915  1.4056
 7352TIP3   OH243470   3.571   1.004   3.719  0.4287  0.1200  0.4013
 7352TIP3    H143471   3.480   0.977   3.733  0.6617 -0.1162  1.5276
 7352TIP3    H243472   3.575   1.029   3.627 -1.0237  1.0587  0.5779
 7353TIP3   OH243473   1.419   1.915  10.528 -0.5702  0.1931  0.2340
 7353TIP3    H143474   1.327   1.922  10.551 -0.1900  2.0498  1.3081
 7353TIP3    H243475   1.452   2.004  10.533  0.9219 -0.2043 -1.7691
 7354TIP3   OH243476   4.093   2.897  15.449 -0.2037 -0.2692 -0.8681
 7354TIP3    H143477   4.180   2.916  15.414  0.2661 -1.2547 -0.2428
 7354TIP3    H243478   4.086   2.952  15.527  0.1254 -0.6841 -0.5426
 7355TIP3   OH243479   5.485   2.666   2.765  0.3412 -0.0969 -0.1409
 7355TIP3    H143480   5.508   2.574   2.756  0.7460  0.1157 -1.3786
 7355TIP3    H243481   5.554   2.704   2.819 -0.8478 -0.9077  1.9916
 7356TIP3   OH243482   0.206   5.711   6.019  0.0552  0.5597 -0.2282
 7356TIP3    H143483   0.264   5.640   6.047 -0.9112 -0.2872 -0.3473
 7356TIP3    H243484   0.176   5.751   6.100  0.0952  0.4188 -0.1424
 7357TIP3   OH243485   6.367   0.618  17.178 -0.3904  0.8940 -0.4966
 7357TIP3    H143486   6.382   0.640  17.086  0.1203  0.0591 -0.6248
 7357TIP3    H243487   6.274   0.633  17.192 -0.4674  1.0388 -1.1457
 7358TIP3   OH243488   5.619   5.082  14.990 -0.1214  0.3507  0.4798
 7358TIP3    H143489   5.707   5.053  15.013 -1.0961 -1.7565  1.6799
 7358TIP3    H243490   5.578   5.006  14.950 -1.3058  1.4272 -0.4105
 7359TIP3   OH243491   6.385   4.360  16.940 -0.2054 -0.1790  0.4900
 7359TIP3    H143492   6.457   4.308  16.905  1.1169  1.0350  1.3480
 7359TIP3    H243493   6.317   4.296  16.959  0.6452 -1.3514 -0.3307
 7360TIP3   OH243494   6.507   1.708   2.498 -0.0942  0.2066 -0.0073
 7360TIP3    H143495   6.418   1.676   2.481 -0.2670  0.9357 -0.5178
 7360TIP3    H243496   6.552   1.696   2.414 -0.2654  1.6212 -0.3170
 7361TIP3   OH243497   1.041   0.532   5.511  0.0993  0.0636 -0.4598
 7361TIP3    H143498   1.068   0.440   5.499 -0.3813 -0.2986  1.2111
 7361TIP3    H243499   0.954   0.527   5.548 -0.3530  1.2304 -1.3415
 7362TIP3   OH243500   6.432   0.085  14.113 -0.0672 -0.1146  0.2444
 7362TIP3    H143501   6.467   0.173  14.106  2.2086 -1.1256 -1.9356
 7362TIP3    H243502   6.483   0.043  14.182 -0.8880  0.1423  1.0165
 7363TIP3   OH243503   1.009   2.020  11.275 -0.3448 -0.7810 -0.2438
 7363TIP3    H143504   0.939   2.014  11.340  0.2036  0.5951  0.4756
 7363TIP3    H243505   1.047   2.106  11.287 -0.6420 -0.2278 -2.8415
 7364TIP3   OH243506   1.756   1.474   1.015  0.2254  0.3467  0.0270
 7364TIP3    H143507   1.824   1.408   1.004  1.2123  1.1599  1.0327
 7364TIP3    H243508   1.728   1.466   1.107 -0.3496  0.6629 -0.1140
 7365TIP3   OH243509   6.142   2.474  14.762 -0.6080  0.9091  0.3658
 7365TIP3    H143510   6.135   2.540  14.831  1.1644 -0.5493  1.9826
 7365TIP3    H243511   6.209   2.509  14.703 -2.2258  2.2237 -0.7706
 7366TIP3   OH243512   0.363   5.745   5.343 -0.8196 -0.5864  0.0089
 7366TIP3    H143513   0.422   5.765   5.416 -1.3570 -0.1555  0.3338
 7366TIP3    H243514   0.418   5.748   5.265 -0.5815  0.7013  0.2099
 7367TIP3   OH243515   5.329   0.975  16.536 -0.3972  0.4195 -0.3418
 7367TIP3    H143516   5.348   0.910  16.467  0.2504  0.3808 -0.1289
 7367TIP3    H243517   5.415   1.008  16.562 -0.6395  0.4458  0.4407
 7368TIP3   OH243518   2.167   5.091   1.421  0.3802  0.3133  0.4313
 7368TIP3    H143519   2.259   5.112   1.435  0.2706  1.3630 -0.4025
 7368TIP3    H243520   2.160   5.074   1.327  0.0838 -1.6083  0.7667
 7369TIP3   OH243521   0.350   4.388   2.524 -0.7097 -0.0375  0.0981
 7369TIP3    H143522   0.367   4.296   2.507 -0.4161  0.0638 -0.1598
 7369TIP3    H243523   0.273   4.388   2.581 -1.8453 -0.3580 -1.4079
 7370TIP3   OH243524   4.078   3.112   1.261  0.2833 -0.7472  0.0958
 7370TIP3    H143525   4.018   3.183   1.240 -0.5456 -0.9869  1.5828
 7370TIP3    H243526   4.084   3.060   1.180  0.1495  0.4582 -0.6912
 7371TIP3   OH243527   5.377   2.774  10.826 -0.4593 -0.5797  0.0361
 7371TIP3    H143528   5.304   2.782  10.765 -0.6286  0.5111  0.3629
 7371TIP3    H243529   5.413   2.863  10.832  1.1563 -1.1851 -0.4397
 7372TIP3   OH243530   1.987   0.342   2.571  0.3575  0.4212  0.3083
 7372TIP3    H143531   2.080   0.357   2.588  0.7775 -0.7099 -0.8925
 7372TIP3    H243532   1.944   0.355   2.656  1.6583  0.5583  0.9519
 7373TIP3   OH243533   5.185   4.445  10.528  0.2381 -0.0141 -0.2849
 7373TIP3    H143534   5.267   4.471  10.570  0.6164  0.0471 -1.0485
 7373TIP3    H243535   5.117   4.466  10.592  0.8030  0.0855  0.2866
 7374TIP3   OH243536   1.497   1.179  13.939 -0.6580  0.0435 -0.5258
 7374TIP3    H143537   1.538   1.265  13.945 -1.5739  0.5970 -1.9377
 7374TIP3    H243538   1.441   1.175  14.016 -1.4927  1.2116 -1.0451
 7375TIP3   OH243539   3.344   3.253   6.430 -0.2885  0.0873  0.0344
 7375TIP3    H143540   3.308   3.170   6.397  0.9028 -0.3199 -0.2516
 7375TIP3    H243541   3.293   3.320   6.385  1.3794 -0.4550 -2.7709
 7376TIP3   OH243542   0.524   0.661  13.933  0.3605  0.1587 -0.3907
 7376TIP3    H143543   0.509   0.748  13.971 -0.6877 -0.3995  0.4916
 7376TIP3    H243544   0.477   0.663  13.849 -1.4695 -0.2672  0.6026
 7377TIP3   OH243545   5.991   5.244   5.360  0.2608  0.5191 -0.5001
 7377TIP3    H143546   5.945   5.160   5.358 -0.6154  0.9943 -1.2646
 7377TIP3    H243547   5.933   5.303   5.312  1.4326  1.2738 -1.0024
 7378TIP3   OH243548   5.874   3.650  11.850  0.3003 -0.2791 -0.0257
 7378TIP3    H143549   5.833   3.659  11.937  0.7629 -0.6503  0.2336
 7378TIP3    H243550   5.968   3.654  11.868  0.3925 -0.2256 -0.5274
 7379TIP3   OH243551   5.087   4.618  15.425 -0.0908  0.4105  0.7665
 7379TIP3    H143552   5.129   4.621  15.339 -0.5554 -0.5604  0.4955
 7379TIP3    H243553   5.037   4.536  15.425  0.5983 -0.0450  2.2733
 7380TIP3   OH243554   6.430   0.231   4.862  0.0502  0.3261 -0.4639
 7380TIP3    H143555   6.417   0.205   4.771 -0.3940 -1.5392  0.1115
 7380TIP3    H243556   6.350   0.205   4.907  0.6059  0.4549  0.6289
 7381TIP3   OH243557   0.057   5.908  14.148 -0.2180  0.1503 -0.3149
 7381TIP3    H143558   0.052   5.900  14.053  1.3327  2.0635 -0.6025
 7381TIP3    H243559  -0.008   5.975  14.169 -0.0309  0.2680 -0.1132
 7382TIP3   OH243560   0.964   0.796   5.601 -0.7082 -0.1585 -0.3381
 7382TIP3    H143561   1.023   0.870   5.589 -2.2710  1.3048  0.7830
 7382TIP3    H243562   0.999   0.728   5.545  1.9032  0.7598  0.1222
 7383TIP3   OH243563   2.616   0.624  14.095 -0.1791  0.4528 -0.0765
 7383TIP3    H143564   2.563   0.568  14.152  0.8501 -0.4786 -0.0191
 7383TIP3    H243565   2.582   0.609  14.007  0.9807 -1.3442 -0.2501
 7384TIP3   OH243566   2.790   3.365   3.349 -0.2467 -0.5660  0.0907
 7384TIP3    H143567   2.737   3.357   3.270 -0.2541 -0.8193  0.1230
 7384TIP3    H243568   2.762   3.293   3.405 -0.4283 -0.2323  0.4354
 7385TIP3   OH243569   2.856   4.744  14.827 -0.3669  0.2103 -0.0169
 7385TIP3    H143570   2.891   4.708  14.908 -0.7959  1.2792  0.6676
 7385TIP3    H243571   2.798   4.676  14.793  2.6074 -1.7621 -1.3928
 7386TIP3   OH243572   0.312   4.768   5.376  0.1573  0.5553  0.1141
 7386TIP3    H143573   0.230   4.733   5.342  0.6833 -0.0176 -0.5944
 7386TIP3    H243574   0.290   4.856   5.407 -0.9111  0.0628  0.7591
 7387TIP3   OH243575   5.996   1.836  14.932 -0.4664  0.1746 -0.0577
 7387TIP3    H143576   5.983   1.772  14.862 -2.3716  0.2137  0.2458
 7387TIP3    H243577   5.964   1.792  15.011 -0.0861  0.8253  0.4638
 7388TIP3   OH243578   4.674   1.933   2.341 -0.2617 -0.4440  0.0795
 7388TIP3    H143579   4.618   1.994   2.292 -1.2136 -1.7361 -0.4749
 7388TIP3    H243580   4.720   1.883   2.273  2.9099  1.7533  0.5052
 7389TIP3   OH243581   4.718   6.695   2.390 -0.3931 -0.0994  0.5646
 7389TIP3    H143582   4.708   6.633   2.317  2.1871 -1.0066  0.9269
 7389TIP3    H243583   4.637   6.685   2.440 -1.5185 -0.6211 -1.2978
 7390TIP3   OH243584   6.451   4.653   2.913 -0.0048 -0.0985  0.0910
 7390TIP3    H143585   6.411   4.705   2.843 -1.6119 -1.3139  0.0871
 7390TIP3    H243586   6.492   4.718   2.970  1.3021  0.9290 -1.9243
 7391TIP3   OH243587   1.031   0.720   6.123 -0.2643  0.3451 -0.3798
 7391TIP3    H143588   1.067   0.680   6.202  0.5632 -0.5484 -1.1968
 7391TIP3    H243589   1.054   0.813   6.130  0.4215  0.1412  0.0781
 7392TIP3   OH243590   6.295   0.727  12.468 -0.0450  0.1165 -0.6770
 7392TIP3    H143591   6.261   0.642  12.437 -0.5839 -0.2625  0.9138
 7392TIP3    H243592   6.236   0.751  12.539  0.7704  1.3103 -0.4064
 7393TIP3   OH243593   6.431   0.452   0.756 -0.1001  0.1043 -0.1521
 7393TIP3    H143594   6.433   0.373   0.810 -0.9085  0.9706  1.2079
 7393TIP3    H243595   6.501   0.440   0.693 -0.1922 -1.6815  0.0534
 7394TIP3   OH243596   2.260   6.291   0.633  0.5774  0.3939 -0.1383
 7394TIP3    H143597   2.178   6.294   0.682  1.2946  1.2842  1.0231
 7394TIP3    H243598   2.245   6.225   0.566 -0.7583 -0.1421  0.6688
 7395TIP3   OH243599   6.470   6.105  14.878 -0.0277 -0.0213 -0.2457
 7395TIP3    H143600   6.524   6.097  14.799  0.9131  1.0600  0.2858
 7395TIP3    H243601   6.531   6.132  14.947 -0.8538 -0.8927  0.8455
 7396TIP3   OH243602   6.498   1.300  14.225 -0.3358  0.3209  0.4129
 7396TIP3    H143603   6.574   1.343  14.264  0.5521 -0.9361  0.1231
 7396TIP3    H243604   6.424   1.331  14.276  0.6637 -0.3333  2.3131
 7397TIP3   OH243605   5.979   5.789   6.293  0.1117 -0.2148  0.1234
 7397TIP3    H143606   6.024   5.738   6.360 -0.1914 -1.1465 -0.3796
 7397TIP3    H243607   6.047   5.808   6.228  1.1249  3.1550  2.0481
 7398TIP3   OH243608   2.350   5.221   5.347  0.2317 -0.7779  1.0531
 7398TIP3    H143609   2.415   5.185   5.286 -1.0784 -0.8543 -0.3428
 7398TIP3    H243610   2.303   5.144   5.380 -1.4953 -0.5110 -0.6892
 7399TIP3   OH243611   5.714   3.113   3.680 -0.6707 -0.2942 -0.1271
 7399TIP3    H143612   5.710   3.049   3.752  0.8296 -0.2613  0.0174
 7399TIP3    H243613   5.799   3.097   3.640 -1.8684 -0.8915 -2.4766
 7400TIP3   OH243614   4.223   6.027   0.896  0.5497  0.4581  0.2037
 7400TIP3    H143615   4.294   6.014   0.959 -0.5322 -0.3353  1.2651
 7400TIP3    H243616   4.211   6.122   0.892 -0.1018  0.4662  2.0143
 7401TIP3   OH243617   6.341   1.361  13.150  0.2342 -0.1738  0.2727
 7401TIP3    H143618   6.392   1.293  13.194  2.3441  2.0961  1.4990
 7401TIP3    H243619   6.253   1.351  13.186  0.2638 -2.7853 -0.2511
 7402TIP3   OH243620   0.836   5.773  13.504 -0.2704 -0.0401  0.2574
 7402TIP3    H143621   0.883   5.748  13.584 -2.8423 -1.5752  1.3386
 7402TIP3    H243622   0.810   5.863  13.519  0.3997  0.1029  0.5890
 7403TIP3   OH243623   5.269   5.742   2.860 -0.6777 -0.2733  0.8299
 7403TIP3    H143624   5.347   5.724   2.913 -0.1861  2.1477  0.9468
 7403TIP3    H243625   5.196   5.732   2.921 -0.3539 -0.8543  1.1274
 7404TIP3   OH243626   1.012   3.645   0.998 -0.6206 -0.3249 -0.3459
 7404TIP3    H143627   1.092   3.652   1.050 -0.9170 -0.6857  0.1689
 7404TIP3    H243628   1.017   3.558   0.958 -0.5279 -0.1605 -0.6871
 7405TIP3   OH243629   0.309   5.445   0.377  0.2325 -0.0318  0.3033
 7405TIP3    H143630   0.222   5.438   0.415  0.8535 -0.5440  1.6834
 7405TIP3    H243631   0.336   5.535   0.396  1.2331 -0.7876  2.6917
 7406TIP3   OH243632   2.405   1.327   5.840 -0.1865 -0.6678  0.1145
 7406TIP3    H143633   2.373   1.416   5.859  0.2697 -0.3616 -0.5071
 7406TIP3    H243634   2.331   1.283   5.800 -0.0230 -0.1414 -0.7944
 7407TIP3   OH243635   5.900   2.430  15.129  0.4854 -0.2417 -0.4398
 7407TIP3    H143636   5.813   2.391  15.138 -0.7207  2.6598  1.3875
 7407TIP3    H243637   5.886   2.504  15.069  1.2368  1.3831  1.3303
 7408TIP3   OH243638   1.290   1.839   6.103 -0.1334  0.5004  0.0948
 7408TIP3    H143639   1.227   1.895   6.149 -1.3008  0.4463 -1.4233
 7408TIP3    H243640   1.245   1.812   6.024  0.4101 -2.6281  0.7879
 7409TIP3   OH243641   3.646   0.716  15.452  0.5724 -0.3836  0.2205
 7409TIP3    H143642   3.720   0.735  15.511  2.7615  0.3397 -2.6170
 7409TIP3    H243643   3.657   0.778  15.380 -0.4772 -2.9768 -2.2606
 7410TIP3   OH243644   2.271   1.595   4.515  0.1399 -0.0278 -0.6051
 7410TIP3    H143645   2.339   1.549   4.565  0.8145 -0.0905 -1.5655
 7410TIP3    H243646   2.211   1.629   4.581  1.3317  0.3822  0.2828
 7411TIP3   OH243647   6.144   6.607   5.114 -0.0768  0.3455  0.2317
 7411TIP3    H143648   6.170   6.697   5.134 -1.6881  0.4391  2.0144
 7411TIP3    H243649   6.078   6.586   5.180  0.6401 -2.3341  0.1397
 7412TIP3   OH243650   3.264   1.520   3.107 -0.1454 -0.4833  0.3652
 7412TIP3    H143651   3.303   1.571   3.178 -0.0303  0.8936 -0.6655
 7412TIP3    H243652   3.189   1.572   3.079 -1.7658 -2.2945  1.2022
 7413TIP3   OH243653   5.037   2.272  14.629  0.0771 -0.3258 -0.4952
 7413TIP3    H143654   5.119   2.255  14.584 -0.1708 -1.5194 -0.5207
 7413TIP3    H243655   4.971   2.271  14.560 -0.1139 -0.6856 -0.3125
 7414TIP3   OH243656   5.865   4.509  11.311  0.8954  0.6623 -0.4703
 7414TIP3    H143657   5.938   4.460  11.274  0.4654  0.5350 -1.1512
 7414TIP3    H243658   5.904   4.590  11.342  1.8061 -0.5355  1.6212
 7415TIP3   OH243659   6.589   1.554   3.506  0.1252  0.0896 -0.4385
 7415TIP3    H143660   6.581   1.612   3.431 -2.1339 -0.5589 -0.7370
 7415TIP3    H243661   6.605   1.467   3.468  0.0226 -0.0688 -0.1254
 7416TIP3   OH243662   6.677   4.254  14.734 -0.0787 -0.5879  0.1787
 7416TIP3    H143663   6.757   4.305  14.746  1.3273 -2.6061 -0.3866
 7416TIP3    H243664   6.686   4.180  14.794 -1.5890 -0.7586  0.2173
 7417TIP3   OH243665   4.675   4.378  13.181  0.6363  0.5892  0.1081
 7417TIP3    H143666   4.583   4.402  13.175  0.8462  1.0576 -1.4657
 7417TIP3    H243667   4.702   4.406  13.268 -0.8836 -0.2125  0.8590
 7418TIP3   OH243668   4.253   4.317   1.333  0.3735  0.5050 -0.0426
 7418TIP3    H143669   4.340   4.303   1.371  0.0223  0.9535  0.9372
 7418TIP3    H243670   4.232   4.408   1.353 -0.0059  0.6121 -0.9262
 7419TIP3   OH243671   3.255   2.713  13.155 -0.6432 -0.8872  0.0658
 7419TIP3    H143672   3.268   2.628  13.198  0.7529 -1.0380 -0.6220
 7419TIP3    H243673   3.329   2.766  13.184 -2.5638  0.7871  2.0968
 7420TIP3   OH243674   4.013   0.122  13.929 -0.4109 -0.0030  0.7337
 7420TIP3    H143675   3.968   0.205  13.943 -1.8431 -0.9656  1.9663
 7420TIP3    H243676   4.073   0.140  13.856 -1.2952  1.8701  0.4228
 7421TIP3   OH243677   6.525   4.548  16.330  0.3867 -0.8062  0.2134
 7421TIP3    H143678   6.515   4.493  16.253 -1.3891  0.0365 -0.1700
 7421TIP3    H243679   6.497   4.492  16.403 -3.3838  0.1359 -0.3839
 7422TIP3   OH243680   2.535   4.872   4.171  0.6086  0.2498 -0.3525
 7422TIP3    H143681   2.509   4.784   4.195 -1.8674  0.5425 -1.8046
 7422TIP3    H243682   2.597   4.860   4.098  1.3816 -0.3086  0.3883
 7423TIP3   OH243683   3.147   4.849   3.258 -0.0290 -0.0212  0.6744
 7423TIP3    H143684   3.242   4.847   3.270 -0.0673  0.5280  1.0530
 7423TIP3    H243685   3.135   4.885   3.170  0.1118 -0.0041  0.6622
 7424TIP3   OH243686   3.904   3.582   2.278  0.6175 -0.3840  0.0653
 7424TIP3    H143687   3.999   3.568   2.284  0.7486  0.4666  0.0467
 7424TIP3    H243688   3.867   3.519   2.340  1.1546 -1.1466 -0.3770
 7425TIP3   OH243689   4.695   4.243   4.264  0.5317 -0.3510  0.3250
 7425TIP3    H143690   4.749   4.169   4.290 -0.9914 -2.9571 -3.5377
 7425TIP3    H243691   4.608   4.222   4.298  0.3928  0.3169  0.3841
 7426TIP3   OH243692   5.405   6.627   1.570 -0.2086  0.3162  0.3162
 7426TIP3    H143693   5.349   6.557   1.604 -1.0775  1.0581  0.4177
 7426TIP3    H243694   5.397   6.620   1.475  0.4026 -0.2793  0.3016
 7427TIP3   OH243695   6.139   0.638   3.369  0.7893 -0.7880  0.2747
 7427TIP3    H143696   6.184   0.710   3.324  1.4117 -2.2020 -1.4105
 7427TIP3    H243697   6.067   0.680   3.415 -0.6693  0.5691 -3.0972
 7428TIP3   OH243698   0.547   5.785   0.764 -0.3401 -0.5817 -0.1999
 7428TIP3    H143699   0.602   5.856   0.733 -0.9869 -0.6438 -1.5230
 7428TIP3    H243700   0.605   5.730   0.816  0.2817  0.6256  0.4077
 7429TIP3   OH243701   6.750   3.956   1.284  0.3759 -0.2025 -0.0459
 7429TIP3    H143702   6.744   4.047   1.257  0.4913 -0.5798 -1.3449
 7429TIP3    H243703   6.660   3.926   1.290  0.2870  0.3033  1.4899
 7430TIP3   OH243704   3.271   1.768  11.252 -0.1367  0.1633  0.0049
 7430TIP3    H143705   3.227   1.847  11.220 -3.3372  0.2618  4.1225
 7430TIP3    H243706   3.234   1.697  11.199 -0.6997  0.9392 -0.6538
 7431TIP3   OH243707   3.101   4.545   0.895 -0.0013 -0.2409 -0.7707
 7431TIP3    H143708   3.134   4.462   0.931 -0.8411 -0.9374 -1.5811
 7431TIP3    H243709   3.098   4.530   0.800  1.8771  1.4588 -1.1291
 7432TIP3   OH243710   4.182   1.255  12.090  0.0569 -0.1510  0.3075
 7432TIP3    H143711   4.164   1.346  12.065  2.4478  0.3708  0.3962
 7432TIP3    H243712   4.209   1.213  12.009  1.5801 -0.0889  0.7794
 7433TIP3   OH243713   2.672   4.318  14.454 -0.8867  0.2440  0.4507
 7433TIP3    H143714   2.595   4.273  14.421 -1.5067  0.6150  1.3557
 7433TIP3    H243715   2.645   4.410  14.459 -0.2121  0.4538  0.2747
 7434TIP3   OH243716   0.571   5.721  16.960  0.1278 -0.9647 -0.3387
 7434TIP3    H143717   0.527   5.714  16.875 -0.0013 -1.1963 -0.2516
 7434TIP3    H243718   0.661   5.695  16.942  0.3550  0.0186 -0.6216
 7435TIP3   OH243719   1.015   6.665  15.463  0.1692 -0.5914 -0.2003
 7435TIP3    H143720   1.076   6.591  15.476  0.4992 -0.1464  0.8193
 7435TIP3    H243721   1.062   6.741  15.498 -0.5073 -0.0414 -0.4833
 7436TIP3   OH243722   4.885   5.396   5.397 -0.0169 -0.3814  0.1214
 7436TIP3    H143723   4.829   5.473   5.390 -2.3028 -2.0003  0.3352
 7436TIP3    H243724   4.940   5.413   5.473 -0.7905  0.8669  0.4098
 7437TIP3   OH243725   5.182   3.926  12.066  0.1861 -0.5956  0.4106
 7437TIP3    H143726   5.112   3.892  12.121  0.6067  0.1510  1.4203
 7437TIP3    H243727   5.244   3.965  12.127  1.3336 -0.9820 -0.5006
 7438TIP3   OH243728   3.834   3.150   2.255  0.4551  0.2087  0.2129
 7438TIP3    H143729   3.828   3.205   2.176 -0.2763  0.3573  0.3668
 7438TIP3    H243730   3.783   3.072   2.234  0.1415  0.3100  0.5863
 7439TIP3   OH243731   3.190   4.298  11.238 -0.2620 -0.3284  0.1673
 7439TIP3    H143732   3.193   4.242  11.160 -0.8490 -1.7748  1.1630
 7439TIP3    H243733   3.255   4.261  11.297  1.1930  1.6164 -0.1604
 7440TIP3   OH243734   5.556   0.058   0.617  1.0184 -0.4454  0.1943
 7440TIP3    H143735   5.577   0.135   0.563  1.6018  0.7368  2.0550
 7440TIP3    H243736   5.623   0.058   0.685 -0.4121 -1.1956  1.6305
 7441TIP3   OH243737   5.758   3.005   4.792  0.8258  0.6502 -0.1969
 7441TIP3    H143738   5.815   2.937   4.830  0.3445  0.2975 -0.1027
 7441TIP3    H243739   5.819   3.071   4.760  1.2809  0.5016  0.3369
 7442TIP3   OH243740   4.090   4.264  15.021 -0.1278 -0.0291  0.4173
 7442TIP3    H143741   4.054   4.176  15.011  1.9437 -0.8486 -0.1433
 7442TIP3    H243742   4.092   4.300  14.932  1.8920 -0.6040  0.2155
 7443TIP3   OH243743   1.079   0.947  12.350 -0.1906  0.0963  0.2501
 7443TIP3    H143744   1.082   0.917  12.259  1.1089  1.8399 -0.2935
 7443TIP3    H243745   0.995   0.992  12.357  0.6366  1.8297 -0.7049
 7444TIP3   OH243746   3.271   1.541  12.660 -0.5006 -0.0688 -0.4350
 7444TIP3    H143747   3.303   1.454  12.636  2.1051  0.9236 -0.7222
 7444TIP3    H243748   3.283   1.546  12.755 -0.9153 -0.1442 -0.3813
 7445TIP3   OH243749   5.308   0.247  11.912  0.5580 -0.1276  0.1683
 7445TIP3    H143750   5.237   0.237  11.849  0.1668 -0.9542  0.7296
 7445TIP3    H243751   5.274   0.309  11.977  0.4620 -0.3092  0.2895
 7446TIP3   OH243752   3.183   6.468   2.113 -0.0215  0.2442 -0.0256
 7446TIP3    H143753   3.273   6.454   2.082 -0.3864  0.9280 -1.4575
 7446TIP3    H243754   3.140   6.384   2.102 -0.6188  0.8908 -3.0957
 7447TIP3   OH243755   5.293   2.656  16.890  0.2449  0.2244  0.3173
 7447TIP3    H143756   5.388   2.657  16.887  0.2600 -0.3661  0.5996
 7447TIP3    H243757   5.266   2.730  16.834  0.8257 -0.6613 -1.1457
 7448TIP3   OH243758   2.453   0.330  11.521  0.0519  0.5455  0.1704
 7448TIP3    H143759   2.370   0.342  11.566 -0.5077 -1.8261 -0.1991
 7448TIP3    H243760   2.432   0.343  11.429  0.1833  0.3427  0.1136
 7449TIP3   OH243761   3.448   0.439  12.251 -0.0058  0.0193  0.0955
 7449TIP3    H143762   3.530   0.418  12.295  0.4312  2.4039  0.4649
 7449TIP3    H243763   3.472   0.447  12.158 -0.2601 -1.4646 -0.1148
 7450TIP3   OH243764   2.912   6.666  13.589 -0.5032 -0.1419 -0.2032
 7450TIP3    H143765   2.891   6.697  13.677 -2.4914 -0.6091 -0.4808
 7450TIP3    H243766   2.925   6.746  13.538  0.6526  0.1310  0.5109
 7451TIP3   OH243767   3.660   5.819  11.568  0.5155 -0.5919  0.3450
 7451TIP3    H143768   3.597   5.825  11.496  1.3821 -2.5209 -0.5986
 7451TIP3    H243769   3.608   5.833  11.647 -0.5596  0.9184 -0.5995
 7452TIP3   OH243770   3.230   3.412  16.845 -0.2240 -0.4440  0.1233
 7452TIP3    H143771   3.210   3.343  16.783 -0.4553 -1.9236  1.7917
 7452TIP3    H243772   3.325   3.425  16.838 -0.4613  0.4060 -1.5405
 7453TIP3   OH243773   5.690   1.471   0.327  0.3964 -0.3719 -0.1656
 7453TIP3    H143774   5.750   1.465   0.402  1.4346  0.9172 -0.8826
 7453TIP3    H243775   5.623   1.534   0.355 -0.6283 -1.7752  0.6162
 7454TIP3   OH243776   6.637   4.001   6.077 -0.0625 -0.0346  0.2468
 7454TIP3    H143777   6.587   4.076   6.045 -1.7016 -0.5962  1.4379
 7454TIP3    H243778   6.644   4.015   6.171 -0.1593 -1.2413  0.4421
 7455TIP3   OH243779   1.503   4.743   4.288  0.2245 -0.0563 -0.0979
 7455TIP3    H143780   1.564   4.716   4.218 -1.2661  0.8697 -1.7975
 7455TIP3    H243781   1.538   4.827   4.318  0.7005 -0.3080  0.0623
 7456TIP3   OH243782   0.909   3.841  12.279 -0.1984  0.1591  0.7377
 7456TIP3    H143783   0.864   3.757  12.268  0.5264 -0.2075  0.5407
 7456TIP3    H243784   0.901   3.860  12.373  0.5919 -0.6898  0.9983
 7457TIP3   OH243785   4.408   1.993   0.959  0.9751 -0.2231  0.5917
 7457TIP3    H143786   4.432   1.934   1.031  0.3633  1.5925  2.3286
 7457TIP3    H243787   4.491   2.032   0.932  1.2069 -0.8967  0.3142
 7458TIP3   OH243788   1.249   1.982   4.417  0.0885 -0.3281 -0.4101
 7458TIP3    H143789   1.316   1.951   4.356 -0.8126  0.9266 -2.0754
 7458TIP3    H243790   1.276   2.072   4.439 -0.1822 -0.3895  0.1936
 7459TIP3   OH243791   2.072   3.357   2.665 -0.2212  0.0467  0.7000
 7459TIP3    H143792   2.124   3.376   2.744  0.1602 -0.0012  0.4617
 7459TIP3    H243793   1.994   3.411   2.674  1.2205  2.4119 -0.3815
 7460TIP3   OH243794   0.647   2.230  16.846 -0.1042  0.0163  0.0331
 7460TIP3    H143795   0.643   2.160  16.911 -0.8031  0.3039  0.3013
 7460TIP3    H243796   0.591   2.299  16.881 -0.0839  0.3772 -0.6356
 7461TIP3   OH243797   5.429   0.175   4.075 -0.0832  0.5016 -0.1080
 7461TIP3    H143798   5.481   0.190   4.154 -0.2648  0.0721  0.0892
 7461TIP3    H243799   5.457   0.245   4.015  1.2318 -0.1401 -0.2591
 7462TIP3   OH243800   6.203   0.466  14.429  0.5996 -0.1206  0.4139
 7462TIP3    H143801   6.153   0.470  14.511  0.1571 -0.9916  0.1969
 7462TIP3    H243802   6.185   0.549  14.385 -1.3798 -0.7656 -0.0658
 7463TIP3   OH243803   5.208   1.882  17.185  0.4827  0.0032  0.2928
 7463TIP3    H143804   5.156   1.838  17.118  0.5757 -0.7218  0.6908
 7463TIP3    H243805   5.205   1.823  17.261  2.0365 -0.1548  0.2569
 7464TIP3   OH243806   1.699   0.307  11.050  0.5386  0.5571 -0.2735
 7464TIP3    H143807   1.715   0.332  10.959  2.9735 -0.4291 -0.1671
 7464TIP3    H243808   1.650   0.225  11.044 -1.5914  1.8286 -0.6524
 7465TIP3   OH243809   6.574   0.823   0.250  0.5406  0.2908  0.4054
 7465TIP3    H143810   6.592   0.810   0.157  2.1669 -0.7880  0.8356
 7465TIP3    H243811   6.573   0.918   0.262  0.1459  0.4328 -0.7400
 7466TIP3   OH243812   0.559   3.130   1.451  0.3242 -0.0251 -0.2378
 7466TIP3    H143813   0.617   3.176   1.511 -0.5605  0.2563  0.4087
 7466TIP3    H243814   0.483   3.187   1.443 -0.7705 -1.3565  0.5449
 7467TIP3   OH243815   2.950   3.055  16.517  0.5394 -0.1366 -0.2891
 7467TIP3    H143816   2.945   3.110  16.596 -0.1137 -0.5780 -0.0133
 7467TIP3    H243817   2.890   2.982  16.535 -1.2320  0.8225 -2.0253
 7468TIP3   OH243818   1.375   3.742  14.277 -0.2475  0.2030  0.5424
 7468TIP3    H143819   1.360   3.653  14.311 -1.1755  0.4750  0.8742
 7468TIP3    H243820   1.291   3.786  14.290  0.5719  1.5053  1.5074
 7469TIP3   OH243821   5.153   2.248   1.593  0.3258  0.6879 -0.0697
 7469TIP3    H143822   5.235   2.272   1.550  1.3406 -2.1547  0.1636
 7469TIP3    H243823   5.085   2.283   1.535  1.6881  0.8379 -1.6334
 7470TIP3   OH243824   3.281   4.609   4.150 -0.2693 -0.0411 -0.3058
 7470TIP3    H143825   3.329   4.662   4.213  1.8352 -1.4498 -0.6627
 7470TIP3    H243826   3.207   4.664   4.123 -0.1988  1.2446  2.0382
 7471TIP3   OH243827   3.609   3.281  12.921  0.0954  0.4441  0.4257
 7471TIP3    H143828   3.680   3.252  12.863 -1.4423 -0.6838 -0.9295
 7471TIP3    H243829   3.602   3.375  12.905 -0.9936 -0.0137 -2.0252
 7472TIP3   OH243830   4.543   4.941  17.112 -0.6458  0.0567  0.1822
 7472TIP3    H143831   4.560   4.847  17.115 -0.6437  0.0594  0.2566
 7472TIP3    H243832   4.622   4.981  17.148 -1.4370  0.0024  2.0295
 7473TIP3   OH243833   2.394   0.062   5.595 -0.4596  0.2230  0.3686
 7473TIP3    H143834   2.420   0.058   5.503 -0.0088 -2.0668  0.5673
 7473TIP3    H243835   2.407   0.154   5.619 -1.0409  0.9615 -1.9671
 7474TIP3   OH243836   6.035   3.922   1.673 -0.2727 -0.6445  0.1378
 7474TIP3    H143837   5.999   3.847   1.720 -0.4544 -1.2236 -0.9110
 7474TIP3    H243838   5.975   3.935   1.600 -1.5607  1.9707  1.5654
 7475TIP3   OH243839   6.554   2.798   0.735  0.4190 -0.3480  0.2939
 7475TIP3    H143840   6.520   2.739   0.668  2.8074 -1.7853  0.3192
 7475TIP3    H243841   6.534   2.755   0.818 -0.4423  0.3037  0.4318
 7476TIP3   OH243842   2.313   1.197   0.725 -0.3966 -0.0035  0.1121
 7476TIP3    H143843   2.302   1.291   0.710  2.4974  0.4283  0.4830
 7476TIP3    H243844   2.390   1.173   0.674  1.0661 -1.4131  2.8790
 7477TIP3   OH243845   2.048   1.632  11.966 -0.4157  0.1978  0.4438
 7477TIP3    H143846   2.009   1.616  11.880  0.6745 -1.0695  0.1756
 7477TIP3    H243847   2.138   1.660  11.947 -0.0170 -0.5615  1.1900
 7478TIP3   OH243848   0.200   6.256  15.189  0.4885  0.1457  0.0056
 7478TIP3    H143849   0.206   6.308  15.109 -1.2453  0.0021 -0.2572
 7478TIP3    H243850   0.197   6.165  15.159 -0.0751  0.0863  0.2221
 7479TIP3   OH243851   6.634   5.512   4.893 -0.1559  0.0175 -0.1673
 7479TIP3    H143852   6.634   5.607   4.900 -0.3224  0.0221 -0.2106
 7479TIP3    H243853   6.560   5.492   4.835  1.6200  0.0011 -2.4904
 7480TIP3   OH243854   4.099   2.116  15.114  0.5671  0.3991 -0.1881
 7480TIP3    H143855   4.090   2.038  15.169  0.9676  0.9864  0.7332
 7480TIP3    H243856   4.097   2.189  15.176  1.7958  1.0386 -0.8768
 7481TIP3   OH243857   4.811   1.989  12.527 -0.0140 -0.5149 -0.6689
 7481TIP3    H143858   4.890   2.037  12.550  0.4413 -1.2102 -0.7692
 7481TIP3    H243859   4.813   1.983  12.431 -0.5194  0.0326 -0.7148
 7482TIP3   OH243860   1.736   4.397  13.738  0.0033 -0.0715  0.1894
 7482TIP3    H143861   1.793   4.335  13.783 -0.1779  0.2066  0.8125
 7482TIP3    H243862   1.686   4.343  13.677 -1.4341 -0.8394  1.9831
 7483TIP3   OH243863   1.321   0.498  11.237 -0.2208  0.1828  0.2929
 7483TIP3    H143864   1.342   0.490  11.144 -0.6920 -0.6902  0.2589
 7483TIP3    H243865   1.406   0.505  11.280  0.0729 -1.0316 -0.0594
 7484TIP3   OH243866   5.585   6.444  16.302  0.5321 -0.2688  0.2092
 7484TIP3    H143867   5.676   6.461  16.323  0.2519 -0.4946  1.6164
 7484TIP3    H243868   5.582   6.351  16.280  0.8267 -0.0273 -0.8851
 7485TIP3   OH243869   0.357   0.775  11.719 -0.1213  0.2649  0.0315
 7485TIP3    H143870   0.294   0.807  11.655  0.7215  1.6126 -0.1522
 7485TIP3    H243871   0.438   0.764  11.669 -0.1359 -1.1981  0.3192
 7486TIP3   OH243872   1.847   6.237  15.132 -0.0947 -0.4911  0.8455
 7486TIP3    H143873   1.754   6.215  15.123 -0.6329  1.7381  0.4474
 7486TIP3    H243874   1.873   6.268  15.045  0.1171  1.9738  1.7318
 7487TIP3   OH243875   3.910   0.890  15.540 -0.2431 -0.1171 -0.2000
 7487TIP3    H143876   3.922   0.976  15.500 -1.4869 -0.5190 -1.4812
 7487TIP3    H243877   3.997   0.852  15.541  0.1318  0.7018 -0.7015
 7488TIP3   OH243878   3.676   3.754   2.271 -0.5063  0.1455  0.0834
 7488TIP3    H143879   3.765   3.789   2.275  0.1846 -1.6391  0.9354
 7488TIP3    H243880   3.684   3.665   2.306 -2.5240 -0.2333 -0.3754
 7489TIP3   OH243881   3.455   6.014  15.595 -0.2913  0.1208 -0.2699
 7489TIP3    H143882   3.456   6.073  15.670 -4.0589  2.1392 -1.6308
 7489TIP3    H243883   3.466   6.072  15.519 -0.7003 -1.3248 -1.4619
 7490TIP3   OH243884   1.854   4.073   3.276 -0.1491 -0.1606  0.1131
 7490TIP3    H143885   1.807   4.156   3.282  3.2103  2.0550 -2.1498
 7490TIP3    H243886   1.897   4.064   3.361  1.4154  1.7644 -0.4154
 7491TIP3   OH243887   3.416   4.356  15.320 -0.1254  0.3757  0.1806
 7491TIP3    H143888   3.377   4.353  15.233  0.7101 -0.2779 -0.1726
 7491TIP3    H243889   3.494   4.410  15.309  1.3066 -1.7016 -0.0127
 7492TIP3   OH243890   2.255   4.536   5.068  0.5524  0.2793 -0.4318
 7492TIP3    H143891   2.334   4.590   5.073  1.4300 -1.0460  0.3272
 7492TIP3    H243892   2.286   4.453   5.034 -0.3452 -0.5470  0.7417
 7493TIP3   OH243893   1.758   6.169   0.152  0.3537 -0.0588  0.5676
 7493TIP3    H143894   1.800   6.098   0.201 -0.8342 -0.0377  1.6455
 7493TIP3    H243895   1.680   6.130   0.114  0.1225  0.4701  0.4867
 7494TIP3   OH243896   0.211   2.004   3.727 -0.3267 -0.3836  0.1124
 7494TIP3    H143897   0.243   1.935   3.668 -1.2403 -0.6813 -0.0350
 7494TIP3    H243898   0.146   1.960   3.782 -1.5009  0.5535 -0.5177
 7495TIP3   OH243899   5.841   4.067   1.882 -0.6459  0.2207 -0.2546
 7495TIP3    H143900   5.926   4.102   1.855  0.0557 -1.7307 -0.6541
 7495TIP3    H243901   5.834   4.091   1.975  0.7874 -0.4350  0.0371
 7496TIP3   OH243902   2.429   6.120   2.499  0.4214  0.2921  0.3201
 7496TIP3    H143903   2.389   6.185   2.556 -1.8849 -0.1640 -0.6745
 7496TIP3    H243904   2.375   6.041   2.512  1.6289 -0.6543 -0.3273
 7497TIP3   OH243905   0.407   0.284  16.461 -0.1981  0.1679 -0.4899
 7497TIP3    H143906   0.376   0.289  16.370  1.5051  2.6184 -0.9801
 7497TIP3    H243907   0.469   0.211  16.461 -1.4446 -0.9240 -0.8669
 7498TIP3   OH243908   0.727   0.791  13.743 -0.3000  0.3210 -0.4993
 7498TIP3    H143909   0.811   0.828  13.717 -0.7938  1.0004 -1.1513
 7498TIP3    H243910   0.728   0.795  13.839  0.0765  1.0956 -0.5279
 7499TIP3   OH243911   0.005   0.345   1.751 -0.7725 -0.0777 -0.5717
 7499TIP3    H143912  -0.070   0.351   1.810 -0.5785 -1.9418 -0.1176
 7499TIP3    H243913   0.071   0.402   1.790 -1.3511  0.2489 -0.0618
 7500TIP3   OH243914   2.773   4.758   0.632 -0.4116  0.1326  0.3883
 7500TIP3    H143915   2.787   4.843   0.591 -0.1205  0.3610  0.9498
 7500TIP3    H243916   2.802   4.770   0.722  0.2822 -0.7596  0.2878
 7501TIP3   OH243917   1.060   3.959   1.756 -0.2196  0.2034  0.6915
 7501TIP3    H143918   1.058   3.876   1.804 -1.7294 -0.1949 -0.0267
 7501TIP3    H243919   1.054   4.025   1.824 -0.9597 -0.3325  1.1612
 7502TIP3   OH243920   3.351   4.563  13.047 -0.3305  0.0394  0.7234
 7502TIP3    H143921   3.275   4.505  13.038  0.4740 -0.8102 -0.7721
 7502TIP3    H243922   3.421   4.519  12.999  0.7785  1.4285  1.0263
 7503TIP3   OH243923   3.793   2.479  12.672 -0.4427 -0.3699  0.1630
 7503TIP3    H143924   3.741   2.466  12.593  1.8515  1.9335 -1.8094
 7503TIP3    H243925   3.856   2.407  12.672 -0.8799 -0.7510  0.2514
 7504TIP3   OH243926   4.565   3.047  12.964  0.0535  0.2048  0.3986
 7504TIP3    H143927   4.573   2.954  12.984  1.2436 -0.3870 -2.4735
 7504TIP3    H243928   4.472   3.060  12.947 -0.3330 -0.1316  2.1618
 7505TIP3   OH243929   2.917   4.889   4.202 -0.3289  0.7889  0.2688
 7505TIP3    H143930   2.927   4.940   4.282 -1.2820  1.1320  0.1794
 7505TIP3    H243931   2.995   4.908   4.151  0.1339  0.8155  0.9815
 7506TIP3   OH243932   3.347   4.745   4.364  0.8479 -0.3494 -0.0930
 7506TIP3    H143933   3.297   4.771   4.441  0.7623 -0.5820 -0.0696
 7506TIP3    H243934   3.439   4.758   4.388  0.7403  2.1352 -0.8675
 7507TIP3   OH243935   0.794   2.607  15.083  0.1953 -0.3245 -0.2630
 7507TIP3    H143936   0.734   2.653  15.142 -1.0540 -0.8416 -1.1068
 7507TIP3    H243937   0.764   2.631  14.995  0.1842 -1.9138 -0.7004
 7508TIP3   OH243938   3.862   0.544  15.062 -0.1631 -0.1145 -0.1811
 7508TIP3    H143939   3.780   0.496  15.075  0.0529 -0.6523 -0.7591
 7508TIP3    H243940   3.835   0.631  15.033 -0.5415 -0.1320  0.1130
 7509TIP3   OH243941   5.931   2.786  11.827 -0.0392 -0.2177  0.3820
 7509TIP3    H143942   5.887   2.701  11.833  0.3454 -0.4554 -0.0565
 7509TIP3    H243943   5.868   2.849  11.862  0.1422 -0.8366  1.8455
 7510TIP3   OH243944   6.190   0.167  12.259 -0.1728  0.2352 -0.2611
 7510TIP3    H143945   6.184   0.150  12.165 -0.7684 -1.8691  0.1176
 7510TIP3    H243946   6.247   0.098  12.292 -1.3490 -0.0875  1.1563
 7511TIP3   OH243947   0.543   4.219  11.461  0.0857  0.0140 -0.6026
 7511TIP3    H143948   0.590   4.265  11.530 -0.8496  0.4645 -0.2604
 7511TIP3    H243949   0.451   4.225  11.486 -0.2813  0.3488 -1.9742
 7512TIP3   OH243950   0.137   1.932   4.164  0.0053  0.1395  0.4896
 7512TIP3    H143951   0.204   1.890   4.218  1.0263 -0.9600 -1.5702
 7512TIP3    H243952   0.183   2.002   4.119 -0.3402 -0.2956 -0.5492
 7513TIP3   OH243953   6.698   3.656  13.542  0.0291  0.2377 -0.1231
 7513TIP3    H143954   6.676   3.639  13.450 -0.7298  2.0195 -0.3034
 7513TIP3    H243955   6.663   3.744  13.558 -0.1589 -0.2086  1.9836
 7514TIP3   OH243956   3.754   1.970  13.360 -0.0926 -0.1143 -0.9732
 7514TIP3    H143957   3.824   1.906  13.371 -0.5408 -0.4769 -0.2602
 7514TIP3    H243958   3.758   1.994  13.267  0.0374 -1.2109 -1.2514
 7515TIP3   OH243959   4.961   4.454  15.234  0.8801  0.3467 -0.1221
 7515TIP3    H143960   5.023   4.457  15.162 -1.2818  0.4939 -2.0576
 7515TIP3    H243961   4.952   4.361  15.255  1.4619  0.2977 -0.1035
 7516TIP3   OH243962   4.093   3.071   5.329 -0.1001  0.0133  0.5014
 7516TIP3    H143963   3.999   3.088   5.317  0.4604  1.4041 -2.4651
 7516TIP3    H243964   4.134   3.156   5.311  1.7463 -0.5867  1.7966
 7517TIP3   OH243965   1.887   2.770   2.161 -0.1589  0.3138  0.1741
 7517TIP3    H143966   1.858   2.696   2.216 -0.7674 -2.2666 -3.4699
 7517TIP3    H243967   1.971   2.742   2.126 -0.5405  1.1906 -1.4704
 7518TIP3   OH243968   6.619   0.604  11.365 -0.5478 -0.3327 -1.3660
 7518TIP3    H143969   6.685   0.540  11.337 -0.6506 -0.6350 -0.9385
 7518TIP3    H243970   6.590   0.647  11.284 -1.0181 -1.3572 -1.7534
 7519TIP3   OH243971   6.679   2.281   0.161  0.2309 -0.6207  0.3813
 7519TIP3    H143972   6.771   2.306   0.159  0.3652 -1.1656 -0.2937
 7519TIP3    H243973   6.641   2.325   0.085 -0.1160 -0.1862  0.8086
 7520TIP3   OH243974   0.940   2.964  16.686 -0.5319  0.2775  0.2461
 7520TIP3    H143975   0.931   2.924  16.600  0.9924 -2.1706  1.1814
 7520TIP3    H243976   0.965   3.055  16.668 -0.7818 -0.0591 -1.8736
 7521TIP3   OH243977   6.093   4.107  14.599 -0.0431  0.0472 -0.0425
 7521TIP3    H143978   6.072   4.100  14.506  0.1815  0.1174 -0.0977
 7521TIP3    H243979   6.183   4.077  14.606  0.1459  0.6389  0.0635
 7522TIP3   OH243980   0.351   0.717   2.181 -0.0669  0.4921 -0.2326
 7522TIP3    H143981   0.374   0.676   2.264  1.2614  0.7442 -0.4592
 7522TIP3    H243982   0.349   0.645   2.118  0.4103  0.5039 -0.2657
 7523TIP3   OH243983   3.872   0.169   3.867 -0.2368 -0.4499  0.6920
 7523TIP3    H143984   3.943   0.233   3.862 -0.3187 -0.4002  0.0125
 7523TIP3    H243985   3.904   0.101   3.926  0.2031 -0.2150  0.7262
 7524TIP3   OH243986   3.381   2.243  10.880  0.2028 -1.2779 -0.7625
 7524TIP3    H143987   3.288   2.221  10.872 -0.0753 -0.0456 -1.1286
 7524TIP3    H243988   3.403   2.286  10.798  0.2607  1.2905  0.5417
 7525TIP3   OH243989   5.990   4.699   4.125  0.0097 -0.2242  0.7641
 7525TIP3    H143990   5.927   4.634   4.157 -1.0278  0.1774 -0.4076
 7525TIP3    H243991   5.955   4.783   4.155  0.0365 -0.0076  0.1903
 7526TIP3   OH243992   3.786   0.582   1.506  0.4830 -0.1806  0.2737
 7526TIP3    H143993   3.868   0.620   1.474  0.4987 -1.0160 -0.7244
 7526TIP3    H243994   3.812   0.500   1.548  0.2525 -0.0072  0.7577
 7527TIP3   OH243995   3.657   5.631  11.073  0.0014 -0.2736  0.2747
 7527TIP3    H143996   3.714   5.620  11.150 -1.7299 -2.4944  1.3036
 7527TIP3    H243997   3.569   5.612  11.106 -0.7873 -1.2027 -2.2431
 7528TIP3   OH243998   1.990   1.226   4.011 -0.0993  0.1839 -0.4799
 7528TIP3    H143999   2.062   1.163   4.008 -0.6846 -0.4872 -0.5291
 7528TIP3    H244000   2.002   1.271   4.095  0.5457  0.2872 -0.6198
 7529TIP3   OH244001   1.931   0.889   2.169 -0.2051 -0.0286  0.0740
 7529TIP3    H144002   1.871   0.913   2.240 -0.5896  2.5641 -1.0624
 7529TIP3    H244003   2.006   0.851   2.213 -2.2959 -2.5631  1.5943
 7530TIP3   OH244004   4.933   2.780  13.032  0.2581 -0.3418  0.1654
 7530TIP3    H144005   4.892   2.863  13.055 -1.0048 -1.0778  0.6099
 7530TIP3    H244006   4.982   2.798  12.952 -0.6552  0.6197 -0.1745
 7531TIP3   OH244007   4.219   2.669   0.655 -0.3925  0.6062  0.4368
 7531TIP3    H144008   4.155   2.730   0.619 -1.1852 -1.1953 -1.2512
 7531TIP3    H244009   4.168   2.594   0.684  0.7792 -0.1357  0.6294
 7532TIP3   OH244010   2.406   1.909  13.282  0.0093 -0.5672  0.1390
 7532TIP3    H144011   2.464   1.892  13.356 -0.7045 -1.5669  0.4780
 7532TIP3    H244012   2.336   1.844  13.291 -0.0674 -0.7202 -1.4301
 7533TIP3   OH244013   6.300   0.989  16.719  0.2979  0.1210  0.2759
 7533TIP3    H144014   6.257   0.982  16.805  0.7577 -0.5294  0.4523
 7533TIP3    H244015   6.302   0.900  16.686  0.3499  0.3395 -0.3041
 7534TIP3   OH244016   5.553   2.003  14.351  0.2489 -0.0638 -0.3731
 7534TIP3    H144017   5.606   1.935  14.311  2.1459  0.9022  0.4749
 7534TIP3    H244018   5.472   1.958  14.376  0.1944 -1.3050 -2.6348
 7535TIP3   OH244019   2.304   3.163   4.258 -0.1065 -0.0126 -0.2006
 7535TIP3    H144020   2.242   3.096   4.229  0.7230 -0.6026 -0.6519
 7535TIP3    H244021   2.338   3.201   4.177  0.1846  0.2461  0.0394
 7536TIP3   OH244022   6.593   6.485  17.015 -0.0798 -0.4505  0.7087
 7536TIP3    H144023   6.599   6.395  17.047 -1.1497 -0.5804  0.5781
 7536TIP3    H244024   6.508   6.516  17.047  0.6194  0.7864  1.4292
 7537TIP3   OH244025   0.743   4.974   3.994 -0.0952 -0.0593  0.5827
 7537TIP3    H144026   0.719   5.025   4.071 -0.0307 -1.1062  1.3052
 7537TIP3    H244027   0.659   4.956   3.951 -0.0936  0.8936  0.1581
 7538TIP3   OH244028   0.792   0.054  11.702  0.6595  0.0181 -0.3106
 7538TIP3    H144029   0.777   0.135  11.652 -1.4816 -0.1103  0.0953
 7538TIP3    H244030   0.805  -0.013  11.635 -2.1544 -0.1471 -0.7511
 7539TIP3   OH244031   1.833   3.789   4.481  0.1869 -0.3848 -0.1339
 7539TIP3    H144032   1.798   3.727   4.417 -0.9153 -0.9053  0.9530
 7539TIP3    H244033   1.760   3.848   4.500  0.3516 -0.5270  0.9940
 7540TIP3   OH244034   2.712   0.139   4.636 -0.2780 -0.6370 -0.0451
 7540TIP3    H144035   2.678   0.073   4.576 -2.2097  0.7965 -0.5845
 7540TIP3    H244036   2.659   0.130   4.715 -1.4728  1.1110 -0.6104
 7541TIP3   OH244037   4.979   5.898  14.154  0.3776 -0.6353 -0.4412
 7541TIP3    H144038   5.057   5.886  14.208  0.9374  0.1479 -1.0808
 7541TIP3    H244039   4.929   5.967  14.199 -0.5548 -1.9726  0.6363
 7542TIP3   OH244040   5.450   4.392  14.861  0.0540 -0.1688 -0.5562
 7542TIP3    H144041   5.406   4.310  14.886 -0.2588 -0.2650 -1.4350
 7542TIP3    H244042   5.466   4.383  14.768 -0.2422  0.9060 -0.7110
 7543TIP3   OH244043   3.872   5.917   5.380  0.7187 -0.2616  0.1321
 7543TIP3    H144044   3.830   5.913   5.294  1.1015 -0.6961 -0.0399
 7543TIP3    H244045   3.920   6.000   5.380  1.5735 -0.7482 -0.4782
 7544TIP3   OH244046   6.339   6.105  15.627 -0.0172 -0.2420  0.1397
 7544TIP3    H144047   6.379   6.191  15.619 -1.5977  0.4629 -0.4807
 7544TIP3    H244048   6.336   6.071  15.537  1.8866 -1.5669  0.5494
 7545TIP3   OH244049   6.616   2.800   2.638 -0.3530  0.0957 -0.0489
 7545TIP3    H144050   6.532   2.781   2.596 -0.5382 -1.9716  1.1720
 7545TIP3    H244051   6.682   2.780   2.572 -0.7118 -1.2033 -0.0099
 7546TIP3   OH244052   1.909   4.604   5.485  0.0152 -0.1236 -0.1867
 7546TIP3    H144053   1.836   4.665   5.494  0.0628 -0.2739  1.4959
 7546TIP3    H244054   1.963   4.640   5.415 -1.2938  0.3704 -0.9629
 7547TIP3   OH244055   6.565   0.621  11.097 -0.0777  0.6010  0.1295
 7547TIP3    H144056   6.617   0.623  11.016 -0.6427  2.9642 -0.2011
 7547TIP3    H244057   6.479   0.591  11.069 -0.5726  2.4091 -0.3570
 7548TIP3   OH244058   2.656   5.296  14.257  1.3308 -0.2110  0.4000
 7548TIP3    H144059   2.661   5.344  14.339  1.2356 -0.2652  0.4382
 7548TIP3    H244060   2.613   5.213  14.280 -3.0168  1.6359 -0.5076
 7549TIP3   OH244061   0.172   1.856  14.324  0.1125  0.3695  0.1794
 7549TIP3    H144062   0.097   1.819  14.277 -0.2696  1.6767 -0.2529
 7549TIP3    H244063   0.134   1.920  14.385  0.7613  0.0143  0.9657
 7550TIP3   OH244064   3.000   6.536   3.549 -0.5732  0.6825 -0.1628
 7550TIP3    H144065   3.058   6.542   3.626 -0.6603 -2.3010  0.2224
 7550TIP3    H244066   3.046   6.477   3.490 -2.6077 -0.7353 -0.3917
 7551TIP3   OH244067   5.081   6.071  15.750 -0.2763 -0.0930 -0.1607
 7551TIP3    H144068   5.111   6.157  15.780  1.6995 -1.1677  1.0758
 7551TIP3    H244069   5.117   6.010  15.814 -2.0663 -1.8088 -0.7546
 7552TIP3   OH244070   6.201   4.216   3.032 -0.0984  0.0767  0.1702
 7552TIP3    H144071   6.245   4.217   3.117 -0.7675 -0.3141  0.5232
 7552TIP3    H244072   6.115   4.178   3.049  0.0126 -0.6639 -0.7973
 7553TIP3   OH244073   5.707   4.864   1.879  0.3882 -0.4450 -0.0708
 7553TIP3    H144074   5.640   4.886   1.814  0.3332  1.1930  0.5125
 7553TIP3    H244075   5.790   4.875   1.833  0.2663 -3.3990 -1.0729
 7554TIP3   OH244076   4.983   0.988   2.170  0.0292 -0.1573  0.1942
 7554TIP3    H144077   5.057   1.045   2.191 -1.1512  0.8942  1.5505
 7554TIP3    H244078   4.938   1.033   2.098 -0.5384  0.2946  0.8345
 7555TIP3   OH244079   2.169   2.013   1.034 -0.2092  0.2573  0.1955
 7555TIP3    H144080   2.132   2.008   1.122  0.5615  1.2484  0.5752
 7555TIP3    H244081   2.244   2.072   1.042  0.8971 -0.9853 -0.7608
 7556TIP3   OH244082   3.561   4.533  16.808  0.2186 -0.3058 -0.6540
 7556TIP3    H144083   3.489   4.475  16.833  0.1711  0.2062  0.4317
 7556TIP3    H244084   3.625   4.525  16.879  0.7249  0.0924 -1.0606
 7557TIP3   OH244085   3.988   2.267  13.682 -0.6981  0.2722 -0.0183
 7557TIP3    H144086   4.039   2.340  13.716  0.3747 -0.1483 -0.7131
 7557TIP3    H244087   4.017   2.257  13.592 -0.9275 -0.9202  0.0313
 7558TIP3   OH244088   5.383   0.790   5.847 -0.2924 -0.0290 -0.2498
 7558TIP3    H144089   5.370   0.827   5.759 -1.3106 -1.4050 -0.7032
 7558TIP3    H244090   5.298   0.799   5.890  0.8578  2.9766  1.5559
 7559TIP3   OH244091   1.097   3.621   0.326 -0.2699  0.3638  0.1421
 7559TIP3    H144092   1.191   3.624   0.309 -0.4748  1.5413 -0.8384
 7559TIP3    H244093   1.066   3.708   0.302 -1.2059  0.8246  2.9007
 7560TIP3   OH244094   5.671   1.061   1.810 -0.1409  0.6464 -0.6584
 7560TIP3    H144095   5.681   1.049   1.715  0.7594 -0.2420 -0.4661
 7560TIP3    H244096   5.733   0.998   1.848 -2.9460 -1.4963  0.5612
 7561TIP3   OH244097   5.997   6.191   3.060  0.3378  0.4263 -0.2698
 7561TIP3    H144098   5.928   6.188   3.126  2.2973  3.0039  1.9981
 7561TIP3    H244099   6.068   6.138   3.097  1.3591  1.6745 -0.4108
 7562TIP3   OH244100   4.602   2.118   1.874 -0.1431  0.5506  0.5350
 7562TIP3    H144101   4.697   2.110   1.876 -0.1252  0.7276  0.3444
 7562TIP3    H244102   4.570   2.029   1.889  0.0492  0.5563  0.9782
 7563TIP3   OH244103   4.620   2.979   4.158  0.1989 -0.5578  0.2044
 7563TIP3    H144104   4.600   3.039   4.087  0.1254  0.4246  1.0479
 7563TIP3    H244105   4.537   2.935   4.176  0.0938 -0.4329  0.0309
 7564TIP3   OH244106   2.326   2.607  15.122 -1.0820  0.0217  0.0852
 7564TIP3    H144107   2.235   2.618  15.092 -0.7358  1.4395 -0.4852
 7564TIP3    H244108   2.379   2.641  15.050 -0.0607 -1.4066  0.1363
 7565TIP3   OH244109   4.888   2.555   2.392  0.1346 -0.1115 -0.1578
 7565TIP3    H144110   4.798   2.565   2.421  0.2700 -1.1290  0.6310
 7565TIP3    H244111   4.913   2.467   2.421  2.1874  1.0688  1.8125
 7566TIP3   OH244112   6.592   5.561  12.942 -1.0365 -0.8519 -0.2618
 7566TIP3    H144113   6.682   5.530  12.928 -0.8080 -0.7792  0.9784
 7566TIP3    H244114   6.600   5.656  12.949 -1.2579 -0.8149 -0.5244
 7567TIP3   OH244115   5.850   1.544  15.458  0.1180  0.2811 -0.4289
 7567TIP3    H144116   5.875   1.585  15.541 -0.9373  0.4520 -0.1894
 7567TIP3    H244117   5.882   1.454  15.466  1.5600  0.7716 -0.5576
 7568TIP3   OH244118   3.086   0.700   0.907 -0.5347  0.1537 -0.3460
 7568TIP3    H144119   2.995   0.678   0.886 -1.0006  0.7150  1.0608
 7568TIP3    H244120   3.110   0.765   0.841 -1.8984  1.6864  0.6386
 7569TIP3   OH244121   5.680   6.044   5.920  0.3160 -0.2448  0.2110
 7569TIP3    H144122   5.753   6.093   5.957  0.3858 -0.7789  0.7839
 7569TIP3    H244123   5.721   5.984   5.858  0.3912 -0.7161  0.7128
 7570TIP3   OH244124   4.925   5.325  14.200  0.4306  0.5791 -0.2526
 7570TIP3    H144125   4.854   5.389  14.199 -0.5480 -0.4708  0.3791
 7570TIP3    H244126   4.889   5.248  14.157  1.2395  0.0843 -0.0574
 7571TIP3   OH244127   5.922   0.897  17.184 -0.4256  0.2651 -0.1328
 7571TIP3    H144128   5.892   0.812  17.151  0.1435  1.2334 -3.2855
 7571TIP3    H244129   5.883   0.961  17.124 -0.0089  2.1833  1.5981
 7572TIP3   OH244130   2.739   0.808  10.849  0.5933 -0.2191 -0.7017
 7572TIP3    H144131   2.655   0.849  10.828  0.2810 -0.7348 -0.4644
 7572TIP3    H244132   2.800   0.881  10.855 -0.4178  0.4436  1.9793
 7573TIP3   OH244133   1.571   4.308   0.183  0.0251  0.4167  0.4761
 7573TIP3    H144134   1.502   4.254   0.221 -0.2772  0.2478 -0.3050
 7573TIP3    H244135   1.606   4.256   0.111 -0.2697  1.2630 -0.2856
 7574TIP3   OH244136   4.645   0.110   3.348 -0.6348  0.3649  0.0487
 7574TIP3    H144137   4.632   0.102   3.254 -1.9183  0.6523  0.1903
 7574TIP3    H244138   4.665   0.203   3.361  0.1534  0.2051 -0.0055
 7575TIP3   OH244139   3.204   6.620  11.433  0.1665  0.6792 -0.5279
 7575TIP3    H144140   3.200   6.653  11.522  1.4670  1.2470 -0.6626
 7575TIP3    H244141   3.161   6.534  11.437 -1.1809  1.3778  0.3046
 7576TIP3   OH244142   5.471   3.457   4.189  0.2911 -0.2252 -0.2873
 7576TIP3    H144143   5.412   3.530   4.170 -2.4014 -1.7582  1.7453
 7576TIP3    H244144   5.512   3.480   4.272  1.0191 -0.0738 -0.6905
 7577TIP3   OH244145   2.696   1.473   0.250 -0.3997  0.0914  0.2016
 7577TIP3    H144146   2.782   1.438   0.269  0.4245  2.2027  0.5508
 7577TIP3    H244147   2.649   1.471   0.334  0.0110  0.7566  0.4553
 7578TIP3   OH244148   2.171   2.891   5.668  0.4052 -0.0275 -0.8166
 7578TIP3    H144149   2.093   2.835   5.669  0.2505  0.1097 -2.5357
 7578TIP3    H244150   2.193   2.899   5.575  2.0472  0.5335 -0.3930
 7579TIP3   OH244151   6.730   6.684   0.061 -0.2406 -0.3230  0.5180
 7579TIP3    H144152   6.804   6.676   0.121 -0.3607  0.8145  0.8243
 7579TIP3    H244153   6.750   6.624  -0.011  1.4587  0.7322  0.0934
 7580TIP3   OH244154   0.536   2.578   2.992  0.1319  0.3457  0.3134
 7580TIP3    H144155   0.467   2.631   2.952 -0.0589 -0.5859 -0.6097
 7580TIP3    H244156   0.617   2.622   2.967 -0.0169  0.1001 -0.6156
 7581TIP3   OH244157   4.115   4.605  16.610  0.5332  0.2177 -0.1636
 7581TIP3    H144158   4.190   4.552  16.638  0.5811  0.3263 -0.0893
 7581TIP3    H244159   4.068   4.625  16.691  0.6350  0.4739 -0.1712
 7582TIP3   OH244160   5.269   0.287  14.142 -0.0596  0.8988 -0.1794
 7582TIP3    H144161   5.287   0.281  14.236 -0.4420  1.4161 -0.0727
 7582TIP3    H244162   5.256   0.196  14.115 -0.6152  0.8042  0.4031
 7583TIP3   OH244163   4.979   2.108   5.917  0.3952 -0.1198 -0.0719
 7583TIP3    H144164   4.943   2.069   5.837 -1.0894 -0.2759  0.6540
 7583TIP3    H244165   4.931   2.190   5.927  0.0736 -0.4352  1.0264
 7584TIP3   OH244166   0.168   4.136  14.972  0.3880 -0.6545  0.2076
 7584TIP3    H144167   0.219   4.139  14.891  1.3563  1.5518  0.8585
 7584TIP3    H244168   0.189   4.051  15.011  2.8158 -0.1813 -0.0171
 7585TIP3   OH244169   6.343   0.418   2.380 -0.2472 -0.0107  0.0450
 7585TIP3    H144170   6.318   0.326   2.374 -3.3957  0.9064 -1.8222
 7585TIP3    H244171   6.323   0.442   2.471 -0.7979 -0.7795  0.1306
 7586TIP3   OH244172   0.371   5.164  15.800 -0.4135 -0.2993  0.0395
 7586TIP3    H144173   0.346   5.256  15.799  1.0525  0.1139 -0.9127
 7586TIP3    H244174   0.467   5.165  15.796 -0.2180 -1.8218  2.7802
 7587TIP3   OH244175   1.174   6.751   1.366 -0.4606  0.4264  0.4990
 7587TIP3    H144176   1.256   6.774   1.323 -0.7772 -2.0275 -1.5155
 7587TIP3    H244177   1.154   6.663   1.336 -3.4141  0.6332  1.6213
 7588TIP3   OH244178   2.627   3.557   2.962 -0.0763 -0.6694 -0.0343
 7588TIP3    H144179   2.645   3.613   2.887 -0.7553 -0.5533 -0.1068
 7588TIP3    H244180   2.640   3.613   3.039 -0.4251 -0.5064 -0.0959
 7589TIP3   OH244181   3.930   5.036  14.545  0.4110 -0.7770  0.9905
 7589TIP3    H144182   3.885   5.099  14.601 -1.3278 -0.0404 -1.1590
 7589TIP3    H244183   4.017   5.074  14.532  0.1787 -0.0052  1.6074
 7590TIP3   OH244184   2.422   0.052  14.917  0.1727 -0.2301  0.3169
 7590TIP3    H144185   2.342   0.104  14.919 -0.1012 -0.5428 -1.8630
 7590TIP3    H244186   2.491   0.113  14.942 -0.4420  0.6189 -0.0413
 7591TIP3   OH244187   0.494   1.131  12.256 -0.0010  0.5294 -0.4229
 7591TIP3    H144188   0.497   1.136  12.352  1.4754  0.3445 -0.4472
 7591TIP3    H244189   0.403   1.149  12.234 -0.3500  0.5972  1.0197
 7592TIP3   OH244190   1.948   3.062  14.134  0.0453 -1.0087  0.4834
 7592TIP3    H144191   2.026   3.068  14.079 -0.6107 -0.9608 -0.4407
 7592TIP3    H244192   1.977   3.091  14.221  1.2279 -1.6665  0.3121
 7593TIP3   OH244193   1.974   6.010  12.889  0.1274 -0.0769  0.1592
 7593TIP3    H144194   1.883   5.979  12.893  0.5252 -1.4408 -1.0559
 7593TIP3    H244195   2.026   5.935  12.918  0.9304  0.4195  0.0214
 7594TIP3   OH244196   5.094   4.836   6.078  0.4499 -0.3573 -0.3745
 7594TIP3    H144197   5.087   4.910   6.140  3.5391  0.9848 -1.5180
 7594TIP3    H244198   5.019   4.848   6.019  0.8008  1.7983 -0.4436
 7595TIP3   OH244199   4.751   3.090   0.112  0.2069  0.4280 -0.6335
 7595TIP3    H144200   4.716   3.016   0.063  0.5625 -0.0791 -0.1380
 7595TIP3    H244201   4.767   3.055   0.200  0.0751  1.1794 -0.3074
 7596TIP3   OH244202   5.548   4.423   5.565 -0.7635 -0.4187 -0.9442
 7596TIP3    H144203   5.505   4.339   5.581 -0.0530 -0.8211 -1.1270
 7596TIP3    H244204   5.638   4.400   5.544  0.3534  0.5839  2.5222
 7597TIP3   OH244205   0.632   2.573   4.014  0.0985  0.1250 -0.3556
 7597TIP3    H144206   0.676   2.644   3.967  3.9627 -0.2658  2.3838
 7597TIP3    H244207   0.540   2.599   4.018  1.2611  4.5332 -0.2012
 7598TIP3   OH244208   0.651   0.105   4.785  0.1445  0.0646 -0.3844
 7598TIP3    H144209   0.702   0.164   4.841  1.6543 -1.0100 -0.6014
 7598TIP3    H244210   0.643   0.024   4.836 -3.1107  0.8740  0.4971
 7599TIP3   OH244211   4.842   3.963  16.662 -0.4151 -0.3608  0.2819
 7599TIP3    H144212   4.908   3.901  16.630  0.5281  0.0912  1.3187
 7599TIP3    H244213   4.881   4.049  16.648 -0.4529 -0.1203  1.6503
 7600TIP3   OH244214   5.449   1.270  16.804  0.1792  0.2615 -0.1132
 7600TIP3    H144215   5.367   1.288  16.759 -1.3508 -0.5039  2.2579
 7600TIP3    H244216   5.478   1.356  16.836 -0.3287  0.3654  0.0685
 7601TIP3   OH244217   6.556   0.497  16.854  0.0482 -0.1855 -0.3522
 7601TIP3    H144218   6.504   0.574  16.879 -0.2212 -0.3940 -0.2554
 7601TIP3    H244219   6.647   0.525  16.861  0.0510 -0.7323  2.6332
 7602TIP3   OH244220   3.171   4.662  15.603  0.0391 -0.2792 -0.3296
 7602TIP3    H144221   3.127   4.647  15.520  1.2771 -2.4663 -0.6302
 7602TIP3    H244222   3.158   4.582  15.653 -0.2484  0.8106  1.4037
 7603TIP3   OH244223   3.208   2.709  15.537  0.5361  0.0360 -0.3500
 7603TIP3    H144224   3.117   2.686  15.553  0.3958  0.2581 -0.8207
 7603TIP3    H244225   3.212   2.728  15.443  0.4925  2.6035  0.1391
 7604TIP3   OH244226   4.361   6.126  11.997 -0.5298  0.1740 -0.1918
 7604TIP3    H144227   4.428   6.161  12.055 -1.5204 -1.7800  2.2285
 7604TIP3    H244228   4.380   6.032  11.992 -2.0035 -0.1111 -0.9472
 7605TIP3   OH244229   6.173   2.986   3.987  0.0785  0.1953  0.0652
 7605TIP3    H144230   6.219   2.911   4.026  0.9105  0.4840 -0.3294
 7605TIP3    H244231   6.143   3.038   4.061 -2.3506 -1.6000  0.3826
 7606TIP3   OH244232   2.321   5.471  14.527  0.6812 -0.4145  0.0005
 7606TIP3    H144233   2.309   5.452  14.620  0.2138  0.1892  0.0648
 7606TIP3    H244234   2.324   5.385  14.486  4.5310 -0.8892  0.9837
 7607TIP3   OH244235   4.516   4.090   4.497  0.0159 -0.1784 -0.4124
 7607TIP3    H144236   4.447   4.054   4.554 -0.5335 -2.0352 -2.1980
 7607TIP3    H244237   4.587   4.026   4.502  0.7325  0.6275 -0.3058
 7608TIP3   OH244238   2.145   4.405  15.451 -0.0813 -0.1029  0.1002
 7608TIP3    H144239   2.240   4.401  15.462 -0.4651 -3.6162  3.2988
 7608TIP3    H244240   2.127   4.349  15.375  0.3639  0.1724 -0.2085
 7609TIP3   OH244241   1.354   0.737  16.047 -0.1612 -0.0867 -0.2799
 7609TIP3    H144242   1.385   0.712  15.960  2.1462  1.1620  0.1624
 7609TIP3    H244243   1.300   0.815  16.030 -0.5427 -0.4384 -0.7032
 7610TIP3   OH244244   4.608   3.239   6.484  1.1505 -0.3265 -0.8431
 7610TIP3    H144245   4.643   3.190   6.410  3.4133  0.0887 -0.0664
 7610TIP3    H244246   4.651   3.324   6.480  0.3557  0.1376  0.2178
 7611TIP3   OH244247   4.316   5.275  14.358 -0.1673 -0.1927  0.0408
 7611TIP3    H144248   4.279   5.229  14.282  2.3208 -0.6651 -0.9440
 7611TIP3    H244249   4.385   5.330  14.321  0.9356 -0.2636  1.9353
 7612TIP3   OH244250   4.451   6.728  15.740 -0.5409 -0.4880  0.3732
 7612TIP3    H144251   4.502   6.759  15.665 -2.9529 -0.6540 -1.3689
 7612TIP3    H244252   4.447   6.633  15.729 -0.7231 -0.5366  0.8387
 7613TIP3   OH244253   5.097   0.752  11.928  0.3057 -0.0727  0.5023
 7613TIP3    H144254   5.073   0.840  11.900 -1.6055 -1.2341 -1.6671
 7613TIP3    H244255   5.033   0.731  11.997  1.7593  0.7975  2.1679
 7614TIP3   OH244256   2.091   2.181  16.769  0.0009  0.3131 -0.0393
 7614TIP3    H144257   2.052   2.258  16.728 -1.1209  0.5265  1.3849
 7614TIP3    H244258   2.037   2.108  16.737 -1.6735  0.6133  1.9681
 7615TIP3   OH244259   3.365   5.264   4.330  0.1476  0.1635  0.5608
 7615TIP3    H144260   3.417   5.223   4.260 -0.1675 -0.2864  0.5943
 7615TIP3    H244261   3.275   5.237   4.313  0.1213 -0.2540  1.3639
 7616TIP3   OH244262   1.586   3.952   3.830 -0.1162  0.4830  0.0693
 7616TIP3    H144263   1.559   3.876   3.779  0.7444  0.1603  0.0934
 7616TIP3    H244264   1.552   4.027   3.780 -0.0277  0.1352 -0.5176
 7617TIP3   OH244265   4.013   1.067  12.250  0.4333  0.7564  0.6377
 7617TIP3    H144266   4.084   1.085  12.188 -0.5658  0.8639 -0.5142
 7617TIP3    H244267   3.937   1.111  12.212 -0.9270 -1.7575  0.2813
 7618TIP3   OH244268   0.712   1.442   0.621  0.2440 -0.4351  0.1371
 7618TIP3    H144269   0.733   1.382   0.549  0.5329  0.2128 -0.3269
 7618TIP3    H244270   0.641   1.399   0.669 -1.1695 -0.0392 -1.5787
 7619TIP3   OH244271   1.772   4.987   3.295 -0.1151 -0.3725  0.2441
 7619TIP3    H144272   1.728   5.010   3.214 -1.1242  1.0078  1.1725
 7619TIP3    H244273   1.854   5.036   3.293  0.7455 -1.8089 -0.7990
 7620TIP3   OH244274   5.868   5.541   0.140  0.1830  0.4133 -0.1454
 7620TIP3    H144275   5.866   5.616   0.080 -0.2810 -1.5602 -2.6801
 7620TIP3    H244276   5.923   5.476   0.096 -0.8310 -1.3998  1.1906
 7621TIP3   OH244277   1.942   4.848  16.959 -0.2026  0.3009 -0.4836
 7621TIP3    H144278   1.897   4.920  17.003  0.5664  0.6146 -0.1944
 7621TIP3    H244279   1.953   4.877  16.869  0.3463  0.6652 -0.3046
 7622TIP3   OH244280   0.085   4.867   6.567  0.6218 -0.1157  0.3640
 7622TIP3    H144281   0.072   4.958   6.542  0.3097 -0.2086  0.1771
 7622TIP3    H244282   0.021   4.819   6.514  2.9994 -0.7934 -2.0383
 7623TIP3   OH244283   6.383   2.942   2.482  0.0459  0.0052 -0.2312
 7623TIP3    H144284   6.322   3.006   2.446 -0.5300 -0.3572  0.0837
 7623TIP3    H244285   6.437   2.916   2.409 -0.6800 -0.2368 -0.6906
 7624TIP3   OH244286   4.457   4.144  12.669 -0.3753 -0.0602  0.0066
 7624TIP3    H144287   4.388   4.156  12.734 -1.6414 -1.3283 -1.0689
 7624TIP3    H244288   4.436   4.206  12.599 -0.1280 -0.0722 -0.0778
 7625TIP3   OH244289   4.678   4.110  14.761  0.0277 -0.1993 -0.4737
 7625TIP3    H144290   4.693   4.141  14.851 -1.9521  0.9903 -0.5403
 7625TIP3    H244291   4.755   4.141  14.712 -0.1688  1.4614  0.2479
 7626TIP3   OH244292   4.560   4.808   3.361 -0.6386  0.5512 -0.1664
 7626TIP3    H144293   4.508   4.875   3.317  0.8859  0.6963 -1.7998
 7626TIP3    H244294   4.537   4.727   3.315  0.9968  0.7112 -1.2870
 7627TIP3   OH244295   1.339   3.987  15.115  0.0159 -0.1809  0.0558
 7627TIP3    H144296   1.384   3.959  15.194  0.2571 -0.1949 -0.0840
 7627TIP3    H244297   1.402   4.042  15.069 -1.1745  2.3011  1.3166
 7628TIP3   OH244298   4.882   1.503   1.543  0.5872  0.4891  0.6720
 7628TIP3    H144299   4.956   1.554   1.511  0.6395  0.8234  1.3311
 7628TIP3    H244300   4.812   1.520   1.480  1.0219  0.2870  0.1281
 7629TIP3   OH244301   2.277   1.153  12.485 -0.0572 -0.2174 -0.2144
 7629TIP3    H144302   2.273   1.112  12.398  2.2223 -0.9075 -0.0309
 7629TIP3    H244303   2.214   1.225  12.481 -0.8351 -0.9663 -2.0441
 7630TIP3   OH244304   1.886   3.041  13.619  0.2017  0.2923  0.3506
 7630TIP3    H144305   1.867   3.072  13.531  0.1326  0.9579  0.5962
 7630TIP3    H244306   1.911   2.949  13.608  0.5040  0.4654 -0.3940
 7631TIP3   OH244307   1.201   6.030  11.895  0.8131  0.0506  0.3710
 7631TIP3    H144308   1.194   5.959  11.831 -0.2596 -1.7824  2.4500
 7631TIP3    H244309   1.272   6.004  11.953 -0.3929  0.0363  1.8764
 7632TIP3   OH244310   2.283   5.932  16.115 -0.2106 -0.3644  0.1285
 7632TIP3    H144311   2.241   5.856  16.155  0.3685 -0.7047  0.0989
 7632TIP3    H244312   2.216   5.969  16.057 -0.5191 -0.8118  0.2000
 7633TIP3   OH244313   3.041   1.349   4.389 -0.2456  0.1364  0.0695
 7633TIP3    H144314   3.082   1.389   4.312 -2.3768  0.9159 -0.6909
 7633TIP3    H244315   3.029   1.421   4.450  0.3046 -0.2550  0.6456
 7634TIP3   OH244316   2.638   2.734  15.363 -0.2315  0.4310 -0.3559
 7634TIP3    H144317   2.674   2.822  15.372 -0.3087  0.5418 -1.0906
 7634TIP3    H244318   2.656   2.692  15.447 -0.3054  1.1862  0.0428
 7635TIP3   OH244319   6.731   0.218  16.808 -0.7961 -0.8278 -0.0894
 7635TIP3    H144320   6.677   0.224  16.729  0.0315 -0.1357 -0.6153
 7635TIP3    H244321   6.668   0.209  16.880 -1.6602  0.6994 -0.6206
 7636TIP3   OH244322   6.347   5.162  12.243 -0.5728 -0.4192 -0.0179
 7636TIP3    H144323   6.373   5.249  12.215  0.4043 -1.1310 -1.3570
 7636TIP3    H244324   6.406   5.143  12.317  0.8459 -0.8811 -1.2351
 7637TIP3   OH244325   5.748   1.777   2.741 -0.1918 -0.5547  0.0109
 7637TIP3    H144326   5.653   1.782   2.751 -0.0130 -0.6084  1.7888
 7637TIP3    H244327   5.769   1.851   2.684 -1.3104 -0.6672 -0.5769
 7638TIP3   OH244328   1.913   3.068  15.283 -0.1363  0.6254  0.0782
 7638TIP3    H144329   1.970   3.062  15.207  2.0767 -0.3429  1.7532
 7638TIP3    H244330   1.856   2.992  15.276 -0.2081  0.7586 -0.8139
 7639TIP3   OH244331   6.635   1.674  13.120 -0.1026 -0.4633 -0.0205
 7639TIP3    H144332   6.593   1.733  13.057 -0.2260 -0.5650 -0.0338
 7639TIP3    H244333   6.721   1.713  13.135 -0.5957  0.3362  0.8283
 7640TIP3   OH244334   5.966   4.832   1.621 -0.5841 -0.1374  0.8278
 7640TIP3    H144335   5.924   4.747   1.635 -0.2928 -0.8808 -2.5039
 7640TIP3    H244336   5.957   4.848   1.527  0.6557  2.8538  1.1748
 7641TIP3   OH244337   6.651   6.110  12.245 -0.5203 -0.5371 -0.3536
 7641TIP3    H144338   6.598   6.183  12.275  1.5012  0.8615 -0.0724
 7641TIP3    H244339   6.669   6.130  12.153  1.5752  0.3084  0.2093
 7642TIP3   OH244340   6.306   4.833   4.996 -0.0638 -0.1434 -0.0473
 7642TIP3    H144341   6.271   4.746   4.977  1.1231 -0.8486  0.9929
 7642TIP3    H244342   6.322   4.833   5.090 -0.2264  1.2706 -0.0060
 7643TIP3   OH244343   6.558   5.505   0.915  0.1356  0.4929 -0.5991
 7643TIP3    H144344   6.620   5.578   0.914  0.2968  0.3446 -1.6464
 7643TIP3    H244345   6.573   5.462   0.999  1.0255  0.8167 -0.5899
 7644TIP3   OH244346   0.909   1.253   0.287 -0.3387 -0.0482 -0.5656
 7644TIP3    H144347   0.943   1.342   0.296  1.1421 -0.6437 -0.1130
 7644TIP3    H244348   0.818   1.259   0.318  0.2204  0.9894  0.9632
 7645TIP3   OH244349   5.157   0.802   3.808 -0.0429  0.1464 -0.0979
 7645TIP3    H144350   5.111   0.885   3.800  1.8994  1.0278 -2.9694
 7645TIP3    H244351   5.102   0.739   3.762 -0.7308  0.1737  0.6859
 7646TIP3   OH244352   3.286   1.225  11.346 -0.5770  0.8297 -0.1637
 7646TIP3    H144353   3.283   1.311  11.389 -1.3471  1.1422 -0.8181
 7646TIP3    H244354   3.241   1.166  11.406 -1.4857  1.2249 -0.4428
 7647TIP3   OH244355   0.298   6.129   1.879 -0.0099  0.1021  0.0168
 7647TIP3    H144356   0.357   6.184   1.930  3.1784 -2.1780 -1.0415
 7647TIP3    H244357   0.245   6.083   1.944  0.6645  0.8305  1.0879
 7648TIP3   OH244358   0.740   5.943   4.587  0.0240  0.2840  0.0806
 7648TIP3    H144359   0.683   5.965   4.512 -0.8827  1.1368  0.9987
 7648TIP3    H244360   0.824   5.983   4.565  0.3424 -1.1307 -1.3693
 7649TIP3   OH244361   4.883   0.528   1.697 -0.2307  0.4050 -0.3694
 7649TIP3    H144362   4.878   0.575   1.781 -0.2676 -0.9437  0.3917
 7649TIP3    H244363   4.887   0.598   1.631 -2.7006  1.4944  0.5948
 7650TIP3   OH244364   1.587   0.207   2.794 -0.2991  0.6114 -0.1008
 7650TIP3    H144365   1.637   0.267   2.849 -0.0456 -0.6594  1.0862
 7650TIP3    H244366   1.610   0.230   2.704  0.1454  1.9709  0.3593
 7651TIP3   OH244367   1.167   2.610   2.524  0.1705 -0.1565 -0.1571
 7651TIP3    H144368   1.130   2.602   2.436  0.9992 -1.2946 -0.4073
 7651TIP3    H244369   1.261   2.614   2.511  0.3045 -0.4078  0.6766
 7652TIP3   OH244370   0.039   4.333   4.258 -0.0033  0.2532  0.3410
 7652TIP3    H144371   0.044   4.424   4.286 -1.0452 -0.1591  1.9686
 7652TIP3    H244372   0.109   4.290   4.308 -1.6836 -0.4337  2.1995
 7653TIP3   OH244373   5.880   3.874  15.641  0.5264 -0.3954 -0.4299
 7653TIP3    H144374   5.868   3.926  15.562 -0.7165 -0.2557 -0.1526
 7653TIP3    H244375   5.882   3.783  15.610  1.2426 -0.2791 -0.7444
 7654TIP3   OH244376   6.527   5.932  16.223 -0.2050  0.2293 -0.0633
 7654TIP3    H144377   6.587   5.858  16.216  0.4219  0.3191  3.1491
 7654TIP3    H244378   6.579   6.008  16.196  0.4844  0.0211  0.6458
 7655TIP3   OH244379   5.007   5.145   0.487 -0.0292 -0.3209  0.3819
 7655TIP3    H144380   4.971   5.224   0.447 -0.2376 -0.1349  0.9261
 7655TIP3    H244381   5.032   5.172   0.575  2.1831 -0.2580 -0.2485
 7656TIP3   OH244382   1.767   1.656   3.673  0.0106 -0.1005  0.0317
 7656TIP3    H144383   1.766   1.683   3.582 -1.1860 -1.5016 -0.4043
 7656TIP3    H244384   1.704   1.584   3.677  0.1641 -0.1617  1.9270
 7657TIP3   OH244385   0.592   1.071   3.102  0.7432  0.5231  0.1452
 7657TIP3    H144386   0.615   1.016   3.028  1.8419  1.1712 -0.0148
 7657TIP3    H244387   0.651   1.146   3.095  1.1725  0.3853  1.9195
 7658TIP3   OH244388   4.578   3.089   0.413 -0.5746  0.1062 -0.0885
 7658TIP3    H144389   4.513   3.103   0.344  2.1177  1.9889 -2.3693
 7658TIP3    H244390   4.537   3.123   0.492 -2.1504  1.8595 -1.5972
 7659TIP3   OH244391   6.359   0.324  15.938 -0.3886  0.4853  0.7634
 7659TIP3    H144392   6.361   0.268  16.015  0.1270  0.6149  0.8498
 7659TIP3    H244393   6.451   0.344  15.921 -0.5079  0.5272  0.1659
 7660TIP3   OH244394   5.949   5.104  12.537 -0.3799 -0.0221 -0.6485
 7660TIP3    H144395   6.017   5.089  12.603 -1.6820  0.4678  0.8252
 7660TIP3    H244396   5.998   5.112  12.455  1.4290  1.2181  0.4997
 7661TIP3   OH244397   5.013   3.999  13.175 -0.9389 -0.7406 -0.0381
 7661TIP3    H144398   4.928   4.042  13.181 -2.9948 -4.6725  0.5520
 7661TIP3    H244399   5.035   4.003  13.082 -3.4526 -2.6645 -0.7735
 7662TIP3   OH244400   4.197   5.958  12.483 -0.3024  0.2931 -0.4597
 7662TIP3    H144401   4.164   5.908  12.408 -0.5005 -0.6850  0.2691
 7662TIP3    H244402   4.121   5.965  12.541  0.1442  0.1043  0.1457
 7663TIP3   OH244403   5.970   3.125  14.823 -0.5074  0.2759  0.1917
 7663TIP3    H144404   6.017   3.207  14.808 -0.2330 -0.0144 -0.5839
 7663TIP3    H244405   5.950   3.126  14.916 -2.2272  2.1206 -0.1735
 7664TIP3   OH244406   2.621   4.340   5.991  0.7357 -0.1729  0.2896
 7664TIP3    H144407   2.586   4.351   6.080  1.1501  0.3920  0.3869
 7664TIP3    H244408   2.696   4.282   6.002 -1.7760 -3.7201 -0.3008
 7665TIP3   OH244409   1.584   3.646   5.344  0.3678  0.2469  0.3246
 7665TIP3    H144410   1.680   3.648   5.341  0.3267  0.5283 -0.8820
 7665TIP3    H244411   1.556   3.700   5.270 -0.7172 -1.3230 -0.4395
 7666TIP3   OH244412   0.488   2.032  10.822  0.7637  0.3759 -0.1090
 7666TIP3    H144413   0.407   2.048  10.775  0.4235 -0.9795  0.0090
 7666TIP3    H244414   0.465   2.042  10.914  0.3760 -1.4465  0.0113
 7667TIP3   OH244415   4.811   6.719   2.885  0.5948  0.3097  0.0093
 7667TIP3    H144416   4.900   6.691   2.906  0.4056 -1.0576 -0.9130
 7667TIP3    H244417   4.778   6.651   2.826 -2.1168 -0.7667  2.6654
 7668TIP3   OH244418   3.823   0.929  16.024 -0.2020  0.9116 -0.1861
 7668TIP3    H144419   3.851   0.848  15.981 -1.7337  0.4671 -0.3651
 7668TIP3    H244420   3.895   0.950  16.084  0.0370 -0.8015  0.1488
 7669TIP3   OH244421   0.601   1.653   5.956 -0.3475 -0.7684  0.4626
 7669TIP3    H144422   0.652   1.662   6.036  0.7759 -1.4964 -0.1481
 7669TIP3    H244423   0.585   1.558   5.949  0.3171 -0.8081 -0.6191
 7670TIP3   OH244424   0.098   3.833   6.064  0.1593 -0.5556 -0.2984
 7670TIP3    H144425   0.067   3.751   6.024 -1.2421  0.7574 -1.9620
 7670TIP3    H244426   0.018   3.879   6.089  0.9542  0.2082  0.8898
 7671TIP3   OH244427   3.130   6.251   2.398 -0.6035 -0.0598  0.1834
 7671TIP3    H144428   3.105   6.248   2.490 -0.8248  0.4353  0.1411
 7671TIP3    H244429   3.047   6.246   2.350 -0.5864  0.9843  0.0355
 7672TIP3   OH244430   4.425   5.101  14.536 -0.6129 -0.7722  0.7475
 7672TIP3    H144431   4.374   5.161  14.483  0.4106  0.2181  0.8637
 7672TIP3    H244432   4.391   5.014  14.514 -2.2576 -0.1454  0.7617
 7673TIP3   OH244433   2.594   5.997   3.711  0.1315 -0.0708 -0.0480
 7673TIP3    H144434   2.592   5.984   3.616 -1.1106 -1.5610  0.1535
 7673TIP3    H244435   2.535   6.070   3.726 -0.6866 -0.6722 -0.3108
 7674TIP3   OH244436   2.671   0.709  15.726  0.1525 -0.0375 -0.3477
 7674TIP3    H144437   2.584   0.672  15.740  0.7740 -1.5809 -0.4293
 7674TIP3    H244438   2.703   0.732  15.813  0.4942 -1.4233 -0.0998
 7675TIP3   OH244439   5.682   6.043  15.411 -0.1366 -0.1910 -0.7640
 7675TIP3    H144440   5.682   6.135  15.385  0.0601  0.1281  0.3701
 7675TIP3    H244441   5.593   6.027  15.442  0.3535  0.1442  0.8679
 7676TIP3   OH244442   2.981   5.735   3.030  0.3599 -0.1069  0.0167
 7676TIP3    H144443   2.957   5.807   2.972  1.5154  0.0614 -0.2631
 7676TIP3    H244444   2.899   5.711   3.075 -0.6207 -0.4560 -1.9174
 7677TIP3   OH244445   2.390   2.807  13.552 -0.0440  0.0794  0.0147
 7677TIP3    H144446   2.354   2.811  13.464  1.3833  1.6776 -0.5236
 7677TIP3    H244447   2.346   2.878  13.599  1.2024  1.0214 -0.2102
 7678TIP3   OH244448   0.483   0.505  17.180  0.0673 -0.4835 -0.3774
 7678TIP3    H144449   0.391   0.481  17.192  0.2951  0.5234  4.0415
 7678TIP3    H244450   0.481   0.596  17.151 -0.3105 -0.2495  0.3839
 7679TIP3   OH244451   4.145   1.709   3.188  0.2085  0.2682  0.5458
 7679TIP3    H144452   4.077   1.645   3.205  1.1854 -1.5040 -1.9817
 7679TIP3    H244453   4.104   1.794   3.208 -2.5706 -0.7909 -0.5183
 7680TIP3   OH244454   2.896   5.174  13.129  0.2178  0.0049  0.5769
 7680TIP3    H144455   2.952   5.133  13.063 -0.4374 -0.8871  0.5674
 7680TIP3    H244456   2.931   5.262  13.137 -0.6875  0.6832 -2.1633
 7681TIP3   OH244457   3.079   2.593   4.751  0.5038 -0.4208 -0.2575
 7681TIP3    H144458   3.105   2.673   4.795  0.1615 -0.0649 -0.6880
 7681TIP3    H244459   3.161   2.545   4.737  0.7613  0.0586 -0.3969
 7682TIP3   OH244460   6.766   5.106  11.868  0.0694  0.1556  0.1236
 7682TIP3    H144461   6.827   5.113  11.794  0.7213  0.1728  0.6588
 7682TIP3    H244462   6.714   5.028  11.849  0.0219  0.3355 -0.5061
 7683TIP3   OH244463   2.293   5.411   3.068  0.9791 -0.2686 -1.0381
 7683TIP3    H144464   2.276   5.358   2.990 -0.4979 -0.4304 -0.6078
 7683TIP3    H244465   2.274   5.501   3.040  0.0338 -0.3760 -0.7410
 7684TIP3   OH244466   1.966   4.481  15.857  0.6114 -0.1044  0.4417
 7684TIP3    H144467   1.903   4.519  15.919 -0.2123 -0.0958 -0.3880
 7684TIP3    H244468   2.052   4.496  15.898 -0.0784 -2.7411  2.9853
 7685TIP3   OH244469   4.063   0.504   3.289 -0.5188 -0.0637  0.4127
 7685TIP3    H144470   4.149   0.529   3.323 -0.8626 -0.9403  2.0080
 7685TIP3    H244471   4.019   0.586   3.269  0.9615  0.3727 -1.1426
 7686TIP3   OH244472   5.920   2.712  15.311  0.5555 -0.4464  0.0107
 7686TIP3    H144473   5.847   2.705  15.373  1.2961  1.7823  1.1916
 7686TIP3    H244474   5.995   2.674  15.357  0.4581 -1.5247 -0.6943
 7687TIP3   OH244475   0.216   6.193   4.870  0.1405  0.2915  0.1354
 7687TIP3    H144476   0.164   6.264   4.907 -1.2845 -0.1844 -0.8650
 7687TIP3    H244477   0.269   6.160   4.943 -0.3681  1.3326  0.9794
 7688TIP3   OH244478   4.739   2.809   3.735 -0.7449  0.1546  0.1965
 7688TIP3    H144479   4.691   2.806   3.652 -2.4286  1.4388  1.0934
 7688TIP3    H244480   4.796   2.885   3.727 -0.5942  0.0271  0.0536
 7689TIP3   OH244481   0.531   5.580   2.835 -0.0768  0.0611 -0.2594
 7689TIP3    H144482   0.563   5.641   2.902 -0.4791 -0.2662  0.2314
 7689TIP3    H244483   0.467   5.526   2.880  1.7595 -2.0924 -0.1805
 7690TIP3   OH244484   5.215   3.121   0.091  0.1208 -0.0710  0.5129
 7690TIP3    H144485   5.158   3.059   0.046  0.2005  0.3857 -0.2261
 7690TIP3    H244486   5.302   3.103   0.058  0.1577  0.3747  0.3617
 7691TIP3   OH244487   0.542   3.648  11.269  0.0933 -0.1206  0.0969
 7691TIP3    H144488   0.498   3.573  11.229 -1.2913  1.0711 -0.6717
 7691TIP3    H244489   0.476   3.688  11.325  0.7124  0.7059  0.2580
 7692TIP3   OH244490   2.417   4.659  11.053 -0.3030 -0.0481  0.3658
 7692TIP3    H144491   2.386   4.592  10.992  0.8633 -0.2190 -0.0555
 7692TIP3    H244492   2.437   4.734  10.998 -0.1222  0.1125  0.6494
 7693TIP3   OH244493   5.528   4.553   2.782  0.4295  0.0142  0.2013
 7693TIP3    H144494   5.452   4.608   2.799  0.3660 -0.2736  0.8658
 7693TIP3    H244495   5.501   4.465   2.810  1.4060  0.1320  1.5770
 7694TIP3   OH244496   3.747   3.938  15.135 -0.0857 -0.6307  0.3457
 7694TIP3    H144497   3.663   3.954  15.092  0.1051  0.6084  0.4164
 7694TIP3    H244498   3.785   3.863  15.088 -1.7630 -1.9933  1.0954
 7695TIP3   OH244499   5.930   0.809  13.432  0.2326 -0.4606 -0.2075
 7695TIP3    H144500   5.898   0.719  13.423  0.4156 -0.7046  1.4562
 7695TIP3    H244501   5.856   0.857  13.470  0.5215 -0.1567 -0.0216
 7696TIP3   OH244502   1.408   4.645  13.548  0.1040  0.3271  0.1386
 7696TIP3    H144503   1.477   4.691  13.501 -1.2029  1.1760 -0.9883
 7696TIP3    H244504   1.369   4.588  13.482  0.9637 -1.5930  1.2391
 7697TIP3   OH244505   3.423   3.438   6.069 -0.4432  0.0518 -0.0283
 7697TIP3    H144506   3.354   3.461   6.132  1.7398  2.2778  1.6782
 7697TIP3    H244507   3.453   3.351   6.096 -1.4462 -0.2117  0.2546
 7698TIP3   OH244508   5.489   3.055   6.829 -0.2909 -0.1758  0.1267
 7698TIP3    H144509   5.445   3.073   6.747 -2.4840  0.6197  1.4378
 7698TIP3    H244510   5.484   2.960   6.839 -0.1705 -0.2547 -0.5544
 7699TIP3   OH244511   4.296   5.782  11.653  0.6448 -0.0864 -0.2625
 7699TIP3    H144512   4.296   5.876  11.674  2.3202  0.0472 -0.8048
 7699TIP3    H244513   4.257   5.741  11.729 -0.2758  1.0768 -0.0921
 7700TIP3   OH244514   0.945   2.568  11.547  0.4315 -0.1712  0.3202
 7700TIP3    H144515   0.973   2.634  11.610  0.0225  0.2370  0.0794
 7700TIP3    H244516   1.020   2.557  11.489  0.3047  0.4901  0.0264
 7701TIP3   OH244517   4.459   6.171  12.474 -0.0784  0.0500 -0.5722
 7701TIP3    H144518   4.436   6.263  12.484 -1.1125 -0.2125 -0.4985
 7701TIP3    H244519   4.377   6.128  12.447  0.2065 -0.9716  0.1517
 7702TIP3   OH244520   4.627   5.562  15.348  0.5251  0.1893  0.5611
 7702TIP3    H144521   4.568   5.492  15.320  0.9590 -0.4109  1.1379
 7702TIP3    H244522   4.569   5.627  15.388  0.0243  0.5799 -0.7897
 7703TIP3   OH244523   5.146   4.269  10.773 -0.4311  0.4508  0.1389
 7703TIP3    H144524   5.160   4.222  10.691  0.5276 -0.1780  0.6411
 7703TIP3    H244525   5.068   4.321  10.759 -1.2084 -0.8963 -0.6349
 7704TIP3   OH244526   6.512   0.530  12.303  0.6837  0.0682  0.0989
 7704TIP3    H144527   6.428   0.486  12.319  1.9204 -2.1190  0.8893
 7704TIP3    H244528   6.488   0.615  12.266 -1.8741 -0.4853  0.3579
 7705TIP3   OH244529   6.575   5.352   1.161  0.0953  0.4588 -0.3757
 7705TIP3    H144530   6.490   5.382   1.193  0.7806 -1.5251  3.5829
 7705TIP3    H244531   6.638   5.385   1.225  1.6234 -3.0106  0.0329
 7706TIP3   OH244532   2.721   5.623   5.046 -0.4995 -0.2472 -0.0108
 7706TIP3    H144533   2.649   5.570   5.014 -0.7129  0.4144 -0.6363
 7706TIP3    H244534   2.717   5.703   4.994 -0.6216  0.6796  1.4027
 7707TIP3   OH244535   3.485   1.728  16.866  0.7751  0.1333  0.2229
 7707TIP3    H144536   3.466   1.660  16.802  1.1318 -3.5999  3.8857
 7707TIP3    H244537   3.399   1.759  16.895  0.6067  0.4947 -0.6378
 7708TIP3   OH244538   5.146   1.231  16.426 -0.3120  0.2641  0.2061
 7708TIP3    H144539   5.123   1.263  16.513 -1.9118  0.1367 -0.1505
 7708TIP3    H244540   5.215   1.166  16.441  2.4583  3.2618  1.0219
 7709TIP3   OH244541   0.145   2.594  13.716  0.5294  0.1472  0.1603
 7709TIP3    H144542   0.171   2.647  13.792 -1.1285  0.0044  0.8480
 7709TIP3    H244543   0.110   2.657  13.653 -1.5706 -0.0852  1.0333
 7710TIP3   OH244544   1.105   4.321  17.227  0.2756  0.3184 -0.0081
 7710TIP3    H144545   1.190   4.344  17.190 -0.0652  0.7248 -0.5395
 7710TIP3    H244546   1.041   4.359  17.167 -0.2827  0.1787  0.4914
 7711TIP3   OH244547   2.681   2.958   2.510  0.4532 -0.2406  0.5455
 7711TIP3    H144548   2.713   3.048   2.505 -1.0795  0.3165  0.2741
 7711TIP3    H244549   2.586   2.966   2.500  0.2101 -1.8151  1.3422
 7712TIP3   OH244550   2.065   0.986  16.497 -0.4805  0.6807 -0.0177
 7712TIP3    H144551   2.008   0.988  16.574 -0.1565 -3.2906  0.4543
 7712TIP3    H244552   2.006   0.967  16.424 -0.3350  1.0080 -0.2218
 7713TIP3   OH244553   0.241   3.895  15.071  0.0371 -0.1165  0.2386
 7713TIP3    H144554   0.322   3.845  15.062 -0.0110 -0.3293  0.9755
 7713TIP3    H244555   0.172   3.829  15.075 -0.2743  0.0899 -1.3486
 7714TIP3   OH244556   6.316   1.815  13.654 -0.2932  0.0438  0.0684
 7714TIP3    H144557   6.403   1.798  13.616 -0.3449 -1.3278  0.5358
 7714TIP3    H244558   6.333   1.876  13.726  0.3422 -0.5157  0.4020
 7715TIP3   OH244559   3.821   0.952   0.066  0.2465 -0.3440 -0.1766
 7715TIP3    H144560   3.856   1.011  -0.002 -1.4855  0.5729 -0.3088
 7715TIP3    H244561   3.727   0.969   0.065  0.1965 -0.4067  2.4138
 7716TIP3   OH244562   3.976   3.020  14.404 -0.1425 -0.1541 -0.1410
 7716TIP3    H144563   4.014   2.936  14.378  0.6966 -0.0500  0.7136
 7716TIP3    H244564   4.018   3.041  14.487 -0.3811  1.0881 -0.3163
 7717TIP3   OH244565   0.657   5.890   1.176 -0.7875 -0.4946  0.1824
 7717TIP3    H144566   0.605   5.832   1.122 -0.1734 -0.0795 -0.8704
 7717TIP3    H244567   0.599   5.963   1.197 -1.0313 -0.6644  0.0922
 7718TIP3   OH244568   6.171   4.689   4.631  0.1031  0.4101  0.7786
 7718TIP3    H144569   6.143   4.695   4.540  1.6464 -0.4398  0.2139
 7718TIP3    H244570   6.248   4.746   4.637 -0.3290  0.9127  1.6969
 7719TIP3   OH244571   6.501   4.985   4.855 -0.0734  0.0444 -0.2190
 7719TIP3    H144572   6.576   5.027   4.897 -1.2539  1.5239  0.4485
 7719TIP3    H244573   6.444   4.958   4.927 -0.3668 -0.7608 -0.7370
 7720TIP3   OH244574   3.656   5.494  15.504 -0.0006  0.0560 -0.4942
 7720TIP3    H144575   3.606   5.418  15.537  0.5010  0.1533  0.5131
 7720TIP3    H244576   3.593   5.566  15.505  0.4671  0.4812  2.0201
 7721TIP3   OH244577   5.608   1.076  14.665  0.0329 -0.3260  0.3026
 7721TIP3    H144578   5.614   1.162  14.705  1.8247 -0.3161  0.0726
 7721TIP3    H244579   5.538   1.031  14.712 -0.5880  1.0882  0.7289
 7722TIP3   OH244580   6.703   4.088  14.495  0.1419 -0.4707 -0.2760
 7722TIP3    H144581   6.706   4.132  14.410 -0.9041  0.3341  0.0897
 7722TIP3    H244582   6.668   4.154  14.554  0.1175 -1.2852  0.6217
 7723TIP3   OH244583   4.156   5.822  17.110  0.1859  0.3933  0.1952
 7723TIP3    H144584   4.099   5.846  17.182  0.7672 -0.5487  0.9783
 7723TIP3    H244585   4.154   5.726  17.108  0.8568  0.3862 -0.4814
 7724TIP3   OH244586   1.438   6.687   3.822 -0.2885  0.1298 -0.1411
 7724TIP3    H144587   1.406   6.597   3.827 -1.1122  0.4818  1.1190
 7724TIP3    H244588   1.360   6.741   3.834  0.5137  1.0067  1.2591
 7725TIP3   OH244589   2.302   5.923  16.493 -0.3894  1.1641  0.6591
 7725TIP3    H144590   2.209   5.908  16.511 -0.7197  0.0920 -1.7622
 7725TIP3    H244591   2.306   6.012  16.459 -0.9458  0.3067 -1.7576
 7726TIP3   OH244592   4.164   1.275  10.711  0.0778 -0.2995  0.2265
 7726TIP3    H144593   4.078   1.266  10.670 -0.2485 -0.0933  0.8601
 7726TIP3    H244594   4.226   1.263  10.639 -0.5042  1.0287 -0.5207
 7727TIP3   OH244595   5.606   6.093  13.019 -0.1733  0.3636 -0.3033
 7727TIP3    H144596   5.511   6.099  13.028 -0.2938 -1.4166 -0.1087
 7727TIP3    H244597   5.622   5.999  13.006  1.6361  0.5124  0.7017
 7728TIP3   OH244598   5.024   2.705  15.896  0.4725  0.1960 -0.5771
 7728TIP3    H144599   5.085   2.639  15.865 -0.8347 -1.3013 -0.0522
 7728TIP3    H244600   5.030   2.701  15.991 -1.0971 -0.6432 -0.4861
 7729TIP3   OH244601   6.092   0.591  16.515 -0.0969 -0.4834  0.1497
 7729TIP3    H144602   5.997   0.595  16.513 -0.0415  0.7308 -0.0598
 7729TIP3    H244603   6.120   0.670  16.561  0.7950 -1.1034  0.7001
 7730TIP3   OH244604   6.422   3.065   3.411  0.2316 -0.1125  0.8530
 7730TIP3    H144605   6.381   3.077   3.326  1.4776  0.2191  0.2784
 7730TIP3    H244606   6.420   3.152   3.451  0.5382 -0.0485  0.7358
 7731TIP3   OH244607   1.092   5.129  15.160 -0.7155  0.1721  0.5114
 7731TIP3    H144608   1.089   5.040  15.125 -0.5034  0.6342 -0.7312
 7731TIP3    H244609   1.001   5.160  15.155 -0.6604  0.2911  0.2031
 7732TIP3   OH244610   6.714   3.622  15.225  0.1449 -0.6043  0.0362
 7732TIP3    H144611   6.798   3.666  15.235  0.6105 -1.3941 -0.3782
 7732TIP3    H244612   6.674   3.663  15.148  0.4431 -0.6884 -0.1634
 7733TIP3   OH244613   3.858   0.405   3.094 -0.4739  0.1176  0.2023
 7733TIP3    H144614   3.935   0.350   3.107  0.0169  0.8535  0.4492
 7733TIP3    H244615   3.889   0.476   3.038 -1.2244 -0.1232 -0.5172
 7734TIP3   OH244616   4.082   1.072  15.161  0.1439 -0.1107 -0.0278
 7734TIP3    H144617   4.171   1.040  15.177  0.5444  0.6022 -0.8005
 7734TIP3    H244618   4.091   1.129  15.085 -1.1074 -0.6305 -0.5747
 7735TIP3   OH244619   0.131   1.569   4.163 -0.1697  0.2195  0.0757
 7735TIP3    H144620   0.118   1.559   4.069 -0.1949 -1.4001  0.2504
 7735TIP3    H244621   0.063   1.515   4.203  0.8939 -0.4225  1.0244
 7736TIP3   OH244622   6.398   4.609  17.237  0.1496  0.4127 -0.2049
 7736TIP3    H144623   6.383   4.606  17.331  1.9651 -1.7176  0.0688
 7736TIP3    H244624   6.410   4.702  17.217 -1.4508  0.9888  1.4443
 7737TIP3   OH244625   4.595   4.952   3.726 -0.5030 -0.4523  0.4118
 7737TIP3    H144626   4.524   4.992   3.676 -0.2707 -0.7077 -0.1209
 7737TIP3    H244627   4.592   4.997   3.811 -1.2986 -0.4582  0.3960
 7738TIP3   OH244628   0.921   5.864  16.724  0.2209  0.0043  0.2179
 7738TIP3    H144629   0.839   5.891  16.682  1.5693 -0.5648 -2.9112
 7738TIP3    H244630   0.896   5.844  16.814 -2.3497  3.5247  0.3666
 7739TIP3   OH244631   2.358   0.525   5.981  0.2012 -0.5117  0.8524
 7739TIP3    H144632   2.314   0.527   5.896  0.8660 -2.1619  0.4582
 7739TIP3    H244633   2.405   0.609   5.985 -2.3343  0.9374  0.9725
 7740TIP3   OH244634   5.764   6.415  14.789  0.2952 -0.3961 -0.0342
 7740TIP3    H144635   5.738   6.327  14.762  0.2223  0.3832 -2.6309
 7740TIP3    H244636   5.834   6.401  14.852  0.7835 -2.3137 -0.9616
 7741TIP3   OH244637   5.243   3.980  16.531  0.8042 -0.7249 -0.2324
 7741TIP3    H144638   5.291   4.050  16.487  0.7139  0.1459  1.0248
 7741TIP3    H244639   5.306   3.943  16.594 -0.6004  1.5599  2.6523
 7742TIP3   OH244640   1.875   1.091   4.562 -0.1738 -0.0107  0.1884
 7742TIP3    H144641   1.925   1.107   4.642 -0.0870  0.1598  0.1027
 7742TIP3    H244642   1.792   1.055   4.592 -0.6656  1.2867  0.4504
 7743TIP3   OH244643   2.107   6.668  16.480 -0.4524 -0.5564 -0.1619
 7743TIP3    H144644   2.167   6.601  16.449 -1.7123 -1.9570  0.3904
 7743TIP3    H244645   2.098   6.651  16.574 -1.2003  0.0624 -0.1159
 7744TIP3   OH244646   0.009   0.766  12.337 -0.0363 -0.2543  0.3677
 7744TIP3    H144647   0.096   0.801  12.358 -0.2773  0.6074 -0.0231
 7744TIP3    H244648   0.024   0.710  12.261  0.1407  0.1285  0.1143
 7745TIP3   OH244649   1.915   3.353  14.043  0.3981 -0.3368  0.1459
 7745TIP3    H144650   1.946   3.381  13.957 -2.1684 -0.8293 -1.0044
 7745TIP3    H244651   1.869   3.271  14.025 -1.4449  0.3186  1.7439
 7746TIP3   OH244652   1.129   1.746   4.347 -0.2198 -0.1719 -0.6168
 7746TIP3    H144653   1.199   1.712   4.404  0.2076  0.4738 -0.7565
 7746TIP3    H244654   1.130   1.840   4.362 -0.4126 -0.0510 -1.3522
 7747TIP3   OH244655   2.908   4.260  11.872  0.2828  0.1916  0.1360
 7747TIP3    H144656   2.950   4.204  11.806  0.7376  0.7209 -0.0228
 7747TIP3    H244657   2.820   4.275  11.838 -0.0949 -1.0345  0.5346
 7748TIP3   OH244658   6.695   1.512   0.817 -0.2598 -0.2940 -0.0100
 7748TIP3    H144659   6.633   1.570   0.862 -0.9603  0.7200 -2.2347
 7748TIP3    H244660   6.641   1.446   0.775  0.2528 -0.0494 -1.0564
 7749TIP3   OH244661   5.889   3.738   1.510  0.6948  0.0783 -0.2193
 7749TIP3    H144662   5.809   3.687   1.516  1.1200 -0.7002 -0.9591
 7749TIP3    H244663   5.958   3.677   1.536  1.2948  0.0253 -1.8983
 7750TIP3   OH244664   5.679   3.734  15.257 -0.1456 -0.1036 -0.3885
 7750TIP3    H144665   5.636   3.680  15.324 -1.3616  0.0470 -1.0452
 7750TIP3    H244666   5.626   3.722  15.179  1.1448 -0.0960 -1.2825
 7751TIP3   OH244667   5.528   2.267  15.313 -0.1563 -0.0394  0.1418
 7751TIP3    H144668   5.438   2.236  15.304 -0.2383 -0.2295  1.5629
 7751TIP3    H244669   5.543   2.321  15.235 -1.8328  0.8023  0.3808
 7752TIP3   OH244670   1.506   1.995   6.333  0.4867 -0.0506 -0.3185
 7752TIP3    H144671   1.452   2.030   6.262 -0.2359 -1.6292 -0.5897
 7752TIP3    H244672   1.596   2.008   6.304  0.1922 -1.0319 -1.7375
 7753TIP3   OH244673   1.951   4.281   0.147 -0.1964 -0.6853 -0.6210
 7753TIP3    H144674   1.947   4.345   0.076 -2.6285 -0.1853 -0.0496
 7753TIP3    H244675   2.018   4.316   0.206 -0.9033  0.8882 -0.7415
 7754TIP3   OH244676   1.387   1.930   5.556  0.1522 -0.2739 -0.5237
 7754TIP3    H144677   1.391   1.872   5.479  0.4895 -0.9174 -0.0283
 7754TIP3    H244678   1.454   1.895   5.615 -0.1358  0.2013  0.0805
 7755TIP3   OH244679   6.430   1.086  12.491 -0.1067 -0.4127 -0.1239
 7755TIP3    H144680   6.421   1.179  12.472 -0.3418 -0.3586  0.2449
 7755TIP3    H244681   6.363   1.043  12.438 -0.0145 -0.3691 -0.2763
 7756TIP3   OH244682   6.074   4.208   1.812  0.1329  0.6483 -0.2827
 7756TIP3    H144683   6.071   4.244   1.723  0.2824  0.6630 -0.2820
 7756TIP3    H244684   6.157   4.238   1.847 -0.7944  2.2693  0.5523
 7757TIP3   OH244685   3.078   1.304   6.313  0.3749 -0.1164  0.2174
 7757TIP3    H144686   3.145   1.365   6.343  0.5189 -0.2792  0.2251
 7757TIP3    H244687   3.099   1.221   6.355  0.2650 -0.2095  0.0915
 7758TIP3   OH244688   5.631   0.710  12.674  0.3495  0.2352  0.2500
 7758TIP3    H144689   5.666   0.706  12.586  0.2268  2.4966  0.0678
 7758TIP3    H244690   5.569   0.783  12.672 -0.9340 -0.7762  1.7583
 7759TIP3   OH244691   2.134   1.915  11.401  0.3534  0.1380 -0.1166
 7759TIP3    H144692   2.117   1.966  11.480  1.4277  1.0459 -0.4644
 7759TIP3    H244693   2.148   1.825  11.432  0.8274  0.5048  0.7263
 7760TIP3   OH244694   3.537   6.588   2.935  0.1503 -0.0937  0.2383
 7760TIP3    H144695   3.619   6.592   2.886  0.8321  0.8942  1.4359
 7760TIP3    H244696   3.544   6.657   3.001 -0.6452 -1.5310  1.8842
 7761TIP3   OH244697   1.082   6.131  12.817  0.0168  0.5688  0.4774
 7761TIP3    H144698   1.048   6.167  12.899  1.9941  0.4028  1.3878
 7761TIP3    H244699   1.136   6.201  12.782  0.4375  0.0508  0.1012
 7762TIP3   OH244700   1.093   6.210   5.951 -0.7057  0.0335  0.3827
 7762TIP3    H144701   1.106   6.147   6.023 -0.0120 -0.7824 -0.4561
 7762TIP3    H244702   1.103   6.296   5.993  2.2384 -0.4694  0.7676
 7763TIP3   OH244703   4.207   5.475  14.502  0.3506  0.0668 -0.3335
 7763TIP3    H144704   4.254   5.394  14.483  0.2363 -0.2968  0.8497
 7763TIP3    H244705   4.159   5.494  14.422 -0.7052 -1.7969 -0.1793
 7764TIP3   OH244706   4.491   2.315  12.807  0.3828 -0.1806 -0.1348
 7764TIP3    H144707   4.451   2.256  12.871 -2.2671  0.7190 -0.9058
 7764TIP3    H244708   4.546   2.257  12.753  0.3284 -1.4129  1.1048
 7765TIP3   OH244709   4.256   0.730   5.699  0.1900  0.2444 -0.1161
 7765TIP3    H144710   4.338   0.763   5.663 -0.0782 -1.1148 -2.0527
 7765TIP3    H244711   4.189   0.789   5.664  0.1525  0.2162 -0.0918
 7766TIP3   OH244712   1.642   1.264  12.663 -0.3661  0.5430 -0.3391
 7766TIP3    H144713   1.555   1.225  12.667 -0.6975  1.0243 -2.6358
 7766TIP3    H244714   1.630   1.348  12.620  1.3380  0.2720 -1.4176
 7767TIP3   OH244715   6.566   0.465   2.798  0.0478 -0.2857  0.3553
 7767TIP3    H144716   6.574   0.559   2.814  0.0294 -0.1531 -0.4081
 7767TIP3    H244717   6.598   0.425   2.879 -0.6567  0.3834  0.9756
 7768TIP3   OH244718   0.726   5.865   2.817  0.2258  0.0559  0.2337
 7768TIP3    H144719   0.657   5.918   2.857 -0.3003 -1.0517  0.8104
 7768TIP3    H244720   0.805   5.887   2.867 -0.0177  0.1819  0.5665
 7769TIP3   OH244721   6.134   6.486  13.229 -0.3864 -0.2342  0.0282
 7769TIP3    H144722   6.048   6.525  13.217 -1.0229 -1.4319  0.7340
 7769TIP3    H244723   6.158   6.455  13.142 -0.5832  0.2550 -0.2036
 7770TIP3   OH244724   4.311   3.443   4.425  0.1497  0.0649 -0.3523
 7770TIP3    H144725   4.339   3.531   4.402  1.8608 -0.0293  1.2616
 7770TIP3    H244726   4.218   3.441   4.403  0.0981  2.2566 -0.4421
 7771TIP3   OH244727   4.414   4.658  11.091 -0.0380 -0.2361 -0.6170
 7771TIP3    H144728   4.344   4.673  11.027  0.3316  2.4717 -0.4612
 7771TIP3    H244729   4.399   4.724  11.158  2.4143  0.1297 -0.3698
 7772TIP3   OH244730   4.605   5.502  16.889  0.1810 -0.6827  0.1146
 7772TIP3    H144731   4.684   5.447  16.887  0.3250 -0.5995  2.2822
 7772TIP3    H244732   4.562   5.478  16.971 -0.8605  0.9087  0.0470
 7773TIP3   OH244733   3.546   5.026  12.906  0.4998 -0.6926  0.1968
 7773TIP3    H144734   3.628   5.002  12.949  1.9488 -0.3633 -2.3074
 7773TIP3    H244735   3.538   4.963  12.834 -0.7462  0.1479 -0.4094
 7774TIP3   OH244736   5.441   2.470  15.713  0.0977  0.3595 -0.3514
 7774TIP3    H144737   5.501   2.537  15.747  1.1897 -1.4870  1.4847
 7774TIP3    H244738   5.486   2.434  15.637  1.9638 -1.7910  1.6589
 7775TIP3   OH244739   3.682   5.904   4.597  0.0557  0.5741  0.3070
 7775TIP3    H144740   3.670   5.831   4.657  0.1458  0.4663  0.1950
 7775TIP3    H244741   3.611   5.896   4.534  0.6632 -0.0185 -0.3108
 7776TIP3   OH244742   2.568   6.482   2.647 -0.5969 -0.3809  0.1566
 7776TIP3    H144743   2.656   6.446   2.654 -0.4930 -0.2122 -0.2913
 7776TIP3    H244744   2.543   6.466   2.556 -0.2240  1.4270 -0.2762
 7777TIP3   OH244745   5.101   4.303   2.920  0.3109 -0.7826  0.3282
 7777TIP3    H144746   5.123   4.343   2.835 -0.6954 -0.0534  0.4060
 7777TIP3    H244747   5.036   4.237   2.899 -0.6406  0.0429  0.6451
 7778TIP3   OH244748   3.049   6.186   2.650  0.1995  0.0414  0.4137
 7778TIP3    H144749   3.140   6.170   2.672 -0.6567 -0.9847  3.3893
 7778TIP3    H244750   3.017   6.103   2.615 -0.1887 -0.2672  1.4969
 7779TIP3   OH244751   2.303   2.808  12.456 -0.1905 -0.1063  0.1242
 7779TIP3    H144752   2.380   2.753  12.440 -0.7352 -0.7612 -0.3060
 7779TIP3    H244753   2.312   2.881  12.395  0.3112  0.0487  0.3833
 7780TIP3   OH244754   3.767   0.578   5.612 -0.2254  0.0467  0.6887
 7780TIP3    H144755   3.734   0.643   5.550  0.3184 -0.9480 -0.6922
 7780TIP3    H244756   3.740   0.609   5.698  0.3849  2.2993  0.0834
 7781TIP3   OH244757   5.532   6.725  17.116  0.3691 -0.3302  0.1929
 7781TIP3    H144758   5.564   6.730  17.205  1.2590  0.0296 -0.1468
 7781TIP3    H244759   5.490   6.810  17.100  0.0312 -0.4698  0.3379
 7782TIP3   OH244760   5.325   1.939  12.023 -0.0980 -0.4417 -0.3266
 7782TIP3    H144761   5.401   1.942  11.965  0.5803  1.2478  0.6130
 7782TIP3    H244762   5.255   1.900  11.970  1.1486 -1.0966 -1.5030
 7783TIP3   OH244763   3.610   0.970   2.300 -0.3062  0.6510  0.6910
 7783TIP3    H144764   3.606   0.936   2.389 -1.5537 -0.5296  0.2131
 7783TIP3    H244765   3.703   0.977   2.281  0.0148 -2.3692  0.8982
 7784TIP3   OH244766   6.127   5.526   1.941  0.4542  0.4309  0.3775
 7784TIP3    H144767   6.129   5.622   1.937 -2.1843  0.5207  0.3681
 7784TIP3    H244768   6.112   5.507   2.034  0.8063  0.0300  0.3517
 7785TIP3   OH244769   0.563   1.816  16.657  0.4311  0.1304 -0.8596
 7785TIP3    H144770   0.576   1.852  16.569  2.9244  0.5871 -0.3338
 7785TIP3    H244771   0.496   1.872  16.696  1.3086  1.6624 -1.5056
 7786TIP3   OH244772   5.381   1.324   3.177 -0.1835  0.4013  0.3584
 7786TIP3    H144773   5.444   1.391   3.202 -0.7818  0.1934  2.5108
 7786TIP3    H244774   5.386   1.321   3.081  2.9635  0.4732  0.4637
 7787TIP3   OH244775   0.194   0.924   3.699 -0.2625 -0.0458  0.0581
 7787TIP3    H144776   0.241   0.856   3.649  0.3983 -0.2723  0.9594
 7787TIP3    H244777   0.144   0.972   3.633  0.8688 -0.1107 -0.8709
 7788TIP3   OH244778   3.981   5.148  15.035  0.1545 -0.6380 -0.4289
 7788TIP3    H144779   4.035   5.142  15.114  3.1489  0.0529 -2.3693
 7788TIP3    H244780   4.018   5.221  14.986  0.1677 -2.8259 -3.8150
 7789TIP3   OH244781   2.216   1.407  17.054  0.3238  0.6882  0.1936
 7789TIP3    H144782   2.153   1.342  17.023  0.3714  1.2585 -1.1195
 7789TIP3    H244783   2.249   1.448  16.974  1.9546  0.7773  0.9025
 7790TIP3   OH244784   3.677   1.766   4.893  0.4935 -0.1997  0.7305
 7790TIP3    H144785   3.688   1.673   4.875  0.1006  0.0124 -0.7257
 7790TIP3    H244786   3.679   1.774   4.988 -2.9553 -2.1386  1.0331
 7791TIP3   OH244787   2.810   1.711   2.498  0.8319  0.3166  0.0687
 7791TIP3    H144788   2.724   1.750   2.508  0.8207  0.2965  0.0519
 7791TIP3    H244789   2.866   1.757   2.561  0.1285 -1.7244  2.2847
 7792TIP3   OH244790   0.747   0.479  12.596  0.1420  0.2859 -0.5739
 7792TIP3    H144791   0.793   0.406  12.637  1.7169  1.4498 -0.2068
 7792TIP3    H244792   0.745   0.457  12.503 -0.5451 -0.8125 -0.3175
 7793TIP3   OH244793   3.843   2.703  12.186  0.4022  0.2748 -0.5361
 7793TIP3    H144794   3.906   2.754  12.237  0.9786  0.0861 -1.0422
 7793TIP3    H244795   3.820   2.761  12.113 -1.0384  0.8583  0.3680
 7794TIP3   OH244796   1.976   3.454   5.039 -0.1114 -0.1946  0.5566
 7794TIP3    H144797   1.882   3.440   5.043 -0.4065  1.3880 -0.7939
 7794TIP3    H244798   2.002   3.418   4.954  0.0945  1.6444 -0.1780
 7795TIP3   OH244799   5.211   3.898  15.446  0.1155  0.2579  0.6611
 7795TIP3    H144800   5.300   3.931  15.457  0.8591 -1.2142 -0.6727
 7795TIP3    H244801   5.205   3.825  15.507  0.6105 -1.0624 -0.8213
 7796TIP3   OH244802   0.156   1.014   3.390  0.3023 -0.5009 -0.2402
 7796TIP3    H144803   0.247   0.993   3.372  0.6218 -0.4466  1.2617
 7796TIP3    H244804   0.159   1.097   3.438 -0.4930 -0.7119  0.1886
 7797TIP3   OH244805   4.917   2.656   2.146  0.7007 -0.2798 -0.0876
 7797TIP3    H144806   4.823   2.661   2.127  0.2519 -0.1612  2.0455
 7797TIP3    H244807   4.922   2.635   2.239  2.8006 -0.5642 -0.2321
 7798TIP3   OH244808   0.351   2.054  14.242  0.0339  0.0901 -0.0865
 7798TIP3    H144809   0.299   1.974  14.253 -1.6367  0.9455 -1.5761
 7798TIP3    H244810   0.430   2.025  14.196 -1.0684 -0.5484 -1.6209
 7799TIP3   OH244811   1.500   0.346  14.036  0.2659 -0.1413  0.0399
 7799TIP3    H144812   1.482   0.293  13.958  1.1705 -1.5088  0.7473
 7799TIP3    H244813   1.457   0.299  14.107  0.6719  0.3417  0.6023
 7800TIP3   OH244814   1.898   4.304  16.702 -0.3381 -0.0198  0.1565
 7800TIP3    H144815   1.922   4.359  16.777  0.3717 -1.4293  0.9997
 7800TIP3    H244816   1.967   4.319  16.638 -0.6132  0.7251  0.0340
 7801TIP3   OH244817   3.170   2.368   0.804  0.1045  0.2497 -0.3441
 7801TIP3    H144818   3.253   2.321   0.813 -1.5021 -2.6366  0.2993
 7801TIP3    H244819   3.177   2.442   0.864  1.0332 -1.7595  2.1329
 7802TIP3   OH244820   4.203   4.580  15.741  0.1529  0.6495 -0.1177
 7802TIP3    H144821   4.159   4.616  15.665  0.2943  1.0503 -0.0117
 7802TIP3    H244822   4.238   4.656  15.787  1.6325  0.2952 -0.6242
 7803TIP3   OH244823   0.974   3.045  10.828 -0.2136  0.0598 -0.2834
 7803TIP3    H144824   1.063   3.013  10.846 -0.3201  0.0479  0.2075
 7803TIP3    H244825   0.951   3.098  10.904 -0.8645 -0.4323 -0.1295
 7804TIP3   OH244826   1.050   6.285  14.796 -0.0999  0.2055 -0.3285
 7804TIP3    H144827   1.105   6.207  14.802 -0.6528 -0.0129  2.4830
 7804TIP3    H244828   1.110   6.358  14.809  0.1758  0.1763 -1.4225
 7805TIP3   OH244829   4.603   3.794  12.720  0.2065  0.1020  0.0860
 7805TIP3    H144830   4.519   3.751  12.708  0.6820 -0.5859 -0.8342
 7805TIP3    H244831   4.656   3.731  12.770  1.2008 -0.8019 -2.0346
 7806TIP3   OH244832   0.351   3.705  10.891  0.5776 -0.0649  0.0074
 7806TIP3    H144833   0.312   3.695  10.977  1.2281 -0.4041  0.2744
 7806TIP3    H244834   0.286   3.670  10.830  0.3417 -0.3340  0.4152
 7807TIP3   OH244835   4.496   5.304   5.357  0.0194  0.1902 -0.3876
 7807TIP3    H144836   4.552   5.229   5.380  0.2887  0.0202 -1.5738
 7807TIP3    H244837   4.454   5.279   5.275 -0.7561  0.8843 -0.2110
 7808TIP3   OH244838   0.152   4.233   1.309  0.9682 -0.5508 -0.0572
 7808TIP3    H144839   0.097   4.270   1.379 -0.1347 -0.1238 -1.1149
 7808TIP3    H244840   0.178   4.147   1.341 -1.1783 -1.1926  0.0873
 7809TIP3   OH244841   4.838   1.127  11.252 -1.0753 -0.0832 -0.1470
 7809TIP3    H144842   4.826   1.195  11.318 -0.2554 -0.8576  0.8289
 7809TIP3    H244843   4.772   1.145  11.186 -1.6761  0.9241  0.7175
 7810TIP3   OH244844   6.041   0.632  12.574  0.1393 -0.2609 -0.6074
 7810TIP3    H144845   6.026   0.584  12.655 -0.4268  3.1380  1.4093
 7810TIP3    H244846   5.954   0.656  12.542  0.4349  0.4426 -0.9216
 7811TIP3   OH244847   1.182   3.070  13.606  0.3650 -0.0175 -0.7322
 7811TIP3    H144848   1.158   3.027  13.688  0.0286  2.6784  0.6374
 7811TIP3    H244849   1.278   3.069  13.606  0.4289  1.9085  0.8266
 7812TIP3   OH244850   5.332   4.518   5.352  0.1831  0.4518  0.4426
 7812TIP3    H144851   5.398   4.586   5.336  0.3716  0.1921  0.0833
 7812TIP3    H244852   5.252   4.566   5.374  0.2524  0.7999 -0.0467
 7813TIP3   OH244853   1.769   4.404   0.433 -0.4477 -0.2781 -0.3977
 7813TIP3    H144854   1.826   4.379   0.506  2.6386  0.3702 -2.4700
 7813TIP3    H244855   1.768   4.327   0.376  0.9478  0.7798 -1.8951
 7814TIP3   OH244856   0.911   5.034  12.197 -0.1650 -0.4180  0.1258
 7814TIP3    H144857   0.926   5.077  12.281  0.6294  0.1032 -0.2773
 7814TIP3    H244858   0.992   5.048  12.148 -0.9244 -0.0073 -1.0311
 7815TIP3   OH244859   4.656   4.397   5.082 -0.2960 -0.4268 -0.2635
 7815TIP3    H144860   4.581   4.405   5.140  0.9689 -2.4083  1.7541
 7815TIP3    H244861   4.650   4.307   5.048  0.9226 -0.4663 -0.3892
 7816TIP3   OH244862   5.740   6.360  12.501 -0.1851  0.4428  0.4963
 7816TIP3    H144863   5.762   6.391  12.413 -0.6511 -1.0285 -0.1580
 7816TIP3    H244864   5.652   6.325  12.493  0.3304 -1.0518  1.1873
 7817TIP3   OH244865   1.780   2.288  11.353 -0.7090 -0.1182 -0.8657
 7817TIP3    H144866   1.809   2.285  11.262 -2.0912  1.6600 -1.3895
 7817TIP3    H244867   1.760   2.197  11.375  0.4384 -0.6721 -2.0625
 7818TIP3   OH244868   0.898   2.311   0.399 -0.3314  0.0313  0.7195
 7818TIP3    H144869   0.827   2.278   0.343  1.9054 -0.4606 -1.9341
 7818TIP3    H244870   0.893   2.406   0.389  0.9043 -0.1144 -1.4352
 7819TIP3   OH244871   2.424   3.308   5.495 -0.1181 -0.3613 -0.1130
 7819TIP3    H144872   2.460   3.243   5.435 -1.3285 -0.2195 -1.0063
 7819TIP3    H244873   2.382   3.256   5.564 -0.4220 -0.5213 -0.4198
 7820TIP3   OH244874   0.641   1.462  12.320  0.0202 -0.2100  0.1801
 7820TIP3    H144875   0.559   1.422  12.351  0.3143 -0.2050  0.9760
 7820TIP3    H244876   0.707   1.433  12.383  0.1645  1.8208  0.9902
 7821TIP3   OH244877   2.546   2.516  12.421 -0.4341  0.8585  0.6628
 7821TIP3    H144878   2.623   2.566  12.450 -1.0942  2.2159  0.1273
 7821TIP3    H244879   2.582   2.433  12.390  0.5723  0.5219  2.6347
 7822TIP3   OH244880   1.017   5.807  11.524  0.2927  0.2816 -0.1356
 7822TIP3    H144881   0.964   5.865  11.469  0.2804 -0.6817 -1.1623
 7822TIP3    H244882   0.979   5.815  11.611 -0.5718  0.7721 -0.5499
 7823TIP3   OH244883   2.944   0.899  12.975 -0.2111 -0.5916 -0.2621
 7823TIP3    H144884   2.893   0.980  12.969  0.8110  0.1209  0.4106
 7823TIP3    H244885   2.980   0.887  12.887  0.6865  0.4085 -0.0470
 7824TIP3   OH244886   6.782   3.598   3.632  0.1877  0.3556 -0.2250
 7824TIP3    H144887   6.810   3.520   3.584  1.1648  0.4727  0.1349
 7824TIP3    H244888   6.762   3.566   3.720  2.0114  0.7213  0.3515
 7825TIP3   OH244889   4.411   2.868   2.315 -0.1682 -0.2699  0.5592
 7825TIP3    H144890   4.411   2.953   2.359  2.0547  0.1761 -0.2720
 7825TIP3    H244891   4.449   2.885   2.229 -2.3085 -1.5802 -0.7066
 7826TIP3   OH244892   5.473   3.080   0.298  0.3980  0.4228  0.1371
 7826TIP3    H144893   5.448   3.166   0.264  0.0643  0.7860  1.2744
 7826TIP3    H244894   5.568   3.076   0.286  0.5762  1.4176  1.1117
 7827TIP3   OH244895   0.292   2.660   5.289 -0.2903 -0.4272  0.3913
 7827TIP3    H144896   0.265   2.747   5.258  0.7489 -0.1526  0.2421
 7827TIP3    H244897   0.328   2.676   5.376  1.5745 -0.4314 -0.3639
 7828TIP3   OH244898   0.062   2.876   5.805  0.8463  0.0562 -0.1118
 7828TIP3    H144899   0.143   2.843   5.844  0.1451 -2.5937 -0.8445
 7828TIP3    H244900   0.090   2.923   5.727  1.7306 -0.4144 -0.0790
 7829TIP3   OH244901   1.992   6.484   1.376  0.2865  0.6543 -0.2748
 7829TIP3    H144902   1.992   6.423   1.302 -1.1938  0.5839 -0.2330
 7829TIP3    H244903   1.933   6.443   1.440  1.0339  1.0441  0.6732
 7830TIP3   OH244904   0.897   5.397   6.136 -0.1076 -0.2999  0.1982
 7830TIP3    H144905   0.834   5.376   6.067  0.1999  1.5829 -0.6818
 7830TIP3    H244906   0.897   5.493   6.140  2.4940 -0.2793  0.3635
 7831TIP3   OH244907   1.428   2.028  17.177 -0.1171  1.3487 -0.0787
 7831TIP3    H144908   1.470   1.976  17.108 -0.9403  1.2210 -0.4975
 7831TIP3    H244909   1.375   2.092  17.129 -0.8118  1.1588  0.4322
 7832TIP3   OH244910   6.653   5.532   4.226  0.3951  0.7294  0.3096
 7832TIP3    H144911   6.667   5.627   4.229 -0.5362  0.8531  0.6548
 7832TIP3    H244912   6.622   5.515   4.137 -0.9959  0.9607  0.7473
 7833TIP3   OH244913   3.043   2.080   1.086 -0.8279  0.1007  0.4989
 7833TIP3    H144914   3.030   2.118   1.173 -0.8202  1.3474 -0.0388
 7833TIP3    H244915   3.129   2.038   1.091 -0.2528  1.2876  0.7012
 7834TIP3   OH244916   4.674   0.427  14.282 -0.9086  0.2034  0.1814
 7834TIP3    H144917   4.718   0.471  14.355 -1.1518  1.1605 -0.2506
 7834TIP3    H244918   4.745   0.399  14.224 -0.8253  1.1941 -0.2038
 7835TIP3   OH244919   0.696   6.347   4.606 -0.6936 -0.2714 -0.2311
 7835TIP3    H144920   0.752   6.279   4.643  0.7559  1.3345  0.6061
 7835TIP3    H244921   0.713   6.345   4.512  0.1493 -0.3270 -0.0739
 7836TIP3   OH244922   5.635   6.650  13.876 -0.2201 -0.0272  0.5615
 7836TIP3    H144923   5.684   6.724  13.912  0.2114  0.1479 -0.3879
 7836TIP3    H244924   5.696   6.577  13.879  0.2730  0.3029 -1.0755
 7837TIP3   OH244925   1.715   1.776   3.437 -0.4561  0.1673  0.4908
 7837TIP3    H144926   1.810   1.783   3.445 -0.3472 -0.8604  0.2046
 7837TIP3    H244927   1.682   1.863   3.459  0.4157 -0.0475  2.7109
 7838TIP3   OH244928   5.588   6.246   3.926  0.3937  0.5182  0.3712
 7838TIP3    H144929   5.553   6.174   3.978  1.0322  1.1416  1.6905
 7838TIP3    H244930   5.598   6.318   3.989  0.3845  1.5522 -0.7847
 7839TIP3   OH244931   5.827   0.566  11.054  0.0966 -0.4958  0.4982
 7839TIP3    H144932   5.921   0.569  11.036  0.1523 -1.2174  0.6325
 7839TIP3    H244933   5.805   0.473  11.048 -0.8536 -0.2101 -0.7641
 7840TIP3   OH244934   1.195   1.873   3.188  0.0074  0.2108 -0.2202
 7840TIP3    H144935   1.280   1.848   3.224 -2.0039 -2.9971  2.6184
 7840TIP3    H244936   1.170   1.950   3.238  0.2949 -0.0864  0.3852
 7841TIP3   OH244937   6.766   3.292  14.818 -0.6739 -0.4882 -0.0136
 7841TIP3    H144938   6.783   3.245  14.899 -1.3503 -1.1029 -0.2259
 7841TIP3    H244939   6.777   3.385  14.841  0.0346 -0.7133  0.5541
 7842TIP3   OH244940   0.857   0.929   5.929  0.2892 -0.2955  0.5236
 7842TIP3    H144941   0.948   0.927   5.961 -0.3468  0.4463  2.4767
 7842TIP3    H244942   0.804   0.926   6.009 -1.4036  0.3978 -0.5488
 7843TIP3   OH244943   4.481   5.672   0.631  0.2558  0.6831  0.1344
 7843TIP3    H144944   4.527   5.607   0.578 -1.6995 -1.0251  0.5137
 7843TIP3    H244945   4.427   5.720   0.568  0.1028  0.5503  0.1645
 7844TIP3   OH244946   4.508   2.452   3.324  0.1950 -0.1903  0.0058
 7844TIP3    H144947   4.514   2.461   3.419  0.2485 -1.8308  0.1757
 7844TIP3    H244948   4.432   2.395   3.309  0.7343 -0.7078 -0.8763
 7845TIP3   OH244949   4.532   6.003  10.796  0.5759 -0.0434 -0.1665
 7845TIP3    H144950   4.597   6.072  10.786 -0.2185  0.6339 -0.7517
 7845TIP3    H244951   4.465   6.023  10.731 -0.9851  0.1336  1.4534
 7846TIP3   OH244952   4.003   3.968  10.924  0.3272 -0.6236 -0.3578
 7846TIP3    H144953   4.079   3.954  10.868  0.4019 -1.4109 -0.0683
 7846TIP3    H244954   3.930   3.975  10.863  0.4628 -1.0732 -0.5717
 7847TIP3   OH244955   4.974   1.025   3.804 -0.3459 -0.0006  0.3360
 7847TIP3    H144956   5.033   1.087   3.846  0.4025 -0.2505 -0.3370
 7847TIP3    H244957   4.909   1.004   3.872  0.9549 -0.5526  1.4441
 7848TIP3   OH244958   3.647   3.182   2.679 -0.1940 -0.5409  0.5913
 7848TIP3    H144959   3.738   3.154   2.665 -0.1547 -0.7664  1.2463
 7848TIP3    H244960   3.648   3.219   2.768 -0.5900  0.1030  0.3274
 7849TIP3   OH244961   4.932   2.088   1.782  0.0794  0.1007  0.2229
 7849TIP3    H144962   4.992   2.135   1.840 -0.4604 -0.9033  1.6137
 7849TIP3    H244963   4.957   1.996   1.790 -2.3606 -0.4734  1.7201
 7850TIP3   OH244964   4.249   6.701   3.771 -0.4751  0.0524 -0.3824
 7850TIP3    H144965   4.288   6.662   3.693 -0.5858  0.3173 -0.5733
 7850TIP3    H244966   4.318   6.758   3.807  0.5179 -2.0983  1.2305
 7851TIP3   OH244967   6.412   1.187  13.981 -0.6519 -0.4036 -0.8001
 7851TIP3    H144968   6.433   1.223  14.067  0.1511  0.5518 -1.3883
 7851TIP3    H244969   6.386   1.096  13.999 -1.8397  0.1824  0.5999
 7852TIP3   OH244970   2.723   3.221  15.326  0.2410  0.2534 -0.9347
 7852TIP3    H144971   2.817   3.234  15.319  0.5221 -2.1613 -2.0678
 7852TIP3    H244972   2.694   3.289  15.387  3.0195 -0.2834  1.0919
 7853TIP3   OH244973   5.728   3.934   5.272  0.7904 -0.6233 -1.0524
 7853TIP3    H144974   5.681   3.857   5.303 -0.4792  0.7063  0.3858
 7853TIP3    H244975   5.676   3.966   5.198 -1.8244  2.0330  1.7969
 7854TIP3   OH244976   6.160   0.091  14.045  0.2938 -0.5447  0.1817
 7854TIP3    H144977   6.121   0.140  14.118 -1.6753 -0.9415 -0.5746
 7854TIP3    H244978   6.251   0.077  14.072  0.6785  2.7730  0.7856
 7855TIP3   OH244979   3.296   0.963  13.645  0.4237  0.3065  0.8083
 7855TIP3    H144980   3.262   0.937  13.731 -1.7215  0.9056  0.1779
 7855TIP3    H244981   3.223   0.948  13.586  0.7191  3.2443 -0.3455
 7856TIP3   OH244982   4.911   4.834  14.176  0.2290 -0.0145  0.1419
 7856TIP3    H144983   4.890   4.898  14.108 -0.3225  1.0310  1.2945
 7856TIP3    H244984   4.916   4.885  14.257 -2.6202 -1.7474  1.4872
 7857TIP3   OH244985   5.321   5.117   4.912 -0.5129  0.2800 -0.7615
 7857TIP3    H144986   5.248   5.180   4.906 -1.3699 -0.4724  1.3545
 7857TIP3    H244987   5.295   5.045   4.854 -0.1989  1.2198 -2.0805
 7858TIP3   OH244988   3.782   2.209  12.427  0.1202  0.2145  0.0024
 7858TIP3    H144989   3.851   2.142  12.434  1.5565  1.4929 -1.6075
 7858TIP3    H244990   3.828   2.292  12.438 -1.4982  1.0213  0.9338
 7859TIP3   OH244991   4.604   3.396   2.029  0.3273 -0.0295 -0.2140
 7859TIP3    H144992   4.518   3.436   2.039  0.2383  0.1123 -1.5628
 7859TIP3    H244993   4.666   3.468   2.042  0.3102 -0.3754  2.0979
 7860TIP3   OH244994   1.201   3.337  13.174  0.0763 -0.4795 -0.3952
 7860TIP3    H144995   1.255   3.348  13.096  0.1503 -1.1650 -0.4407
 7860TIP3    H244996   1.111   3.331  13.141  0.1321 -1.0245 -0.4450
 7861TIP3   OH244997   6.632   3.340   1.310  0.1744  0.0804  0.3387
 7861TIP3    H144998   6.722   3.338   1.279 -0.3064  0.0944 -1.1162
 7861TIP3    H244999   6.632   3.285   1.388  0.6620 -3.1884 -1.8627
 7862TIP3   OH245000   5.911   3.315  16.433 -0.1363 -0.4409 -0.3924
 7862TIP3    H145001   5.950   3.372  16.366  1.0621 -0.7642  0.0283
 7862TIP3    H245002   5.984   3.263  16.466 -0.7499 -0.4033  1.0555
 7863TIP3   OH245003   1.021   6.015   2.767  0.2850 -0.0816  0.9085
 7863TIP3    H145004   1.054   6.032   2.855 -0.5650 -0.3520  1.2835
 7863TIP3    H245005   1.096   5.980   2.720  0.8732  0.5255  1.3887
 7864TIP3   OH245006   4.558   1.600   4.045 -0.5976  0.3266 -0.4835
 7864TIP3    H145007   4.496   1.672   4.055 -0.1674  0.5384  0.7821
 7864TIP3    H245008   4.517   1.526   4.091 -0.1140  0.3553  0.0046
 7865TIP3   OH245009   1.164   5.789   4.768  0.5239 -0.4322  0.1343
 7865TIP3    H145010   1.074   5.819   4.781  0.6780 -0.8476  2.3971
 7865TIP3    H245011   1.156   5.713   4.710 -0.5692 -0.3349  0.1507
 7866TIP3   OH245012   0.372   6.285   6.595  0.4546  0.4828 -0.3968
 7866TIP3    H145013   0.334   6.258   6.679  2.7707 -1.5574  0.0641
 7866TIP3    H245014   0.315   6.244   6.530 -0.7951  1.2822  0.1633
 7867TIP3   OH245015   0.428   2.422  14.047 -0.6680  0.0494 -0.2796
 7867TIP3    H145016   0.512   2.421  14.003 -1.2004 -1.8057 -1.3044
 7867TIP3    H245017   0.386   2.504  14.019  0.1525  0.2319 -0.9672
 7868TIP3   OH245018   4.648   0.188   4.951  0.1667 -0.1708  0.3259
 7868TIP3    H145019   4.717   0.127   4.926  0.6537 -0.6742  2.7368
 7868TIP3    H245020   4.637   0.175   5.045 -0.1115  3.0793  0.8210
 7869TIP3   OH245021   3.357   1.664   5.730 -0.2801  1.0188  0.2106
 7869TIP3    H145022   3.395   1.714   5.802 -2.8560  0.1901  2.2337
 7869TIP3    H245023   3.326   1.731   5.669  0.8848  1.7606  0.4075
 7870TIP3   OH245024   3.492   4.468  13.325  0.9315  0.6408  0.1835
 7870TIP3    H145025   3.567   4.516  13.360  1.0330 -1.0836  2.4538
 7870TIP3    H245026   3.416   4.517  13.357  1.0542 -0.0319  1.5600
 7871TIP3   OH245027   5.022   2.027  15.078 -0.1675 -0.4414  0.1325
 7871TIP3    H145028   5.022   1.933  15.095  2.3833 -0.7677 -1.4248
 7871TIP3    H245029   5.032   2.034  14.983 -5.1061  1.4076 -0.4269
 7872TIP3   OH245030   1.755   0.388   3.357  0.2856 -0.3573  0.8128
 7872TIP3    H145031   1.849   0.403   3.343  0.0363  0.5524  0.0825
 7872TIP3    H245032   1.728   0.461   3.413 -0.5002  0.7797 -1.0179
 7873TIP3   OH245033   6.158   6.497   1.466 -0.7809 -0.2401  0.6922
 7873TIP3    H145034   6.072   6.463   1.440  0.4704 -1.0051 -2.6772
 7873TIP3    H245035   6.139   6.581   1.509 -3.1955 -0.4139  0.0331
 7874TIP3   OH245036   0.712   6.094  15.649  0.4159 -0.3355  0.2508
 7874TIP3    H145037   0.715   6.038  15.572 -0.6702 -2.1771  1.5143
 7874TIP3    H245038   0.679   6.178  15.617 -0.8977 -1.3629 -1.1104
 7875TIP3   OH245039   3.007   3.417  16.591 -0.3477 -0.2117 -0.0936
 7875TIP3    H145040   2.970   3.416  16.503 -0.8245 -1.0393  0.1080
 7875TIP3    H245041   2.946   3.365  16.643 -0.3417  0.7059  0.8410
 7876TIP3   OH245042   6.431   3.651   2.523 -0.0626 -0.7509 -0.6103
 7876TIP3    H145043   6.399   3.563   2.506  0.1004 -0.8333 -0.4904
 7876TIP3    H245044   6.429   3.660   2.619 -1.3449 -0.1526 -0.6884
 7877TIP3   OH245045   2.377   5.997   3.270  0.4554  0.1564 -0.5035
 7877TIP3    H145046   2.322   6.052   3.325  0.1998 -0.3378 -0.2557
 7877TIP3    H245047   2.319   5.925   3.244  1.6056 -1.6131  1.6543
 7878TIP3   OH245048   0.573   6.125  13.006  0.5341  0.1830 -0.9753
 7878TIP3    H145049   0.566   6.069  12.928  0.7849  0.1937 -1.0077
 7878TIP3    H245050   0.616   6.069  13.071 -0.2838 -0.0420 -0.6318
 7879TIP3   OH245051   3.150   2.317   3.401  0.3191  0.1002  0.1241
 7879TIP3    H145052   3.193   2.351   3.480  0.9332  1.2553 -0.6836
 7879TIP3    H245053   3.060   2.300   3.428  0.3648  1.0676  0.9180
 7880TIP3   OH245054   4.837   0.855  11.364  0.5502 -0.4359 -0.4998
 7880TIP3    H145055   4.827   0.932  11.308  0.2580 -1.3398 -1.7037
 7880TIP3    H245056   4.837   0.781  11.304 -2.5176 -1.6561  0.9130
 7881TIP3   OH245057   5.513   1.327  15.462 -0.4460  0.2447 -0.0526
 7881TIP3    H145058   5.566   1.324  15.383 -0.9055 -0.6149 -0.3443
 7881TIP3    H245059   5.504   1.235  15.488 -1.9176  0.3574 -0.1052
 7882TIP3   OH245060   0.369   3.962  13.042  0.3792 -0.4455  0.3980
 7882TIP3    H145061   0.422   3.902  12.991 -0.8872 -0.2197 -1.2546
 7882TIP3    H245062   0.317   3.906  13.100  2.5304 -0.6509  2.1889
 7883TIP3   OH245063   0.401   2.951  11.288 -0.0268 -0.5811 -0.3554
 7883TIP3    H145064   0.327   2.893  11.305 -0.7066  0.3069 -0.2679
 7883TIP3    H245065   0.469   2.893  11.252 -1.3656 -1.1089 -2.1298
 7884TIP3   OH245066   5.296   5.985  10.973  0.0779  0.2485 -0.4883
 7884TIP3    H145067   5.295   5.889  10.964 -0.5887  0.1939  0.0827
 7884TIP3    H245068   5.224   6.015  10.918 -1.4169  0.2092  1.3925
 7885TIP3   OH245069   4.345   1.302   1.240 -0.4939  0.0857  0.0024
 7885TIP3    H145070   4.402   1.316   1.165 -0.5203 -0.8407 -0.1992
 7885TIP3    H245071   4.313   1.389   1.263 -0.0498  0.4386 -0.7096
 7886TIP3   OH245072   3.896   1.223   6.086 -0.0533 -0.6507 -0.1305
 7886TIP3    H145073   3.883   1.173   6.005 -2.8935 -0.5636  0.2231
 7886TIP3    H245074   3.991   1.233   6.093  0.2427  0.0500 -3.8943
 7887TIP3   OH245075   1.543   0.272   1.344  0.2987  0.0980 -0.2351
 7887TIP3    H145076   1.549   0.345   1.283 -0.4785  0.4601  0.1266
 7887TIP3    H245077   1.634   0.251   1.365  0.5654  0.1817 -1.2624
 7888TIP3   OH245078   5.115   3.652   0.335 -0.4248  0.4501  0.1217
 7888TIP3    H145079   5.021   3.657   0.354 -0.2383  1.6964  0.7572
 7888TIP3    H245080   5.133   3.728   0.280  0.2282  0.2749  0.0888
 7889TIP3   OH245081   4.013   3.505  13.514 -0.5571 -0.0116  0.2782
 7889TIP3    H145082   4.108   3.504  13.530 -0.3466 -1.3157 -0.8948
 7889TIP3    H245083   4.006   3.533  13.422 -1.0968 -3.0953 -0.6846
 7890TIP3   OH245084   2.650   3.960  15.684 -0.1259 -0.0997 -0.5600
 7890TIP3    H145085   2.663   3.895  15.753 -0.3920  0.9254  0.4602
 7890TIP3    H245086   2.555   3.969  15.677 -0.0800  0.6205 -0.2818
 7891TIP3   OH245087   4.524   0.810  12.527  0.4380 -0.0299 -0.3162
 7891TIP3    H145088   4.542   0.723  12.563 -1.1827 -1.1559 -2.1086
 7891TIP3    H245089   4.434   0.828  12.552  1.3352  1.9757  1.6031
 7892TIP3   OH245090   0.229   3.463  15.827  0.1155  0.3406 -0.3133
 7892TIP3    H145091   0.212   3.407  15.751 -1.1521  0.2037  0.0735
 7892TIP3    H245092   0.318   3.496  15.812  0.5208 -1.0195 -1.0136
 7893TIP3   OH245093   4.533   2.776  13.538 -0.1976 -0.0364 -0.0694
 7893TIP3    H145094   4.587   2.724  13.597  0.1820 -0.5002 -0.8238
 7893TIP3    H245095   4.493   2.712  13.479 -0.0380  0.4903 -0.7555
 7894TIP3   OH245096   2.306   6.118   0.155  0.3388 -0.1054 -0.5269
 7894TIP3    H145097   2.216   6.107   0.124  0.8207 -0.3035 -1.8764
 7894TIP3    H245098   2.358   6.130   0.075  1.5288 -0.1220  0.2340
 7895TIP3   OH245099   5.713   3.355  13.675  0.3223  0.3383  0.2121
 7895TIP3    H145100   5.655   3.291  13.634  0.1365 -0.5324  1.7884
 7895TIP3    H245101   5.698   3.436  13.627  0.4792 -0.7736 -1.7292
 7896TIP3   OH245102   4.574   6.411  10.302  0.6975  0.0105 -0.4324
 7896TIP3    H145103   4.484   6.400  10.330  0.9633  1.8326  1.2421
 7896TIP3    H245104   4.619   6.331  10.330  0.0656  0.0489  0.7084
 7897TIP3   OH245105   2.843   5.303  15.771 -0.4842  0.6562 -0.9339
 7897TIP3    H145106   2.931   5.339  15.778 -0.5084  1.1011 -2.7153
 7897TIP3    H245107   2.843   5.226  15.828  0.6351  1.4294  0.1323
 7898TIP3   OH245108   5.883   2.516   0.382 -0.4333 -1.2735 -0.3113
 7898TIP3    H145109   5.795   2.494   0.412 -1.0330  1.3283 -0.1070
 7898TIP3    H245110   5.936   2.520   0.462 -1.2287  2.0118  0.0949
 7899TIP3   OH245111   6.352   0.367   1.083  0.0737 -0.9777 -0.5075
 7899TIP3    H145112   6.413   0.426   1.126 -0.9578 -0.6671  0.5434
 7899TIP3    H245113   6.408   0.310   1.029  1.2863 -0.7685  0.5147
 7900TIP3   OH245114   1.266   1.388  11.490  0.7289  0.2481  0.3503
 7900TIP3    H145115   1.291   1.424  11.404  0.8070 -0.1141  0.2214
 7900TIP3    H245116   1.204   1.318  11.469  1.4029 -0.4009  0.5509
 7901TIP3   OH245117   4.546   6.513   4.960 -0.2265  0.1232  0.5384
 7901TIP3    H145118   4.564   6.577   4.890  0.3352 -1.1763 -0.5155
 7901TIP3    H245119   4.486   6.450   4.919  0.5102 -0.9276  1.0816
 7902TIP3   OH245120   6.364   1.676   3.995 -0.1068 -0.1022  0.1030
 7902TIP3    H145121   6.277   1.636   3.996 -0.1548  0.0010  0.0140
 7902TIP3    H245122   6.408   1.639   4.072 -0.5411  0.5395  0.6662
 7903TIP3   OH245123   0.365   5.252  11.135  0.2414 -0.4158  0.1308
 7903TIP3    H145124   0.304   5.181  11.150 -2.7887  1.5248 -2.4715
 7903TIP3    H245125   0.342   5.318  11.201 -1.2569  0.7638 -1.5353
 7904TIP3   OH245126   3.347   6.679   1.956 -0.0866  0.2680  0.3281
 7904TIP3    H145127   3.365   6.712   2.044  0.0805  2.3844 -0.4805
 7904TIP3    H245128   3.253   6.661   1.956 -0.1985  0.8382  0.7634
 7905TIP3   OH245129   0.088   5.932  10.769 -0.3318 -0.1314 -0.2400
 7905TIP3    H145130   0.006   5.909  10.725 -0.4155  0.9171 -0.6673
 7905TIP3    H245131   0.095   6.027  10.757  0.4489 -0.0715  0.6518
 7906TIP3   OH245132   3.684   0.303   1.960 -0.1352  0.5913 -0.3541
 7906TIP3    H145133   3.631   0.236   1.917 -1.5613  1.3525  0.1666
 7906TIP3    H245134   3.638   0.385   1.941  0.0907  1.1080  1.2938
 7907TIP3   OH245135   0.344   0.682   4.358  0.2271 -0.9464  0.1510
 7907TIP3    H145136   0.354   0.612   4.422 -0.8026 -1.4951 -0.2802
 7907TIP3    H245137   0.291   0.747   4.403  0.0602 -1.0355  0.0814
 7908TIP3   OH245138   2.519   5.191   0.938 -0.4762 -0.2780  0.0651
 7908TIP3    H145139   2.554   5.275   0.966 -1.0946  0.3712 -1.0920
 7908TIP3    H245140   2.503   5.201   0.844 -0.2781 -1.7833 -0.1462
 7909TIP3   OH245141   2.033   0.832  16.200 -0.4617  0.2346  0.1395
 7909TIP3    H145142   2.105   0.827  16.263  0.2805  0.1545 -0.7053
 7909TIP3    H245143   1.969   0.768  16.233  0.1730 -0.2380  0.4878
 7910TIP3   OH245144   1.788   3.154  14.439 -0.1190 -0.2313 -0.8303
 7910TIP3    H145145   1.693   3.152  14.434 -0.2095  1.5508 -0.1366
 7910TIP3    H245146   1.810   3.091  14.507 -0.8549 -0.0955 -0.4615
 7911TIP3   OH245147   2.034   6.195   1.750  0.8598 -0.0498  0.6759
 7911TIP3    H145148   1.968   6.157   1.808  1.6400  0.1907  1.7358
 7911TIP3    H245149   2.056   6.279   1.791  2.4094 -0.4845  0.7874
 7912TIP3   OH245150   6.246   1.542   2.100 -0.0531  0.3448  0.0418
 7912TIP3    H145151   6.315   1.563   2.037  0.8901 -0.2550  0.8550
 7912TIP3    H245152   6.219   1.453   2.076  0.2643  0.1401  0.4375
 7913TIP3   OH245153   3.529   5.693   5.154  0.0457 -0.4036  0.3062
 7913TIP3    H145154   3.616   5.730   5.138  0.2445  0.3642  2.8624
 7913TIP3    H245155   3.479   5.713   5.075  2.3660 -1.4307 -1.4630
 7914TIP3   OH245156   1.314   0.040   5.624  0.3024  0.6626  0.3711
 7914TIP3    H145157   1.314  -0.027   5.692 -0.4667  0.5342  0.2519
 7914TIP3    H245158   1.363   0.001   5.552 -1.4202 -0.3662 -0.2602
 7915TIP3   OH245159   3.423   4.525   5.374  0.3351  0.2971  0.0559
 7915TIP3    H145160   3.439   4.431   5.368  1.5124  0.5821 -1.8000
 7915TIP3    H245161   3.465   4.551   5.456 -2.0778 -1.1668  1.8098
 7916TIP3   OH245162   2.021   1.379   4.531 -0.2399 -0.1366 -0.2026
 7916TIP3    H145163   2.098   1.330   4.504  0.2307  2.0506 -3.0000
 7916TIP3    H245164   1.958   1.366   4.460 -1.7658 -0.3258  1.1521
 7917TIP3   OH245165   3.807   0.892   4.534  0.4784  0.6699  0.1676
 7917TIP3    H145166   3.776   0.837   4.461 -1.9436  1.6576  0.3849
 7917TIP3    H245167   3.830   0.829   4.602  1.7599 -0.2324 -1.0596
 7918TIP3   OH245168   5.405   0.210  11.431  0.4697  0.0576 -0.3593
 7918TIP3    H145169   5.320   0.225  11.390 -0.1944 -0.8662  0.6739
 7918TIP3    H245170   5.386   0.159  11.510  2.0208 -0.4903 -0.3203
 7919TIP3   OH245171   3.219   2.640  16.122  0.1009 -0.5535  0.1771
 7919TIP3    H145172   3.201   2.662  16.214 -1.9229  0.0603 -0.3368
 7919TIP3    H245173   3.198   2.720  16.074 -0.8828 -1.5107 -1.0213
 7920TIP3   OH245174   0.841   4.016  15.483 -0.1691  0.3189  0.4099
 7920TIP3    H145175   0.883   3.940  15.525 -1.4823  0.2916  1.7286
 7920TIP3    H245176   0.857   4.088  15.543 -0.9295  0.5775  0.3051
 7921TIP3   OH245177   5.948   3.856   2.806  0.8834 -0.0695 -0.6468
 7921TIP3    H145178   6.026   3.903   2.778  1.4135  0.8190  2.1212
 7921TIP3    H245179   5.981   3.793   2.871 -0.6914  0.3339  0.5703
 7922TIP3   OH245180   4.548   0.063  11.825 -0.3291  0.4714  1.0557
 7922TIP3    H145181   4.468   0.114  11.842 -1.1365 -0.7049  0.8261
 7922TIP3    H245182   4.528   0.013  11.746  0.3656 -0.4148  1.4382
 7923TIP3   OH245183   4.011   3.516   1.852 -0.2249  0.3556  0.1656
 7923TIP3    H145184   4.063   3.489   1.777  1.0814  3.8402 -0.2291
 7923TIP3    H245185   4.060   3.588   1.892 -2.5301  0.7568  2.4230
 7924TIP3   OH245186   1.247   0.574   0.700  0.7205  0.8523 -0.5032
 7924TIP3    H145187   1.253   0.481   0.676  2.6812  0.7379  0.3438
 7924TIP3    H245188   1.167   0.580   0.752  1.6615 -0.7891  1.2082
 7925TIP3   OH245189   5.193   3.599  13.063  0.3658  0.4864  0.1166
 7925TIP3    H145190   5.134   3.525  13.072  1.0739 -0.0402  0.5098
 7925TIP3    H245191   5.244   3.600  13.144 -0.2498  1.9558  0.5140
 7926TIP3   OH245192   3.532   4.637   1.304 -0.4819 -0.1016 -0.5404
 7926TIP3    H145193   3.441   4.626   1.331  0.4137  0.8392  3.0957
 7926TIP3    H245194   3.575   4.556   1.332  0.6158  1.1985  1.7002
 7927TIP3   OH245195   2.195   3.792   2.320 -0.3483 -0.3237 -0.1672
 7927TIP3    H145196   2.155   3.757   2.399  0.0624 -1.3097 -0.3960
 7927TIP3    H245197   2.191   3.887   2.331  0.1822 -0.4638  1.2768
 7928TIP3   OH245198   6.140   3.500   0.909 -0.4580 -0.2111 -0.3127
 7928TIP3    H145199   6.176   3.548   0.983  1.4474 -0.6188 -0.9370
 7928TIP3    H245200   6.210   3.503   0.843 -2.6121  1.3255 -2.6224
 7929TIP3   OH245201   2.511   1.288  12.660 -0.0381  0.0688  0.1670
 7929TIP3    H145202   2.554   1.290  12.746 -1.5166 -0.7853  0.9344
 7929TIP3    H245203   2.419   1.273  12.680 -0.2045 -1.3357 -1.6399
 7930TIP3   OH245204   5.941   5.890  12.152  0.6097 -0.1341 -0.2931
 7930TIP3    H145205   5.977   5.861  12.068  1.8910 -2.2626  0.9483
 7930TIP3    H245206   6.016   5.895  12.210 -0.6063 -1.1383  1.3972
 7931TIP3   OH245207   5.578   5.903   4.627 -0.2090  0.1202 -0.1352
 7931TIP3    H145208   5.552   5.864   4.543 -0.6568 -1.4339  0.6909
 7931TIP3    H245209   5.673   5.896   4.628 -0.2822 -0.9629 -0.0085
 7932TIP3   OH245210   0.304   3.991   2.352  0.1708 -0.1455 -0.1918
 7932TIP3    H145211   0.234   4.040   2.395  0.7679  0.2008  0.4081
 7932TIP3    H245212   0.350   3.948   2.424  1.5520  0.9178 -0.4072
 7933TIP3   OH245213   6.285   3.398   4.919 -0.1696 -0.7997  0.3749
 7933TIP3    H145214   6.330   3.351   4.848  0.0530 -0.8552  0.5545
 7933TIP3    H245215   6.298   3.344   4.996  0.3186 -0.3073  0.6391
 7934TIP3   OH245216   1.298   5.003   5.676 -0.0006  0.1411  0.5738
 7934TIP3    H145217   1.374   4.975   5.727  0.1111  3.0948  2.1480
 7934TIP3    H245218   1.336   5.035   5.594  0.1675 -1.1933  0.1281
 7935TIP3   OH245219   5.350   2.254  15.903 -0.0713 -0.5534  0.1877
 7935TIP3    H145220   5.412   2.274  15.832 -2.4029  0.6301 -1.5910
 7935TIP3    H245221   5.354   2.331  15.960 -2.7018  1.3467 -2.0417
 7936TIP3   OH245222   6.079   0.040   2.576  0.1936 -0.2607 -0.1852
 7936TIP3    H145223   6.044   0.124   2.607 -2.6878 -0.4550 -2.6751
 7936TIP3    H245224   6.022  -0.026   2.616  1.8503 -1.0079  0.9917
 7937TIP3   OH245225   0.671   4.520  11.457  0.0824  0.0932 -0.0660
 7937TIP3    H145226   0.733   4.452  11.486 -0.3405 -0.2700 -0.0093
 7937TIP3    H245227   0.627   4.548  11.537  1.0259  1.2131  0.0716
 7938TIP3   OH245228   2.925   2.468  11.931  0.3644 -0.2830  0.4492
 7938TIP3    H145229   2.880   2.413  11.995 -1.3622  0.4536 -0.1148
 7938TIP3    H245230   2.929   2.415  11.852 -0.6237  0.0954  0.1345
 7939TIP3   OH245231   5.861   4.998   5.380  0.3893  0.0206  0.8407
 7939TIP3    H145232   5.794   5.025   5.442 -2.2672 -0.1119 -1.8385
 7939TIP3    H245233   5.833   4.911   5.351  0.9275  0.5437 -1.3319
 7940TIP3   OH245234   0.933   1.279   2.898  0.3901 -0.1229  0.1165
 7940TIP3    H145235   0.951   1.319   2.813  0.3503 -2.5621 -1.0773
 7940TIP3    H245236   0.839   1.295   2.913 -0.0600 -1.3600 -1.2429
 7941TIP3   OH245237   4.188   4.245  12.433  0.0349 -0.3222 -0.4213
 7941TIP3    H145238   4.280   4.222  12.447 -0.4775 -2.3387 -0.2098
 7941TIP3    H245239   4.166   4.204  12.349 -1.2678 -1.8010  0.6031
 7942TIP3   OH245240   1.932   0.029   5.564  0.2413 -0.5964  0.4741
 7942TIP3    H145241   1.993   0.084   5.514  1.5457 -1.7731  0.7409
 7942TIP3    H245242   1.982   0.005   5.642 -0.4898 -1.7742  0.5761
 7943TIP3   OH245243   5.693   2.870   2.335  0.1207 -0.0555 -0.8333
 7943TIP3    H145244   5.780   2.831   2.327  0.0569 -0.2692 -0.4941
 7943TIP3    H245245   5.678   2.874   2.429 -1.1373 -2.0098 -0.9355
 7944TIP3   OH245246   4.050   0.846   2.983  0.2136  0.1419  0.0945
 7944TIP3    H145247   4.055   0.790   3.061  2.6465  1.1007  0.6781
 7944TIP3    H245248   4.007   0.792   2.917 -0.1994 -1.3403  1.5602
 7945TIP3   OH245249   3.893   4.441   3.355 -0.0720  0.2644 -0.4690
 7945TIP3    H145250   3.969   4.473   3.403  0.7881 -0.4290 -1.3496
 7945TIP3    H245251   3.868   4.360   3.401 -0.2054  0.4315 -0.2479
 7946TIP3   OH245252   1.076   5.262   4.614  0.0886 -0.1117 -0.0500
 7946TIP3    H145253   1.158   5.224   4.646  0.2342 -1.4544 -1.9383
 7946TIP3    H245254   1.014   5.248   4.686  1.0209 -0.8836  0.6199
 7947TIP3   OH245255   2.606   5.928  13.223 -0.4623  0.3582 -0.8532
 7947TIP3    H145256   2.586   5.838  13.250  2.4996 -0.1993 -0.3711
 7947TIP3    H245257   2.559   5.983  13.286 -0.2639 -0.8878  0.4060
 7948TIP3   OH245258   3.117   1.912  15.254  0.1229 -0.3236 -0.4403
 7948TIP3    H145259   3.095   2.000  15.224  1.7146 -0.4176 -2.0186
 7948TIP3    H245260   3.209   1.900  15.227 -0.4988 -2.9791 -1.5616
 7949TIP3   OH245261   0.887   4.237  15.637 -0.3080  0.0948 -0.1836
 7949TIP3    H145262   0.913   4.314  15.586 -0.8112  0.5693  0.2763
 7949TIP3    H245263   0.809   4.264  15.684  0.2129 -0.3031  0.9346
 7950TIP3   OH245264   3.034   4.109  12.165 -0.4738  0.0792 -0.1593
 7950TIP3    H145265   3.033   4.060  12.247  1.6016 -0.4989 -0.4461
 7950TIP3    H245266   3.065   4.045  12.100 -0.9672  0.8618 -1.1789
 7951TIP3   OH245267   5.545   0.079  10.924 -0.2694  0.2119  0.3698
 7951TIP3    H145268   5.625   0.059  10.973 -1.0262  2.0448  2.4410
 7951TIP3    H245269   5.558   0.169  10.893 -1.0426  0.1002 -0.2859
 7952TIP3   OH245270   6.476   2.422  13.202 -0.5190 -0.3322 -0.0079
 7952TIP3    H145271   6.429   2.487  13.253 -0.4519  1.5925 -2.2810
 7952TIP3    H245272   6.419   2.404  13.127  0.3150 -1.4698 -0.3859
 7953TIP3   OH245273   5.378   6.146  12.699 -0.2664 -0.0232  0.0800
 7953TIP3    H145274   5.370   6.129  12.793  0.4190  1.1901  0.3657
 7953TIP3    H245275   5.296   6.190  12.676 -0.1352  0.3172  0.2587
 7954TIP3   OH245276   5.736   3.535  12.795 -0.0361 -0.8421 -0.6099
 7954TIP3    H145277   5.739   3.547  12.890 -0.7922 -1.3357 -0.5101
 7954TIP3    H245278   5.745   3.440  12.783 -0.0160 -0.7877 -1.0241
 7955TIP3   OH245279   2.414   6.275   1.727  0.0576  0.2709  0.0580
 7955TIP3    H145280   2.394   6.366   1.704  0.9443  0.2947 -0.6727
 7955TIP3    H245281   2.418   6.275   1.822 -0.0862  0.9711  0.0688
 7956TIP3   OH245282   2.971   1.942   3.832  0.2706  0.0437  0.5405
 7956TIP3    H145283   3.029   1.894   3.774 -1.0060 -1.5592  0.5578
 7956TIP3    H245284   3.011   1.934   3.919  1.1680  0.8295  0.2114
 7957TIP3   OH245285   5.501   6.226   1.552 -0.2281 -0.1266 -0.4044
 7957TIP3    H145286   5.473   6.165   1.620  0.6300 -0.5148 -0.3877
 7957TIP3    H245287   5.595   6.212   1.545  0.3193  2.4556  0.8621
 7958TIP3   OH245288   5.478   4.221  10.354  0.0166  0.0175  0.1297
 7958TIP3    H145289   5.411   4.284  10.327 -1.1159 -0.8862  0.7794
 7958TIP3    H245290   5.488   4.236  10.448  0.6277  0.0612  0.0561
 7959TIP3   OH245291   4.652   1.285   6.351  0.1989 -0.1952 -0.4091
 7959TIP3    H145292   4.682   1.372   6.327  3.5230 -1.6511 -1.9038
 7959TIP3    H245293   4.609   1.252   6.272 -0.7537 -0.0716  0.0456
 7960TIP3   OH245294   3.525   4.241  15.867  0.4972  0.1455 -0.1236
 7960TIP3    H145295   3.491   4.249  15.778  1.5995 -0.1449 -0.5887
 7960TIP3    H245296   3.559   4.328  15.888  0.1193  0.2474  0.0548
 7961TIP3   OH245297   6.615   4.388  14.135 -0.4138  0.1125 -0.3294
 7961TIP3    H145298   6.671   4.444  14.080  0.6039 -3.1004 -2.6932
 7961TIP3    H245299   6.674   4.354  14.202 -0.5769  0.2205 -0.1286
 7962TIP3   OH245300   6.342   1.380   1.321  0.7137 -0.4223 -0.7299
 7962TIP3    H145301   6.409   1.344   1.379  0.1898 -0.2899 -0.0468
 7962TIP3    H245302   6.347   1.475   1.335  0.5452 -0.3946 -0.8586
 7963TIP3   OH245303   1.112   1.653   0.494  0.1447  0.1088 -0.5090
 7963TIP3    H145304   1.083   1.606   0.416  1.3213 -0.6499 -0.5115
 7963TIP3    H245305   1.197   1.614   0.515 -0.1092  0.3760  1.0927
 7964TIP3   OH245306   0.217   5.458   2.796 -0.5614 -0.1710  0.1659
 7964TIP3    H145307   0.199   5.375   2.838 -1.4742  0.2161  0.5405
 7964TIP3    H245308   0.163   5.459   2.718  0.3664 -0.4497 -0.4899
 7965TIP3   OH245309   4.649   0.907   2.980  0.2363 -0.1237  0.5147
 7965TIP3    H145310   4.651   0.820   3.020  0.3355 -0.0550  0.6615
 7965TIP3    H245311   4.742   0.929   2.966  0.1500 -1.0079 -1.6363
 7966TIP3   OH245312   5.071   4.383  12.302  0.2574  0.3219 -0.5021
 7966TIP3    H145313   5.001   4.319  12.315  0.1731  0.5028 -0.0466
 7966TIP3    H245314   5.034   4.447  12.241 -1.0492  2.0295  2.0221
 7967TIP3   OH245315   5.156   6.312   1.972  0.0362  0.0383 -0.0419
 7967TIP3    H145316   5.082   6.323   2.031  0.2889  1.6855  0.0059
 7967TIP3    H245317   5.169   6.399   1.934  1.8491 -0.2696 -0.1654
 7968TIP3   OH245318   3.553   6.208   1.110  0.5759 -0.4696 -1.1014
 7968TIP3    H145319   3.475   6.158   1.135  1.8297 -1.7421  0.3417
 7968TIP3    H245320   3.528   6.299   1.127 -0.8010 -0.8117 -1.1941
 7969TIP3   OH245321   3.874   4.579  11.708  0.7010 -0.1586  0.1999
 7969TIP3    H145322   3.875   4.663  11.661  0.3333  0.6916  1.6919
 7969TIP3    H245323   3.953   4.534  11.677  1.6744  1.3281  0.4202
 7970TIP3   OH245324   6.029   6.281  15.473  0.6745  0.4038  0.2500
 7970TIP3    H145325   6.037   6.295  15.567  0.0210 -1.5497  0.6243
 7970TIP3    H245326   6.112   6.314  15.437  0.9277  1.1776  1.4885
 7971TIP3   OH245327   4.106   4.958  10.770  0.0014 -0.3225  0.3457
 7971TIP3    H145328   4.146   4.951  10.683 -0.2573 -3.0453  0.4053
 7971TIP3    H245329   4.023   5.004  10.754 -0.6531 -1.9267 -1.0871
 7972TIP3   OH245330   3.253   2.134   5.347 -1.0260  0.3381 -0.6423
 7972TIP3    H145331   3.332   2.116   5.296  0.3345  1.1326  1.1281
 7972TIP3    H245332   3.220   2.047   5.372 -0.1223  0.0177 -0.5318
 7973TIP3   OH245333   5.149   5.830  15.295 -0.1671 -0.1583  0.4681
 7973TIP3    H145334   5.208   5.897  15.259 -0.2120 -0.6451 -0.5022
 7973TIP3    H245335   5.184   5.747  15.263 -0.0316 -0.6265  1.7890
 7974TIP3   OH245336   2.177   5.865   2.251  0.4531  0.6946 -0.0777
 7974TIP3    H145337   2.192   5.788   2.196  0.5575 -1.3932  2.7805
 7974TIP3    H245338   2.120   5.833   2.322  1.9214  2.8086  2.1075
 7975TIP3   OH245339   5.541   4.470  16.198 -0.2816  0.4674 -0.1525
 7975TIP3    H145340   5.479   4.504  16.262  0.5556  0.9128  0.4127
 7975TIP3    H245341   5.506   4.499  16.113  0.0558  2.1369  0.2722
 7976TIP3   OH245342   3.146   5.856   5.812  0.0506  0.3085 -0.0002
 7976TIP3    H145343   3.184   5.872   5.898  1.6060 -0.7476 -0.4881
 7976TIP3    H245344   3.075   5.920   5.806  0.4122  0.9079  1.7468
 7977TIP3   OH245345   4.162   4.698   5.310 -0.1247 -0.2336 -0.0065
 7977TIP3    H145346   4.202   4.776   5.347 -0.3139 -0.4933  0.7479
 7977TIP3    H245347   4.070   4.722   5.294 -0.2134 -0.3391  0.3410
 7978TIP3   OH245348   2.112   2.220   4.071  0.0826  0.1418 -0.4573
 7978TIP3    H145349   2.075   2.308   4.071 -0.4725 -0.0487  2.3795
 7978TIP3    H245350   2.202   2.232   4.101  0.1546 -0.2021 -0.5337
 7979TIP3   OH245351   1.721   3.888  15.236  0.0479 -0.2012  0.0300
 7979TIP3    H145352   1.756   3.827  15.300 -0.6832  0.2075  0.8257
 7979TIP3    H245353   1.742   3.848  15.151 -0.4525 -1.5599  0.5360
 7980TIP3   OH245354   1.492   3.296   4.540 -0.6472 -0.1911 -0.8782
 7980TIP3    H145355   1.570   3.268   4.589 -0.8037 -0.1283 -0.5940
 7980TIP3    H245356   1.420   3.247   4.579 -1.0888  1.4158  0.3561
 7981TIP3   OH245357   1.078   5.134  16.336 -0.2629  0.5395 -0.0891
 7981TIP3    H145358   1.068   5.044  16.305 -0.6515  0.7699 -0.6447
 7981TIP3    H245359   1.132   5.176  16.269 -0.4362  0.8270 -0.0475
 7982TIP3   OH245360   4.560   6.705   5.238 -0.4775 -0.1973 -0.3718
 7982TIP3    H145361   4.555   6.634   5.174 -0.5604 -0.4358 -0.0998
 7982TIP3    H245362   4.502   6.678   5.309  3.2832 -2.1902  2.0553
 7983TIP3   OH245363   6.522   1.110   3.893 -0.0362 -0.6171 -0.0725
 7983TIP3    H145364   6.532   1.204   3.878 -0.1348 -0.8917 -1.8998
 7983TIP3    H245365   6.438   1.088   3.854  0.0084 -1.4885  0.3025
 7984TIP3   OH245366   0.432   0.810  13.030 -0.6396 -0.1591 -0.2938
 7984TIP3    H145367   0.369   0.738  13.033 -1.5436  0.4226 -3.6862
 7984TIP3    H245368   0.380   0.888  13.052 -0.5039 -0.0124 -0.5028
 7985TIP3   OH245369   3.805   3.109   5.409  0.3616  0.1587 -0.0255
 7985TIP3    H145370   3.855   3.174   5.459  0.4436  0.1116 -0.0462
 7985TIP3    H245371   3.853   3.027   5.421 -0.7463 -0.2731  1.4647
 7986TIP3   OH245372   6.590   5.547   2.032  0.1181  0.2466 -0.9321
 7986TIP3    H145373   6.682   5.531   2.015  0.2735  0.2305 -0.0590
 7986TIP3    H245374   6.588   5.604   2.109 -0.6050  0.0725 -0.8097
 7987TIP3   OH245375   5.930   0.636   4.507 -0.4768 -0.6844  0.2871
 7987TIP3    H145376   5.890   0.722   4.520  0.6810 -0.1945  0.6947
 7987TIP3    H245377   5.990   0.648   4.434  0.6930 -0.7824  1.2112
 7988TIP3   OH245378   5.335   6.025   5.107 -0.1935 -0.1077  0.4874
 7988TIP3    H145379   5.397   5.986   5.168 -1.9543 -2.0194  1.1025
 7988TIP3    H245380   5.372   6.007   5.020  0.2924 -0.8987  0.8580
 7989TIP3   OH245381   4.504   5.259   5.836  0.0124  0.6042 -0.5042
 7989TIP3    H145382   4.581   5.242   5.891 -0.9070  2.7894  1.5090
 7989TIP3    H245383   4.430   5.261   5.897 -1.7410 -1.7590 -2.4408
 7990TIP3   OH245384   4.308   2.063  16.937  0.6203  0.4731  0.1657
 7990TIP3    H145385   4.345   2.143  16.975  2.3676 -0.0802 -0.2997
 7990TIP3    H245386   4.360   1.992  16.975  0.3409 -0.3007 -0.8633
 7991TIP3   OH245387   4.152   6.685   0.699 -0.2376  0.0597  0.1480
 7991TIP3    H145388   4.087   6.751   0.724 -0.9833 -0.4910 -0.3318
 7991TIP3    H245389   4.118   6.603   0.735 -0.0620 -0.3199 -0.5516
 7992TIP3   OH245390   4.690   4.856  15.764 -0.2723 -0.5487 -0.2543
 7992TIP3    H145391   4.770   4.826  15.722 -1.6952 -2.6904 -1.5067
 7992TIP3    H245392   4.694   4.819  15.852  0.7479  0.4995  0.1502
 7993TIP3   OH245393   1.235   3.525   2.359 -0.2091 -0.7558 -0.4698
 7993TIP3    H145394   1.185   3.532   2.441 -0.8796  0.1422 -0.9499
 7993TIP3    H245395   1.190   3.582   2.298 -0.4594 -2.4059 -1.8676
 7994TIP3   OH245396   2.467   3.546  14.951  0.5996  0.6016 -0.3484
 7994TIP3    H145397   2.454   3.509  14.863 -0.0153 -1.8923  0.7337
 7994TIP3    H245398   2.557   3.577  14.951  0.9434 -0.3588 -1.5378
 7995TIP3   OH245399   1.115   3.658   3.771  0.2123  0.4437 -0.1768
 7995TIP3    H145400   1.030   3.616   3.762  0.6417 -0.5235  0.2024
 7995TIP3    H245401   1.127   3.669   3.865  1.7508 -2.0824 -0.0253
 7996TIP3   OH245402   5.352   2.839   1.882  0.3574  0.3943  0.1880
 7996TIP3    H145403   5.261   2.868   1.873  0.6570  0.6672 -2.1437
 7996TIP3    H245404   5.397   2.914   1.921  0.0909  1.1961 -1.0323
 7997TIP3   OH245405   2.581   3.496   2.476  0.4479  0.3540 -0.1506
 7997TIP3    H145406   2.643   3.568   2.469  0.7207 -0.0423 -2.1297
 7997TIP3    H245407   2.503   3.526   2.430  0.8920 -0.9410 -1.7958
 7998TIP3   OH245408   1.922   4.059  11.931  0.4071  0.4594 -0.1567
 7998TIP3    H145409   2.013   4.039  11.913  1.0343  2.7969  0.2287
 7998TIP3    H245410   1.924   4.139  11.983 -1.8039 -0.4101  1.3667
 7999TIP3   OH245411   1.880   0.255  13.060  0.6497  0.5084  0.6127
 7999TIP3    H145412   1.975   0.241  13.061  0.4694 -0.6264  2.2082
 7999TIP3    H245413   1.866   0.328  13.120  0.3596 -0.2927  1.5182
 8000TIP3   OH245414   4.956   2.476   1.887 -0.5132  0.5649  0.3031
 8000TIP3    H145415   5.024   2.421   1.925 -1.5919 -1.2316 -0.3521
 8000TIP3    H245416   4.943   2.546   1.952  0.9156  0.1250  1.0857
 8001TIP3   OH245417   6.063   3.478  16.697  0.1864  0.2395 -0.4509
 8001TIP3    H145418   6.014   3.401  16.725  0.0462  1.0201  1.5481
 8001TIP3    H245419   6.151   3.445  16.679  0.3341 -0.3020  1.1303
 8002TIP3   OH245420   2.342   5.295  15.964  0.1653  0.0289 -0.0909
 8002TIP3    H145421   2.277   5.350  16.008 -0.1167 -0.2405 -0.1688
 8002TIP3    H245422   2.380   5.351  15.896 -0.8853 -0.1973 -0.8769
 8003TIP3   OH245423   3.662   0.882   3.052  0.2759 -0.2771  0.9344
 8003TIP3    H145424   3.726   0.859   3.119  1.4191 -0.2413 -0.1418
 8003TIP3    H245425   3.692   0.836   2.973 -0.7162  0.1685  0.2863
 8004TIP3   OH245426   2.125   1.327   6.133 -0.3566  0.2053 -0.2496
 8004TIP3    H145427   2.176   1.252   6.164  2.6848  1.2367 -2.5210
 8004TIP3    H245428   2.076   1.293   6.058 -2.4878 -0.5727  1.4314
 8005TIP3   OH245429   3.641   2.508  12.415 -0.3603 -0.1474  0.2578
 8005TIP3    H145430   3.684   2.461  12.343  0.7363  1.3240 -0.0845
 8005TIP3    H245431   3.652   2.600  12.392 -2.1701  0.3013  1.0810
 8006TIP3   OH245432   6.175   1.124  15.118 -0.0801 -0.5516  0.3434
 8006TIP3    H145433   6.258   1.079  15.102 -0.2245 -0.8631  0.4676
 8006TIP3    H245434   6.144   1.148  15.030 -0.3657 -1.3504  0.2182
 8007TIP3   OH245435   6.748   3.159  15.931 -0.0496 -0.0236  0.0011
 8007TIP3    H145436   6.693   3.230  15.899  1.8343  1.6052  0.3226
 8007TIP3    H245437   6.758   3.176  16.024  2.9956  1.1306 -0.4723
 8008TIP3   OH245438   0.974   1.125  11.917  0.4652  0.6681  0.4884
 8008TIP3    H145439   0.907   1.179  11.875  1.5967  2.6382  1.1760
 8008TIP3    H245440   0.973   1.151  12.009  2.3818  0.9883  0.4488
 8009TIP3   OH245441   6.162   3.489  13.163  0.1427  0.0962 -0.0704
 8009TIP3    H145442   6.098   3.558  13.181 -0.4720 -0.5202  0.1420
 8009TIP3    H245443   6.229   3.532  13.109 -0.7902  0.5857 -0.8641
 8010TIP3   OH245444   5.961   6.542   4.886  0.2004 -0.2019 -0.2547
 8010TIP3    H145445   6.028   6.552   4.954  1.0883  3.8612 -1.5702
 8010TIP3    H245446   5.882   6.578   4.926  0.2853  0.4920 -0.6942
 8011TIP3   OH245447   3.746   5.982  11.314  0.6015 -0.3684 -0.4498
 8011TIP3    H145448   3.808   5.962  11.244 -0.6694  0.7482 -1.9340
 8011TIP3    H245449   3.674   5.919  11.302 -0.1475  0.5534 -0.8598
 8012TIP3   OH245450   5.208   2.348  11.330 -0.1192  0.5271  0.3113
 8012TIP3    H145451   5.229   2.317  11.242  1.8946  1.4640  0.4452
 8012TIP3    H245452   5.120   2.313  11.347  0.1513 -1.0619 -1.3993
 8013TIP3   OH245453   0.790   5.514   2.002 -0.3459  0.1102 -0.1014
 8013TIP3    H145454   0.809   5.608   2.004  0.0275  0.0590 -0.9968
 8013TIP3    H245455   0.695   5.508   2.001 -0.3987  0.4393  1.5953
 8014TIP3   OH245456   0.777   6.653  13.142  0.2898  0.6016  0.2810
 8014TIP3    H145457   0.767   6.702  13.224 -0.4725  3.1291 -1.2432
 8014TIP3    H245458   0.815   6.717  13.081 -0.4172 -0.8350 -1.7113
 8015TIP3   OH245459   3.068   3.428  13.608 -0.0878 -0.4236  0.6302
 8015TIP3    H145460   3.031   3.515  13.599 -0.9753 -0.6097  2.2801
 8015TIP3    H245461   3.154   3.442  13.648  0.6066 -0.1836 -0.8946
 8016TIP3   OH245462   4.019   1.698   2.066  0.0256  0.4790  0.1418
 8016TIP3    H145463   4.002   1.752   1.989 -1.1214 -0.9421 -0.6314
 8016TIP3    H245464   3.976   1.746   2.138 -0.0678  1.1306 -0.3417
 8017TIP3   OH245465   1.036   2.031   5.912  0.2300  0.3796 -0.7199
 8017TIP3    H145466   1.119   2.012   5.870  1.3344  2.4096  0.4547
 8017TIP3    H245467   1.054   2.105   5.970 -2.3001  0.6192 -0.1430
 8018TIP3   OH245468   3.985   1.132  11.566 -0.4073  1.0106 -0.2553
 8018TIP3    H145469   3.984   1.223  11.594 -1.6084  0.7022  0.7702
 8018TIP3    H245470   3.893   1.104  11.572 -0.2106  0.0225 -1.5015
 8019TIP3   OH245471   3.386   4.344  16.971 -0.7812 -0.3644 -0.1529
 8019TIP3    H145472   3.361   4.357  17.063  0.8217  0.3681  0.1867
 8019TIP3    H245473   3.329   4.273  16.941 -2.7255  0.7535  0.8229
 8020TIP3   OH245474   0.073   4.068  14.153 -0.0710  0.8581 -0.8134
 8020TIP3    H145475   0.157   4.106  14.129  0.5287 -0.2331 -0.4939
 8020TIP3    H245476   0.016   4.085  14.078  0.0636  2.7012 -0.5142
 8021TIP3   OH245477   0.731   0.964   0.823  0.1644 -0.5991  0.0724
 8021TIP3    H145478   0.824   0.940   0.818  0.1437 -1.1631  1.9256
 8021TIP3    H245479   0.730   1.043   0.876 -0.2355  0.7469 -1.8784
 8022TIP3   OH245480   1.166   4.781   5.591  0.2074 -0.6459 -0.4509
 8022TIP3    H145481   1.209   4.865   5.610 -2.3204  0.4614  0.6740
 8022TIP3    H245482   1.225   4.715   5.626  1.9147  0.7047 -0.7241
 8023TIP3   OH245483   6.508   2.607   1.337  0.2301 -0.1268  0.0759
 8023TIP3    H145484   6.577   2.673   1.329  0.5244 -0.6011 -1.5976
 8023TIP3    H245485   6.535   2.552   1.410  1.1092  0.2884  0.0677
 8024TIP3   OH245486   2.066   6.678  13.096 -0.0525 -0.1212  0.5211
 8024TIP3    H145487   2.149   6.631  13.110  0.2757 -0.1847 -1.5504
 8024TIP3    H245488   2.071   6.752  13.157  0.6273 -1.2335  1.8624
 8025TIP3   OH245489   6.108   5.504  17.182  0.3285  0.2988  0.7807
 8025TIP3    H145490   6.152   5.511  17.098  0.1241  2.1729  0.8101
 8025TIP3    H245491   6.138   5.580  17.232 -0.8898  0.1692  1.7578
 8026TIP3   OH245492   4.999   4.130   1.606 -0.7658  0.3030 -0.1549
 8026TIP3    H145493   5.034   4.115   1.694 -0.6328  1.7033  0.0432
 8026TIP3    H245494   5.073   4.112   1.548  0.1320  2.5502  0.2264
 8027TIP3   OH245495   4.732   2.761  14.162 -0.0565 -0.3905 -0.3150
 8027TIP3    H145496   4.775   2.767  14.247  1.0975  2.1083 -1.0353
 8027TIP3    H245497   4.695   2.848  14.148 -1.1084 -1.0774 -1.9209
 8028TIP3   OH245498   4.976   6.596  14.743 -0.2749 -0.2250 -0.1555
 8028TIP3    H145499   4.917   6.531  14.705 -0.4153 -0.9016  1.2006
 8028TIP3    H245500   5.060   6.581  14.700 -0.3122 -1.2973  0.1559
 8029TIP3   OH245501   2.481   0.225  16.919  0.0825 -0.0349 -0.2954
 8029TIP3    H145502   2.552   0.167  16.944 -0.1279 -0.5459 -0.8758
 8029TIP3    H245503   2.433   0.242  17.001 -0.9927 -2.2163 -0.4370
 8030TIP3   OH245504   1.343   1.217   3.819 -0.3219 -0.1189 -0.0001
 8030TIP3    H145505   1.287   1.256   3.751  0.8908  2.4428  0.4227
 8030TIP3    H245506   1.424   1.197   3.774 -0.8195 -1.8629 -0.1306
 8031TIP3   OH245507   3.617   4.970   0.456 -0.3617 -0.2293 -0.0731
 8031TIP3    H145508   3.712   4.986   0.456 -0.4280  0.3401  1.8007
 8031TIP3    H245509   3.594   4.962   0.364  1.5123 -0.3324 -0.5552
 8032TIP3   OH245510   1.714   5.754   2.164  0.1123  0.2177  1.0096
 8032TIP3    H145511   1.800   5.764   2.123 -0.5965  0.3499 -0.4591
 8032TIP3    H245512   1.696   5.660   2.156 -0.3514  0.3620  0.3581
 8033TIP3   OH245513   2.370   1.066   4.323  0.2427 -0.0372 -0.5126
 8033TIP3    H145514   2.304   1.027   4.380 -0.8528  0.4881 -1.4053
 8033TIP3    H245515   2.377   1.157   4.353  1.3920 -0.3791  0.3080
 8034TIP3   OH245516   2.638   3.683   3.959 -0.3669 -0.4481 -0.0577
 8034TIP3    H145517   2.637   3.606   3.902 -1.5824  0.1776 -0.8970
 8034TIP3    H245518   2.720   3.727   3.937  0.1041 -1.2469  0.0771
 8035TIP3   OH245519   3.849   1.499  16.446 -0.4153  0.3131 -0.2614
 8035TIP3    H145520   3.790   1.479  16.519 -0.3429  1.6891  0.1875
 8035TIP3    H245521   3.813   1.579  16.407  1.5766  1.6655  0.5255
 8036TIP3   OH245522   6.698   6.162  16.163 -0.1538 -0.4873 -0.0323
 8036TIP3    H145523   6.781   6.115  16.169 -0.6118 -1.2039  0.6854
 8036TIP3    H245524   6.697   6.196  16.073 -0.2919 -2.7435 -0.9264
 8037TIP3   OH245525   0.196   0.614  13.575  0.2535  0.5733  0.0166
 8037TIP3    H145526   0.266   0.661  13.529 -1.2513  2.4352 -0.4146
 8037TIP3    H245527   0.133   0.682  13.600 -0.7507 -0.8958  1.6069
 8038TIP3   OH245528   4.302   0.163  11.864 -0.3319  0.0959  0.0024
 8038TIP3    H145529   4.256   0.243  11.890 -2.2289 -0.7816 -0.6155
 8038TIP3    H245530   4.252   0.092  11.904 -0.3073 -0.9520 -1.7567
 8039TIP3   OH245531   1.242   5.476  11.271  0.0276 -0.6853  0.1182
 8039TIP3    H145532   1.285   5.452  11.189  1.7875 -1.0708  1.1384
 8039TIP3    H245533   1.251   5.571  11.276 -0.0265 -0.6681 -0.0987
 8040TIP3   OH245534   5.111   5.074  11.503 -0.0232 -0.4690 -0.3178
 8040TIP3    H145535   5.115   5.136  11.430 -1.6466 -1.3256 -1.1901
 8040TIP3    H245536   5.024   5.035  11.495 -0.4092 -0.2551  2.3759
 8041TIP3   OH245537   2.682   1.742  14.883  0.2926  0.3753  0.0759
 8041TIP3    H145538   2.668   1.774  14.972  0.3453 -0.0877  0.2523
 8041TIP3    H245539   2.625   1.666  14.876  0.9865 -0.1424  0.0268
 8042TIP3   OH245540   0.944   6.243   0.612  0.0463 -0.4867 -0.1165
 8042TIP3    H145541   1.002   6.219   0.684  0.2310  1.4918  0.4387
 8042TIP3    H245542   0.994   6.224   0.533  1.4099  1.0710  0.3586
 8043TIP3   OH245543   2.573   1.289  12.948  0.0956  0.0694  0.2495
 8043TIP3    H145544   2.638   1.301  13.018 -1.0102 -1.6390  1.5909
 8043TIP3    H245545   2.514   1.364  12.957 -0.0656 -0.1703  1.1698
 8044TIP3   OH245546   5.581   1.667  15.563  0.8921  0.1017  0.3058
 8044TIP3    H145547   5.570   1.655  15.468  0.7652  0.9653  0.2065
 8044TIP3    H245548   5.611   1.757  15.573  0.6793  0.0893  1.1063
 8045TIP3   OH245549   5.045   3.564   5.030  0.2706  0.0753 -0.3001
 8045TIP3    H145550   5.132   3.529   5.010  0.2915  0.6106 -1.1790
 8045TIP3    H245551   5.058   3.615   5.111  0.5061 -0.8798  0.2655
 8046TIP3   OH245552   6.019   5.214  16.206  0.3102  0.0047 -0.5294
 8046TIP3    H145553   6.012   5.122  16.180  1.4539 -0.5310  0.9337
 8046TIP3    H245554   6.048   5.210  16.298  1.1659  1.8223 -0.6999
 8047TIP3   OH245555   6.176   1.767  11.354 -0.2847 -0.3412  0.1313
 8047TIP3    H145556   6.173   1.862  11.372 -2.5424  0.0670 -2.2072
 8047TIP3    H245557   6.194   1.761  11.260 -0.6246 -2.2527  0.1837
 8048TIP3   OH245558   5.930   3.523  15.249  0.2837  0.6150 -0.3357
 8048TIP3    H145559   5.982   3.480  15.181 -0.1193  0.9774 -0.8738
 8048TIP3    H245560   5.865   3.458  15.274  1.4692 -0.1160  0.8804
 8049TIP3   OH245561   5.404   5.977   3.040 -0.2871 -0.0471 -0.3445
 8049TIP3    H145562   5.444   5.897   3.006 -1.6405 -0.3277 -1.3233
 8049TIP3    H245563   5.312   5.969   3.016 -0.3785  1.9388 -0.7058
 8050TIP3   OH245564   1.576   5.727  15.988 -0.0917 -0.8402  0.1645
 8050TIP3    H145565   1.619   5.666  16.048  2.7321 -0.6394 -1.5514
 8050TIP3    H245566   1.521   5.672  15.933 -1.1166 -1.2597  1.5735
 8051TIP3   OH245567   4.559   3.737  13.525  0.4635 -0.6052  0.0696
 8051TIP3    H145568   4.550   3.701  13.437  1.5939 -0.8170  0.0393
 8051TIP3    H245569   4.473   3.721  13.566 -0.3445  0.2645 -1.2587
 8052TIP3   OH245570   4.538   1.504  15.912  0.3869 -0.4853 -0.0208
 8052TIP3    H145571   4.604   1.564  15.947 -0.2322 -0.2352  0.7354
 8052TIP3    H245572   4.536   1.523  15.818  0.3643  0.5215  0.1734
 8053TIP3   OH245573   0.702   0.337  16.222 -0.1227  0.5255  0.1286
 8053TIP3    H145574   0.744   0.260  16.259 -0.9833  0.4808  1.0263
 8053TIP3    H245575   0.731   0.409  16.278 -0.1262  0.7036 -0.0986
 8054TIP3   OH245576   2.309   2.637   2.903 -0.4344  0.7301 -0.3333
 8054TIP3    H145577   2.239   2.698   2.927  0.5105  1.9321 -0.6287
 8054TIP3    H245578   2.390   2.686   2.916  0.3381 -0.4620 -0.5682
 8055TIP3   OH245579   4.078   4.712   2.115 -0.0921  0.6025  0.7465
 8055TIP3    H145580   4.045   4.789   2.068  1.3875 -0.7515 -2.6367
 8055TIP3    H245581   4.024   4.640   2.084  2.4053 -0.6993 -0.7006
 8056TIP3   OH245582   0.460   4.123   3.286 -0.5773 -0.1825 -0.7052
 8056TIP3    H145583   0.399   4.063   3.329 -1.6589  0.2302 -1.6456
 8056TIP3    H245584   0.527   4.141   3.352 -2.6921  1.1641  1.1467
 8057TIP3   OH245585   5.406   0.862  12.267 -0.4385 -0.4358  0.0674
 8057TIP3    H145586   5.412   0.891  12.176  0.3434  0.6313  0.4490
 8057TIP3    H245587   5.384   0.769  12.261  0.7748 -0.6573 -1.2259
 8058TIP3   OH245588   5.905   5.307   0.388  0.3251  0.1825 -0.0825
 8058TIP3    H145589   5.950   5.244   0.444 -0.0691 -1.3517 -1.4467
 8058TIP3    H245590   5.964   5.320   0.314 -0.8457 -0.8568 -1.2401
 8059TIP3   OH245591   5.189   0.705   0.647  0.1226 -0.6695  0.4003
 8059TIP3    H145592   5.194   0.663   0.561  1.9016 -1.0951  0.6776
 8059TIP3    H245593   5.097   0.725   0.660 -0.1067 -0.1669 -1.8237
 8060TIP3   OH245594   2.643   4.343  11.758 -1.0472 -0.0711 -0.1136
 8060TIP3    H145595   2.697   4.419  11.734 -1.0732  0.1895  0.6631
 8060TIP3    H245596   2.553   4.375  11.749 -1.0513  0.2824  1.1611
 8061TIP3   OH245597   4.728   5.939  11.058 -0.8106 -0.2296  0.3132
 8061TIP3    H145598   4.752   6.028  11.032 -1.7850 -0.2469 -0.6737
 8061TIP3    H245599   4.683   5.949  11.141  1.9640 -0.1291  1.8647
 8062TIP3   OH245600   6.030   6.181  12.040 -0.1763  0.2019 -0.2812
 8062TIP3    H145601   5.984   6.183  11.956  0.4007  0.4268 -0.5989
 8062TIP3    H245602   5.988   6.110  12.089  0.2400 -0.6887 -1.2079
 8063TIP3   OH245603   3.045   1.441  14.908 -0.0561 -0.1949 -1.1043
 8063TIP3    H145604   3.046   1.505  14.980  0.2252 -0.0029 -1.2788
 8063TIP3    H245605   2.958   1.452  14.869  0.2928  0.6581 -1.6482
 8064TIP3   OH245606   4.525   5.803  14.690 -0.5209  0.1115 -0.1560
 8064TIP3    H145607   4.514   5.871  14.757  0.2711  0.7929 -0.7058
 8064TIP3    H245608   4.529   5.721  14.739 -4.8986  0.0804  0.3127
 8065TIP3   OH245609   4.126   1.634   1.018 -0.2613  0.1587  0.2820
 8065TIP3    H145610   4.069   1.654   1.092  0.2806  0.0322  0.7294
 8065TIP3    H245611   4.213   1.662   1.046 -0.1217  0.4647 -0.4499
 8066TIP3   OH245612   5.579   1.010  12.568 -1.2209 -0.9677 -0.6782
 8066TIP3    H145613   5.605   1.045  12.483 -2.1790 -1.4867 -1.1962
 8066TIP3    H245614   5.484   1.002  12.562 -1.5491  1.0905  1.2447
 8067TIP3   OH245615   1.435   2.106  12.433 -0.3614  0.5296 -0.3823
 8067TIP3    H145616   1.524   2.139  12.418 -0.1142 -0.3256 -0.8413
 8067TIP3    H245617   1.398   2.097  12.345 -0.3900 -0.4975 -0.2653
 8068TIP3   OH245618   4.040   1.477  16.619 -0.2245 -0.1776  0.5046
 8068TIP3    H145619   4.048   1.382  16.625  1.4785 -0.1255 -0.6006
 8068TIP3    H245620   3.969   1.492  16.557 -0.2842 -0.7353  0.4431
 8069TIP3   OH245621   6.459   0.140   0.507 -0.0763 -0.1702 -0.1590
 8069TIP3    H145622   6.401   0.216   0.513  1.0284  0.6910 -0.1592
 8069TIP3    H245623   6.490   0.141   0.416  1.0985  0.2625  0.2326
 8070TIP3   OH245624   3.434   5.567  12.840  0.0548 -0.0295 -0.1537
 8070TIP3    H145625   3.522   5.590  12.810 -1.3742  1.3947 -3.4821
 8070TIP3    H245626   3.435   5.471  12.846  2.0827  0.0210  0.7644
 8071TIP3   OH245627   0.768   3.605   2.450 -0.0083 -0.2293 -0.1398
 8071TIP3    H145628   0.740   3.524   2.492  1.0799 -0.3391  0.3841
 8071TIP3    H245629   0.695   3.666   2.464 -0.0935 -0.5881  0.9842
 8072TIP3   OH245630   4.049   0.434   4.930 -0.2400 -0.0951  0.7746
 8072TIP3    H145631   4.129   0.404   4.888 -0.6695 -0.4194  0.1853
 8072TIP3    H245632   4.079   0.498   4.995  0.4705 -0.0437  0.4022
 8073TIP3   OH245633   1.744   1.279  12.245  0.6799  0.1175 -0.1859
 8073TIP3    H145634   1.725   1.189  12.218 -1.1359  1.1048 -2.3494
 8073TIP3    H245635   1.827   1.301  12.202 -1.4380  1.1641 -3.9459
 8074TIP3   OH245636   1.929   1.358  16.503  0.1561  0.5619 -0.1853
 8074TIP3    H145637   1.958   1.301  16.432  0.3665  0.5955 -0.1252
 8074TIP3    H245638   1.876   1.301  16.559  1.5656  0.0647  0.6608
 8075TIP3   OH245639   2.242   4.995  11.454 -0.3570 -0.5766  0.5751
 8075TIP3    H145640   2.185   5.070  11.474  1.4593  0.3262  2.6089
 8075TIP3    H245641   2.319   5.035  11.414  0.3904 -1.4201  1.1753
 8076TIP3   OH245642   1.171   1.781  15.744  0.3793 -0.1836 -0.2220
 8076TIP3    H145643   1.207   1.692  15.745 -0.7068 -0.6468 -0.5575
 8076TIP3    H245644   1.178   1.809  15.653 -0.5805 -0.4925 -0.4011
 8077TIP3   OH245645   5.170   0.312  15.285  0.2748 -0.6379  1.1218
 8077TIP3    H145646   5.199   0.348  15.201 -0.8837 -0.3203  0.8412
 8077TIP3    H245647   5.113   0.239  15.261  0.4194 -0.9211  1.6376
 8078TIP3   OH245648   1.218   5.651   4.264  0.1617  0.3703 -0.2474
 8078TIP3    H145649   1.271   5.617   4.336 -0.2408 -2.6319 -1.3020
 8078TIP3    H245650   1.135   5.674   4.304  0.1054 -0.8398  0.3645
 8079TIP3   OH245651   5.124   1.033  16.746 -0.2591 -0.5085 -0.4667
 8079TIP3    H145652   5.199   1.047  16.688 -0.3394  1.3692 -0.1496
 8079TIP3    H245653   5.050   1.019  16.686 -0.2533  0.9180 -0.8184
 8080TIP3   OH245654   5.804   1.660   5.747 -0.0211 -0.5223 -0.2755
 8080TIP3    H145655   5.739   1.631   5.811 -0.1244 -0.7482 -0.4791
 8080TIP3    H245656   5.888   1.652   5.792 -0.1162 -0.4275 -0.0811
 8081TIP3   OH245657   6.449   5.731  15.612  0.6667  0.8457 -0.2114
 8081TIP3    H145658   6.362   5.735  15.570  0.4261  0.5659  0.2545
 8081TIP3    H245659   6.467   5.637  15.619  0.0511  0.8548  1.6585
 8082TIP3   OH245660   5.068   5.691  13.368  0.0733 -0.1543 -0.2951
 8082TIP3    H145661   5.022   5.657  13.445 -0.1117 -1.5990 -1.0233
 8082TIP3    H245662   5.071   5.786  13.381  1.6346 -0.5374  2.3621
 8083TIP3   OH245663   0.788   0.385   5.475 -0.4667 -0.3358  0.7902
 8083TIP3    H145664   0.839   0.334   5.413  1.0742  1.7434  0.2874
 8083TIP3    H245665   0.698   0.355   5.463 -0.2331  0.1069 -2.5564
 8084TIP3   OH245666   0.641   5.104  11.032  0.3527  0.0006  0.3378
 8084TIP3    H145667   0.552   5.139  11.038  1.4531  3.0941 -0.1602
 8084TIP3    H245668   0.685   5.137  11.111  1.7066  0.5994 -0.6317
 8085TIP3   OH245669   5.671   1.390   5.692 -0.2624 -0.4152 -0.1350
 8085TIP3    H145670   5.653   1.387   5.598  0.0409  1.7200 -0.2919
 8085TIP3    H245671   5.743   1.329   5.705 -1.4231 -2.0279 -0.9933
 8086TIP3   OH245672   3.762   3.125  15.370 -0.0479 -0.6427  0.0706
 8086TIP3    H145673   3.824   3.053  15.374 -0.4663 -0.9896  0.3477
 8086TIP3    H245674   3.721   3.117  15.284  1.8674  0.9144 -1.0525
 8087TIP3   OH245675   1.819   4.406   5.158  0.2820  0.1750 -0.4600
 8087TIP3    H145676   1.817   4.356   5.240 -1.0575  0.2006 -0.4748
 8087TIP3    H245677   1.839   4.340   5.091 -3.1907 -0.7193 -0.7200
 8088TIP3   OH245678   2.338   1.959  10.844 -0.2937  0.1383 -0.4845
 8088TIP3    H145679   2.306   1.942  10.756 -3.7024 -0.4738  0.7633
 8088TIP3    H245680   2.292   2.039  10.871  1.5635  0.9576  0.3237
 8089TIP3   OH245681   1.632   2.864   2.095 -0.8036  0.1964  0.6143
 8089TIP3    H145682   1.662   2.936   2.040 -2.2395  1.9164  2.0228
 8089TIP3    H245683   1.710   2.809   2.108 -0.0126  0.7600 -1.5486
 8090TIP3   OH245684   4.779   1.887   4.222 -0.2127  0.1289  0.2989
 8090TIP3    H145685   4.778   1.807   4.276  2.6295 -1.2454 -1.5676
 8090TIP3    H245686   4.782   1.958   4.286 -2.6506 -1.2254  2.0021
 8091TIP3   OH245687   0.479   3.314   5.685 -0.3130  0.3565  0.6815
 8091TIP3    H145688   0.558   3.260   5.675 -0.5663 -0.1957  1.5466
 8091TIP3    H245689   0.506   3.401   5.656  0.0010 -0.3118 -1.0654
 8092TIP3   OH245690   6.544   6.370  13.359  0.0773 -0.0551  0.2698
 8092TIP3    H145691   6.634   6.356  13.388  0.4931  1.4838 -0.2738
 8092TIP3    H245692   6.541   6.333  13.270 -0.0702 -0.9042  0.6239
 8093TIP3   OH245693   5.165   5.512   0.553 -0.1633  0.9835  0.4647
 8093TIP3    H145694   5.142   5.453   0.624 -0.1215  0.4592  0.0412
 8093TIP3    H245695   5.237   5.469   0.507  1.6113  2.5410  1.6783
 8094TIP3   OH245696   5.658   5.393  14.540  0.2934 -0.0538  0.5089
 8094TIP3    H145697   5.701   5.314  14.573 -1.0682 -1.0413 -0.0337
 8094TIP3    H245698   5.580   5.361  14.494 -0.8015  1.6641  1.1076
 8095TIP3   OH245699   5.709   3.857   3.660  0.1731  0.0963 -0.3966
 8095TIP3    H145700   5.734   3.768   3.688 -1.3608 -0.0671  0.5202
 8095TIP3    H245701   5.614   3.859   3.670 -0.1293  0.9198 -3.2033
 8096TIP3   OH245702   4.122   6.238   4.460  0.3022 -0.2471  0.1356
 8096TIP3    H145703   4.071   6.263   4.384  2.3193 -2.1466 -1.8982
 8096TIP3    H245704   4.171   6.317   4.483  1.3132 -0.2770 -1.8846
 8097TIP3   OH245705   0.881   2.296  12.187  0.1426 -0.5774  0.2766
 8097TIP3    H145706   0.921   2.336  12.109 -0.4543  0.0044  0.2664
 8097TIP3    H245707   0.899   2.202  12.177 -1.7153 -0.7655 -1.6142
 8098TIP3   OH245708   5.884   1.592   1.236  0.1862 -0.1060 -0.1515
 8098TIP3    H145709   5.837   1.576   1.154  2.3051  0.8860 -1.5997
 8098TIP3    H245710   5.857   1.520   1.293 -2.1293 -0.2320 -1.3307
 8099TIP3   OH245711   6.298   6.297   0.290 -0.1876 -0.2140 -0.0285
 8099TIP3    H145712   6.265   6.250   0.213 -0.9589  1.1970 -0.5679
 8099TIP3    H245713   6.243   6.375   0.296  0.8999  0.4805  1.0274
 8100TIP3   OH245714   3.888   0.931  16.834 -0.2460 -0.2730 -0.5355
 8100TIP3    H145715   3.884   1.025  16.852 -0.1777 -0.5767  1.1701
 8100TIP3    H245716   3.855   0.890  16.914  0.6491 -1.7302 -0.8906
 8101TIP3   OH245717   1.963   0.412   2.828  0.7542 -0.6062 -0.2392
 8101TIP3    H145718   1.898   0.382   2.891  3.2822 -1.9353  1.8489
 8101TIP3    H245719   2.023   0.466   2.879  2.3578 -1.0058 -1.6530
 8102TIP3   OH245720   3.816   1.537  15.543  0.3572  0.0779  0.1314
 8102TIP3    H145721   3.855   1.457  15.576  0.8786  0.4412  0.4079
 8102TIP3    H245722   3.806   1.522  15.449  1.4923  0.1120 -0.0026
 8103TIP3   OH245723   6.550   0.065   0.254  0.2974  0.1517  0.9295
 8103TIP3    H145724   6.532  -0.005   0.191 -0.0596 -0.1559  1.3746
 8103TIP3    H245725   6.564   0.143   0.200 -0.6478  0.0245  0.4993
 8104TIP3   OH245726   3.293   4.961  12.379  0.3212  0.3268 -0.4362
 8104TIP3    H145727   3.349   4.888  12.352  0.3403  0.9740 -2.2176
 8104TIP3    H245728   3.227   4.921  12.436  0.5913 -1.0113 -1.0445
 8105TIP3   OH245729   2.090   6.452  11.036 -0.2624 -0.1191 -0.5309
 8105TIP3    H145730   2.142   6.457  10.956  0.8367  0.8219  0.2266
 8105TIP3    H245731   2.058   6.362  11.038 -0.2913 -0.1617 -2.0140
 8106TIP3   OH245732   5.189   1.289   4.304  0.2712  0.3142 -0.1457
 8106TIP3    H145733   5.234   1.205   4.297 -0.5799 -0.0482 -1.4652
 8106TIP3    H245734   5.105   1.268   4.345  0.6826  0.7731  0.9661
 8107TIP3   OH245735   4.819   3.364  16.013 -0.0538 -0.1865 -0.3692
 8107TIP3    H145736   4.725   3.360  15.995 -0.3789  0.2411  1.1825
 8107TIP3    H245737   4.837   3.457  16.028  0.7957 -0.1486 -1.5641
 8108TIP3   OH245738   6.717   6.372   2.426 -0.1209 -0.0735  0.3569
 8108TIP3    H145739   6.730   6.431   2.500 -0.2582 -1.5402  1.5784
 8108TIP3    H245740   6.640   6.320   2.450 -0.8243  0.1660 -1.3018
 8109TIP3   OH245741   5.621   0.893   1.593 -0.1287  0.1333 -0.5456
 8109TIP3    H145742   5.706   0.868   1.628 -0.7289  0.4541  1.1796
 8109TIP3    H245743   5.594   0.818   1.539  0.8041 -0.3698 -0.3256
 8110TIP3   OH245744   0.658   5.852   0.035  0.7430  0.3115 -0.5693
 8110TIP3    H145745   0.683   5.894   0.117 -0.3615 -0.0517 -0.0253
 8110TIP3    H245746   0.734   5.862  -0.022  1.6554  0.2617  0.6200
 8111TIP3   OH245747   2.187   3.575   0.964 -0.3045 -0.1544  0.8127
 8111TIP3    H145748   2.276   3.542   0.955 -0.2129 -0.1084  1.5392
 8111TIP3    H245749   2.132   3.497   0.965 -0.3075 -0.1680  0.0070
 8112TIP3   OH245750   1.065   1.571  14.942 -0.8836  0.1690 -0.0534
 8112TIP3    H145751   1.078   1.611  14.856  0.8782  0.9241  0.5354
 8112TIP3    H245752   1.042   1.644  14.999 -2.3655 -0.3754  0.0615
 8113TIP3   OH245753   3.717   3.543   2.729 -0.0648 -0.4282  0.4480
 8113TIP3    H145754   3.702   3.564   2.821  0.9121  1.7438  0.1361
 8113TIP3    H245755   3.718   3.628   2.684  1.3916 -1.3095 -1.2728
 8114TIP3   OH245756   0.731   3.855  12.528 -0.3173  0.7517  0.6006
 8114TIP3    H145757   0.693   3.812  12.605 -1.8518  0.9930 -0.0090
 8114TIP3    H245758   0.812   3.894  12.560 -1.1037  1.1363  2.1754
 8115TIP3   OH245759   5.203   2.444   5.123 -0.0359 -0.3091 -0.3845
 8115TIP3    H145760   5.119   2.461   5.167  1.5625 -1.0468  3.1690
 8115TIP3    H245761   5.183   2.377   5.058 -2.3683  0.1159 -0.1505
 8116TIP3   OH245762   6.120   4.313  11.540 -0.1847 -0.2854  0.0486
 8116TIP3    H145763   6.029   4.284  11.548 -0.4326  0.4742  0.0139
 8116TIP3    H245764   6.119   4.403  11.573  0.2101  0.3237 -1.5779
 8117TIP3   OH245765   4.000   5.418   0.278  0.0611 -0.2099 -0.1762
 8117TIP3    H145766   3.976   5.326   0.287 -2.1815  0.5239  1.8266
 8117TIP3    H245767   3.933   5.455   0.221  0.0527  0.5152  0.2928
 8118TIP3   OH245768   6.141   3.653  13.729 -0.6158 -0.4437 -0.1237
 8118TIP3    H145769   6.214   3.603  13.695 -1.2267 -0.8375 -0.8729
 8118TIP3    H245770   6.076   3.587  13.755 -2.1638 -0.0306 -2.7910
 8119TIP3   OH245771   3.506   5.002  16.304  0.1176  0.3543  0.3511
 8119TIP3    H145772   3.500   5.007  16.208 -1.2808  1.9210  0.4998
 8119TIP3    H245773   3.587   5.049  16.325  0.6707 -0.3866 -0.0730
 8120TIP3   OH245774   5.457   2.748  16.284  0.2483 -0.1680  0.2097
 8120TIP3    H145775   5.395   2.693  16.332  1.1886  0.2016  1.8719
 8120TIP3    H245776   5.404   2.787  16.214 -1.5491  0.5814  1.9360
 8121TIP3   OH245777   3.047   2.950  12.634 -0.1585 -0.5028  0.0851
 8121TIP3    H145778   2.984   2.899  12.685 -0.8984 -1.4667 -1.7704
 8121TIP3    H245779   2.998   2.981  12.558  0.6719  1.7779  0.4317
 8122TIP3   OH245780   2.041   6.699  16.198  0.2481 -0.3112 -0.0120
 8122TIP3    H145781   2.107   6.635  16.171 -1.0472 -1.3881 -0.7257
 8122TIP3    H245782   2.032   6.686  16.293  1.1627 -0.0488  0.1145
 8123TIP3   OH245783   2.139   5.186   2.489  0.5314 -0.1435 -0.4825
 8123TIP3    H145784   2.193   5.174   2.567  0.1384 -2.5086 -0.5330
 8123TIP3    H245785   2.197   5.160   2.417 -0.2910 -1.6059 -0.6301
 8124TIP3   OH245786   2.574   4.903   0.899  0.1669 -0.5665 -0.0665
 8124TIP3    H145787   2.658   4.870   0.932  0.4469  0.4397  0.2477
 8124TIP3    H245788   2.573   4.996   0.923 -2.1030 -1.0968  2.0361
 8125TIP3   OH245789   6.164   0.027   1.329 -0.6170  0.2664 -0.0681
 8125TIP3    H145790   6.260   0.025   1.335 -0.6174 -0.6186 -0.2612
 8125TIP3    H245791   6.143   0.117   1.306  0.1446  0.5782  0.4634
 8126TIP3   OH245792   6.447   4.192  10.441  0.3026 -0.5416 -0.1138
 8126TIP3    H145793   6.355   4.207  10.463  0.8657  2.0392  0.7642
 8126TIP3    H245794   6.467   4.261  10.378  1.6422 -1.0763 -0.2774
 8127TIP3   OH245795   3.597   2.960   3.228 -0.1421  0.7062 -0.2195
 8127TIP3    H145796   3.656   3.022   3.270 -1.0714  1.2574  0.2681
 8127TIP3    H245797   3.561   2.908   3.300 -0.2070  0.3212 -0.5239
 8128TIP3   OH245798   5.523   2.539  17.144 -0.3118  0.0153  0.3727
 8128TIP3    H145799   5.462   2.509  17.211 -0.0967 -0.2299  0.4589
 8128TIP3    H245800   5.544   2.629  17.169 -1.3469  0.4101 -0.1616
 8129TIP3   OH245801   1.700   3.821   2.769 -0.0781  0.3290  0.2363
 8129TIP3    H145802   1.784   3.775   2.776 -0.8659 -1.1881 -0.1259
 8129TIP3    H245803   1.697   3.876   2.847  1.6676  1.1214 -0.2141
 8130TIP3   OH245804   0.349   0.584  16.365 -0.2715 -0.2552 -0.6569
 8130TIP3    H145805   0.342   0.572  16.271  1.4345  1.0278 -0.9925
 8130TIP3    H245806   0.336   0.678  16.378 -0.6020 -0.4419  0.3831
 8131TIP3   OH245807   3.395   1.220  14.481  0.5258 -0.4738 -0.2769
 8131TIP3    H145808   3.339   1.156  14.437 -1.0401  0.7853 -0.1470
 8131TIP3    H245809   3.356   1.232  14.567  2.4876 -1.4892  0.7996
 8132TIP3   OH245810   5.963   2.113   0.069  0.0249  0.6884 -0.4013
 8132TIP3    H145811   6.025   2.175   0.108 -0.1768 -0.2419  1.4179
 8132TIP3    H245812   5.881   2.163   0.064  0.3640  1.2149 -0.7927
 8133TIP3   OH245813   5.638   0.992   5.828  0.0725  0.2221  0.4480
 8133TIP3    H145814   5.626   0.902   5.859  0.4870 -0.5398 -1.4864
 8133TIP3    H245815   5.658   1.043   5.906 -3.1003 -0.8186  1.9898
 8134TIP3   OH245816   4.563   2.927   5.475  0.8099  0.0578  0.2664
 8134TIP3    H145817   4.651   2.908   5.443  0.2760 -0.0085 -1.1868
 8134TIP3    H245818   4.505   2.879   5.416 -0.2480  1.0653  0.4759
 8135TIP3   OH245819   4.346   2.634   4.563  0.8659 -0.0755  0.2765
 8135TIP3    H145820   4.405   2.583   4.619  2.2528  1.0584 -0.1030
 8135TIP3    H245821   4.363   2.603   4.475 -1.4755 -2.0089  0.4626
 8136TIP3   OH245822   1.335   3.988  16.684 -0.3407  0.5685 -0.1236
 8136TIP3    H145823   1.259   3.931  16.675 -0.9475  0.9454  2.3103
 8136TIP3    H245824   1.371   3.967  16.770  2.3468  0.3837 -1.2163
 8137TIP3   OH245825   3.313   3.191  10.552  0.4013  0.1935 -0.1320
 8137TIP3    H145826   3.318   3.111  10.499 -1.0106  0.6893 -1.0620
 8137TIP3    H245827   3.309   3.160  10.642  2.8292 -0.6697 -0.2810
 8138TIP3   OH245828   2.222   6.225   4.008 -0.1539 -0.0179  0.3914
 8138TIP3    H145829   2.135   6.259   4.030 -0.0740 -0.4758  1.4348
 8138TIP3    H245830   2.226   6.139   4.050  0.9469  0.1666  0.6939
 8139TIP3   OH245831   4.242   2.531  11.961 -0.1159  0.0614 -0.1936
 8139TIP3    H145832   4.261   2.616  12.000 -0.9365 -0.0379  0.4363
 8139TIP3    H245833   4.232   2.471  12.036  1.6043 -0.8487 -0.6570
 8140TIP3   OH245834   1.752   3.599   5.601  0.3926  0.1112 -0.2490
 8140TIP3    H145835   1.768   3.542   5.526  1.1085  0.5616 -0.4374
 8140TIP3    H245836   1.657   3.593   5.616  0.3532 -0.5303 -0.7385
 8141TIP3   OH245837   1.295   6.601   5.871 -0.7191 -0.4788 -0.3049
 8141TIP3    H145838   1.379   6.613   5.916 -0.0754  1.3468 -1.9273
 8141TIP3    H245839   1.231   6.641   5.929 -0.2113 -0.1829  0.0539
 8142TIP3   OH245840   4.847   4.793   3.465 -0.3975 -0.3216 -0.1506
 8142TIP3    H145841   4.758   4.814   3.436  1.4358  2.8652 -3.9590
 8142TIP3    H245842   4.897   4.783   3.384  2.3582 -4.2508  1.8531
 8143TIP3   OH245843   0.945   3.238  13.731 -0.1994 -0.1261  0.0970
 8143TIP3    H145844   0.910   3.151  13.712  1.5407 -1.4248  2.5933
 8143TIP3    H245845   0.977   3.270  13.646 -3.2140 -0.7789 -1.3502
 8144TIP3   OH245846   2.611   1.688  15.217 -0.3705  0.1141 -0.2294
 8144TIP3    H145847   2.517   1.669  15.217 -0.3423 -0.0611  1.0862
 8144TIP3    H245848   2.652   1.607  15.187 -0.6081  0.0552 -0.3985
 8145TIP3   OH245849   5.794   2.818  16.592  0.3984 -0.1409 -0.1314
 8145TIP3    H145850   5.770   2.904  16.557  1.0321 -0.4969 -1.4363
 8145TIP3    H245851   5.884   2.804  16.563  0.1599 -1.4395 -0.2638
 8146TIP3   OH245852   2.283   0.033   0.708 -0.0539  0.0909 -0.1680
 8146TIP3    H145853   2.297   0.083   0.788  1.6815 -1.0983  0.3136
 8146TIP3    H245854   2.298   0.096   0.637 -2.8799  1.4781  0.3914
 8147TIP3   OH245855   4.042   0.351   1.685  0.3744  0.6443 -0.8930
 8147TIP3    H145856   3.969   0.346   1.622 -0.2347 -0.9791 -0.0860
 8147TIP3    H245857   4.115   0.310   1.640  0.2386  0.4540 -0.9398
 8148TIP3   OH245858   3.012   6.330  11.020  0.8343  0.6243  0.0401
 8148TIP3    H145859   2.949   6.391  10.981  0.0024 -0.2065  0.0603
 8148TIP3    H245860   2.992   6.332  11.114  0.0490 -0.5369 -0.1025
 8149TIP3   OH245861   0.318   0.509   5.906 -0.2613  0.4555  0.5407
 8149TIP3    H145862   0.282   0.524   5.818 -0.8305  0.6873  0.8095
 8149TIP3    H245863   0.379   0.437   5.894 -0.2097  0.5945 -0.0829
 8150TIP3   OH245864   3.668   4.838  11.976  0.3729  0.0499 -0.3485
 8150TIP3    H145865   3.733   4.886  11.925  0.7924 -0.3983 -0.2360
 8150TIP3    H245866   3.635   4.901  12.040  2.8911 -0.5644  1.6158
 8151TIP3   OH245867   3.366   3.447  12.589  0.2127 -0.2149 -0.0121
 8151TIP3    H145868   3.323   3.407  12.665  0.0101 -0.1779 -0.1057
 8151TIP3    H245869   3.457   3.458  12.616  0.1775 -0.3571  0.1645
 8152TIP3   OH245870   1.242   0.546   1.140 -0.3094 -0.0628 -0.3569
 8152TIP3    H145871   1.255   0.597   1.060  1.0071  0.8653  0.4245
 8152TIP3    H245872   1.245   0.611   1.210  1.2749 -1.1887  0.6447
 8153TIP3   OH245873   2.299   2.811  16.784 -0.0923  0.3873  0.2570
 8153TIP3    H145874   2.314   2.865  16.861 -0.3873 -0.3653  0.8482
 8153TIP3    H245875   2.214   2.840  16.751 -0.1390  0.4504  0.4316
 8154TIP3   OH245876   2.706   4.747  10.895 -0.0609  0.6202  0.3210
 8154TIP3    H145877   2.670   4.668  10.855 -1.8221  0.8214  1.4230
 8154TIP3    H245878   2.637   4.813  10.884  0.3715  1.3053  1.5797
 8155TIP3   OH245879   1.190   3.193  16.600 -0.5190  0.0876  0.0824
 8155TIP3    H145880   1.165   3.252  16.671 -1.3941 -0.8784  0.6000
 8155TIP3    H245881   1.253   3.133  16.640  0.2083  0.5332 -0.3858
 8156TIP3   OH245882   5.365   1.086   2.826 -0.0146  0.0481  0.1200
 8156TIP3    H145883   5.403   1.163   2.868 -0.9322 -0.1589  1.3449
 8156TIP3    H245884   5.293   1.120   2.773 -0.4789  0.0317  0.7340
 8157TIP3   OH245885   6.196   5.942   1.312  0.2388  0.5544  0.3390
 8157TIP3    H145886   6.263   6.007   1.334 -0.8627  2.0965 -0.7101
 8157TIP3    H245887   6.233   5.892   1.240  1.4156 -0.5492  1.6627
 8158TIP3   OH245888   2.539   4.436   2.921 -0.1733  0.4731  0.7358
 8158TIP3    H145889   2.533   4.345   2.892 -0.4044  0.5247  0.6186
 8158TIP3    H245890   2.460   4.477   2.885  1.2816  1.3734 -1.5118
 8159TIP3   OH245891   1.376   5.075  14.487 -0.2546  0.2878 -0.8663
 8159TIP3    H145892   1.415   5.158  14.461  1.2019 -0.5162 -1.2938
 8159TIP3    H245893   1.381   5.074  14.582 -0.3252  0.7006 -0.8574
 8160TIP3   OH245894   1.731   5.111  11.756 -0.2878 -0.5957  0.1690
 8160TIP3    H145895   1.700   5.195  11.790  1.1247 -0.1145  0.2777
 8160TIP3    H245896   1.826   5.114  11.767 -0.1400 -1.8083 -0.7168
 8161TIP3   OH245897   5.731   0.494   4.247 -0.1207 -0.5904 -0.2677
 8161TIP3    H145898   5.736   0.466   4.339 -0.6421  0.8046  0.2016
 8161TIP3    H245899   5.798   0.442   4.203  0.8515 -0.5410  1.1030
 8162TIP3   OH245900   3.757   6.485  12.687 -0.2110  0.2630  0.1887
 8162TIP3    H145901   3.754   6.427  12.762  2.3750  0.9859  0.8993
 8162TIP3    H245902   3.842   6.527  12.692 -0.4677  1.2332 -2.4830
 8163TIP3   OH245903   0.035   0.481   1.036 -0.3561 -0.2038 -0.1709
 8163TIP3    H145904   0.073   0.454   0.953  1.9405  1.4557  0.2885
 8163TIP3    H245905   0.051   0.408   1.095 -0.3636 -0.6498 -0.7203
 8164TIP3   OH245906   1.822   0.632  16.279 -0.5800 -0.3459  0.0440
 8164TIP3    H145907   1.822   0.671  16.366 -2.7243 -1.5348  0.6304
 8164TIP3    H245908   1.757   0.683  16.230  0.7423  0.4293 -0.9045
 8165TIP3   OH245909   5.677   5.711  16.042 -0.3347  0.0561 -0.4421
 8165TIP3    H145910   5.764   5.711  16.002  0.0707 -0.4278  0.4199
 8165TIP3    H245911   5.622   5.759  15.980  0.4270 -0.0929 -1.2474
 8166TIP3   OH245912   5.431   5.831  16.136  0.0615  0.1593 -0.5628
 8166TIP3    H145913   5.400   5.838  16.227  1.5962 -1.0130  0.0691
 8166TIP3    H245914   5.454   5.739  16.125  0.4218  0.4084 -1.9819
 8167TIP3   OH245915   5.019   5.232   1.691 -0.1820 -0.4815  0.0028
 8167TIP3    H145916   4.973   5.301   1.738  0.8945 -0.9869  1.8383
 8167TIP3    H245917   5.029   5.266   1.602 -2.4257  0.4060  0.0523
 8168TIP3   OH245918   0.734   2.689  11.822  0.0970  0.3326 -0.4320
 8168TIP3    H145919   0.790   2.747  11.873 -0.5513 -0.6599  1.4618
 8168TIP3    H245920   0.669   2.746  11.781 -0.0446  1.0137  0.7533
 8169TIP3   OH245921   0.297   3.198   2.442 -0.4425  0.3475  0.5179
 8169TIP3    H145922   0.273   3.117   2.396 -1.6823  0.5541  0.7838
 8169TIP3    H245923   0.274   3.181   2.533  0.8040  0.4182  0.8505
 8170TIP3   OH245924   5.483   2.319  16.977 -0.0554 -0.2693 -1.2250
 8170TIP3    H145925   5.434   2.245  17.013  1.9309 -1.3076 -0.5420
 8170TIP3    H245926   5.480   2.386  17.045  0.8175 -0.9573 -0.4757
 8171TIP3   OH245927   4.092   0.621   3.811  0.5399  0.1930  0.1783
 8171TIP3    H145928   4.182   0.653   3.804  0.8244 -0.9007 -1.7518
 8171TIP3    H245929   4.041   0.681   3.757  0.3477  0.0092  0.1541
 8172TIP3   OH245930   2.911   1.218   2.186 -0.4984  0.0342  0.1209
 8172TIP3    H145931   2.855   1.199   2.262  1.1572 -0.0496  1.3339
 8172TIP3    H245932   2.989   1.259   2.222  0.1468  0.3703 -1.5843
 8173TIP3   OH245933   3.068   5.080  17.145  0.0799  0.0758 -0.5168
 8173TIP3    H145934   3.139   5.022  17.173 -1.0673  0.0950  2.7297
 8173TIP3    H245935   3.003   5.073  17.216 -2.0931  1.8659 -2.2579
 8174TIP3   OH245936   2.654   0.436   6.734  0.1616  0.1279  0.3122
 8174TIP3    H145937   2.713   0.441   6.659 -0.1285  3.7408  0.2222
 8174TIP3    H245938   2.572   0.402   6.698  1.5846 -3.2733  0.1069
 8175TIP3   OH245939   5.238   1.605  16.572  0.5862 -0.2807 -0.3374
 8175TIP3    H145940   5.276   1.681  16.615  0.8516 -0.2723 -0.5929
 8175TIP3    H245941   5.271   1.608  16.482  0.4894 -0.6176 -0.3859
 8176TIP3   OH245942   3.259   4.118  16.978 -0.4353  0.0946  0.1028
 8176TIP3    H145943   3.268   4.067  16.898  2.5534  0.7234 -0.0197
 8176TIP3    H245944   3.268   4.054  17.048 -0.4146 -0.0941 -0.0702
 8177TIP3   OH245945   5.212   4.947  13.969 -0.3108  0.1007  0.1463
 8177TIP3    H145946   5.221   4.946  13.873 -1.5255  1.1445  0.0158
 8177TIP3    H245947   5.132   4.997  13.985 -0.3239 -0.4058  1.6994
 8178TIP3   OH245948   5.607   0.662   5.902  0.3011 -0.1273 -0.0922
 8178TIP3    H145949   5.622   0.613   5.821 -1.7992 -0.5261 -0.2660
 8178TIP3    H245950   5.520   0.701   5.891  0.1338  0.1060  1.8351
 8179TIP3   OH245951   0.337   0.440  14.042  0.3929  0.2807  0.0978
 8179TIP3    H145952   0.389   0.362  14.061 -0.2443  0.1886  1.5238
 8179TIP3    H245953   0.320   0.435  13.948  4.1604  1.0639 -0.7359
 8180TIP3   OH245954   3.538   5.294   1.185  0.1289 -0.1733  0.1834
 8180TIP3    H145955   3.453   5.282   1.144 -0.5017 -1.6736  1.8821
 8180TIP3    H245956   3.529   5.256   1.272  2.5284 -0.3326  0.4060
 8181TIP3   OH245957   0.067   1.533  12.286 -0.0206 -0.0328 -0.9097
 8181TIP3    H145958  -0.013   1.520  12.234 -0.7310  1.3639 -0.1840
 8181TIP3    H245959   0.074   1.628  12.295  0.0275 -0.2416  1.6496
 8182TIP3   OH245960   1.632   1.260  14.462 -0.4478 -0.5518  0.2011
 8182TIP3    H145961   1.682   1.271  14.543 -1.1770  0.8830  0.4715
 8182TIP3    H245962   1.561   1.201  14.484  0.5854 -1.8661  0.0508
 8183TIP3   OH245963   6.483   4.596   3.496  0.1213 -0.3007  0.1994
 8183TIP3    H145964   6.458   4.593   3.403  0.8025  1.9768 -0.0883
 8183TIP3    H245965   6.538   4.675   3.503  1.4242 -1.3593  2.2081
 8184TIP3   OH245966   1.223   3.640  12.729 -0.7093 -0.1787  0.2276
 8184TIP3    H145967   1.297   3.669  12.783 -0.8267  2.5250 -0.9726
 8184TIP3    H245968   1.263   3.596  12.654 -0.4699 -1.8670  1.3209
 8185TIP3   OH245969   0.274   5.592  11.664  0.1299 -0.1802 -0.2612
 8185TIP3    H145970   0.346   5.649  11.636 -0.6197 -0.0024 -1.8833
 8185TIP3    H245971   0.223   5.646  11.725  0.5422  0.1949 -0.2451
 8186TIP3   OH245972   2.263   2.006   6.043 -0.5377  0.8707 -0.0182
 8186TIP3    H145973   2.202   1.933   6.043 -0.9343  1.1605 -2.2445
 8186TIP3    H245974   2.207   2.084   6.052 -0.3466  1.0280 -0.1796
 8187TIP3   OH245975   0.939   5.016  15.435  0.4831 -0.0952  0.0761
 8187TIP3    H145976   1.027   4.985  15.457 -0.1547 -0.5468  2.0857
 8187TIP3    H245977   0.939   5.109  15.459  0.2860 -0.1915  0.4493
 8188TIP3   OH245978   3.278   5.710   6.284 -0.1677 -0.1873 -0.4553
 8188TIP3    H145979   3.249   5.627   6.322 -2.0201  0.8514  0.4072
 8188TIP3    H245980   3.361   5.729   6.329 -0.0826 -1.2012 -0.1726
 8189TIP3   OH245981   5.429   5.795   1.930 -0.5873  0.5024 -0.3331
 8189TIP3    H145982   5.377   5.726   1.971 -2.2956  2.7608  1.4908
 8189TIP3    H245983   5.429   5.774   1.837  0.2888 -2.7946  0.3585
 8190TIP3   OH245984   4.136   2.816   1.712 -0.2985  0.4256  0.6374
 8190TIP3    H145985   4.224   2.779   1.718 -1.0714 -1.7337 -0.7516
 8190TIP3    H245986   4.140   2.879   1.640  0.1671  0.5260  0.7511
 8191TIP3   OH245987   1.557   1.765   6.093 -0.0160  0.1034  0.2759
 8191TIP3    H145988   1.604   1.848   6.083 -1.3150  1.2369  3.1631
 8191TIP3    H245989   1.465   1.788   6.078 -0.3791 -0.8157  1.0704
 8192TIP3   OH245990   5.189   4.994   3.130  0.2067 -0.0261  0.0998
 8192TIP3    H145991   5.129   4.921   3.147 -2.4111  2.1981  0.8374
 8192TIP3    H245992   5.190   5.002   3.034 -1.0240  0.1579  0.0900
 8193TIP3   OH245993   4.503   3.577   4.734 -0.1965 -0.0707 -0.0600
 8193TIP3    H145994   4.480   3.661   4.771 -1.0180 -0.5506  0.5300
 8193TIP3    H245995   4.553   3.598   4.655 -0.4899  0.9626  0.0290
 8194TIP3   OH245996   5.982   1.688  15.169  0.3983 -0.7630 -1.0348
 8194TIP3    H145997   5.927   1.634  15.226 -0.3379 -0.5289 -1.5054
 8194TIP3    H245998   6.046   1.627  15.132  0.3105 -1.0850 -0.6578
 8195TIP3   OH245999   3.587   0.489   6.312 -0.3018  0.1313 -0.2497
 8195TIP3    H146000   3.638   0.498   6.392  0.0165 -1.0620 -0.2955
 8195TIP3    H246001   3.536   0.409   6.325 -0.1936 -0.1135 -1.2439
 8196TIP3   OH246002   2.902   1.309  12.218 -0.1268 -0.2848  0.6674
 8196TIP3    H146003   2.864   1.369  12.283 -2.6176  0.5121 -1.4330
 8196TIP3    H246004   2.840   1.236  12.214 -0.1465 -0.1799 -1.0134
 8197TIP3   OH246005   5.851   6.437   2.047 -0.3393  0.6432  0.0135
 8197TIP3    H146006   5.865   6.500   1.976  1.9699  1.3141  1.0184
 8197TIP3    H246007   5.798   6.485   2.111 -0.9949  0.5924 -0.4814
 8198TIP3   OH246008   3.002   6.463  14.642 -0.3006  0.0451  0.0312
 8198TIP3    H146009   2.954   6.520  14.703  0.1349  0.1774  0.2479
 8198TIP3    H246010   3.078   6.515  14.615 -2.4663  1.5343 -3.6249
 8199TIP3   OH246011   0.880   2.418   3.949 -0.5808  0.6100  0.0690
 8199TIP3    H146012   0.859   2.324   3.942  2.4412  0.0382 -2.5010
 8199TIP3    H246013   0.796   2.459   3.971 -2.2235 -2.5644  0.1672
 8200TIP3   OH246014   6.738   3.274  10.465 -0.1547  0.4066  0.2626
 8200TIP3    H146015   6.681   3.326  10.408 -0.9913  0.7417  1.3690
 8200TIP3    H246016   6.746   3.327  10.545  2.4141  0.7441 -0.1930
 8201TIP3   OH246017   6.165   2.716  14.879 -0.8437 -0.6995 -0.0868
 8201TIP3    H146018   6.255   2.748  14.877 -0.5623 -1.4986 -0.9893
 8201TIP3    H246019   6.125   2.752  14.800 -0.9940 -1.2155 -0.2537
 8202TIP3   OH246020   6.733   6.719   6.328 -0.2959 -0.2571  0.4667
 8202TIP3    H146021   6.753   6.797   6.379  0.5903  1.4491 -2.4012
 8202TIP3    H246022   6.791   6.652   6.364  0.6234  1.0097  1.3877
 8203TIP3   OH246023   3.305   2.009   0.353 -0.1559 -0.7121  0.3513
 8203TIP3    H146024   3.271   1.940   0.410 -2.4031 -0.2316 -0.3674
 8203TIP3    H246025   3.234   2.027   0.292  1.3189  0.5146 -1.0474
 8204TIP3   OH246026   0.078   0.983  15.883 -0.4196 -0.7209  0.6627
 8204TIP3    H146027   0.110   0.928  15.811  0.4814 -0.4223  0.8263
 8204TIP3    H246028   0.092   0.930  15.961 -0.8523 -0.8128  0.6773
 8205TIP3   OH246029   1.477   2.897  11.406  0.5035 -0.0262 -0.0123
 8205TIP3    H146030   1.524   2.942  11.476  1.0155  1.0285 -1.0278
 8205TIP3    H246031   1.535   2.902  11.330 -0.4872 -0.2590 -0.7985
 8206TIP3   OH246032   1.304   2.532   0.883 -0.7340 -0.1038  0.5449
 8206TIP3    H146033   1.341   2.494   0.804 -1.9622  0.3030 -0.2424
 8206TIP3    H246034   1.221   2.485   0.896 -0.0751 -0.8722  2.1626
 8207TIP3   OH246035   3.894   6.033  13.552 -0.3089 -0.3028 -0.9270
 8207TIP3    H146036   3.823   5.976  13.581  0.0946  0.3499  1.4196
 8207TIP3    H246037   3.850   6.105  13.506 -0.9425 -1.4319 -2.1150
 8208TIP3   OH246038   3.004   4.380   5.181  0.5494 -0.0072 -0.7392
 8208TIP3    H146039   2.923   4.367   5.231  0.6537 -2.6400 -1.1459
 8208TIP3    H246040   3.054   4.444   5.231 -0.1443 -1.2237  1.5660
 8209TIP3   OH246041   2.048   4.020   4.467 -0.0316 -0.3925  0.6861
 8209TIP3    H146042   1.964   3.976   4.457 -0.2723 -0.7438  3.7784
 8209TIP3    H246043   2.025   4.110   4.491  0.4649 -0.8210  2.8034
 8210TIP3   OH246044   3.556   6.193   4.917 -0.3120 -0.0433  0.0147
 8210TIP3    H146045   3.479   6.148   4.882 -0.5549 -1.5023  2.2742
 8210TIP3    H246046   3.629   6.138   4.890 -0.4805 -1.0470  1.5043
 8211TIP3   OH246047   4.854   3.408   5.190  0.7173 -0.1758  0.3684
 8211TIP3    H146048   4.929   3.399   5.250  1.8758  1.9876 -0.6777
 8211TIP3    H246049   4.887   3.463   5.119 -1.4291 -0.4939 -0.9217
 8212TIP3   OH246050   3.343   0.365   4.964  0.4640  0.4158 -0.2684
 8212TIP3    H146051   3.252   0.394   4.968  0.3250 -0.0629  0.0957
 8212TIP3    H246052   3.385   0.424   4.901  0.1240  1.2178  0.2600
 8213TIP3   OH246053   4.057   5.540  14.262 -0.3878  0.5917 -0.2843
 8213TIP3    H146054   4.071   5.632  14.285 -2.1317  0.4837  1.2357
 8213TIP3    H246055   3.973   5.538  14.216  0.3941 -0.0328 -1.7453
 8214TIP3   OH246056   5.744   4.903  16.987 -0.4124  0.2501 -0.4714
 8214TIP3    H146057   5.753   4.849  16.909  1.1321  0.4593 -0.4529
 8214TIP3    H246058   5.787   4.852  17.056  1.4648  1.6903 -0.5503
 8215TIP3   OH246059   5.169   4.312   0.962 -0.2005  0.0065 -0.1267
 8215TIP3    H146060   5.230   4.256   0.913 -0.8227  0.1400 -1.0563
 8215TIP3    H246061   5.224   4.382   0.997  0.4131 -0.6271  0.2001
 8216TIP3   OH246062   2.805   4.657   2.695 -0.1416  0.2916 -0.1097
 8216TIP3    H146063   2.863   4.732   2.708 -0.5452  0.2995  1.8116
 8216TIP3    H246064   2.862   4.581   2.707 -0.1599  0.2956  0.0077
 8217TIP3   OH246065   2.645   2.650  11.754 -0.4426  0.3061 -0.5130
 8217TIP3    H146066   2.691   2.713  11.698  1.0748 -0.3728 -0.0230
 8217TIP3    H246067   2.616   2.702  11.829  4.0799 -0.2543  1.7708
 8218TIP3   OH246068   1.685   4.549  15.833  0.3945  0.0361 -0.3591
 8218TIP3    H146069   1.756   4.558  15.769  0.8468 -0.0756  0.1223
 8218TIP3    H246070   1.608   4.530  15.781  0.0607  3.2856 -1.1923
 8219TIP3   OH246071   0.918   3.715   5.847 -0.0828  0.0183 -0.1065
 8219TIP3    H146072   0.843   3.770   5.867  0.6898  1.0293  0.0242
 8219TIP3    H246073   0.975   3.723   5.923 -0.1005 -1.2188  0.0558
 8220TIP3   OH246074   1.462   5.979  12.812 -0.4014  0.3483  0.2542
 8220TIP3    H146075   1.378   5.952  12.777 -1.2322 -2.4314  4.0851
 8220TIP3    H246076   1.446   6.065  12.852 -0.4767  1.4936 -2.1718
 8221TIP3   OH246077   3.410   4.732   0.749 -0.4218  0.1859  0.4527
 8221TIP3    H146078   3.466   4.668   0.793  1.1500  1.5971  0.5856
 8221TIP3    H246079   3.450   4.742   0.662 -0.1870  1.5361  0.7037
 8222TIP3   OH246080   5.289   1.427   4.580  0.4135  0.1022 -0.3011
 8222TIP3    H146081   5.279   1.345   4.627 -1.9233  0.1161 -0.6878
 8222TIP3    H246082   5.289   1.403   4.487 -1.3347  0.5898 -0.4529
 8223TIP3   OH246083   1.380   1.484   0.126 -0.4262 -0.3540  0.1022
 8223TIP3    H146084   1.463   1.517   0.160  0.0857  1.4771 -2.7696
 8223TIP3    H246085   1.321   1.559   0.128 -1.3239 -1.0319 -0.1021
 8224TIP3   OH246086   0.839   3.646  14.594 -0.4196 -0.3691  1.1765
 8224TIP3    H146087   0.916   3.652  14.650 -0.5922 -0.7614  1.4578
 8224TIP3    H246088   0.870   3.603  14.515 -0.3962 -0.7053  1.3704
 8225TIP3   OH246089   5.126   3.700  11.908  0.0504 -0.1140 -0.9288
 8225TIP3    H146090   5.159   3.773  11.961 -0.2638 -0.6161 -0.0322
 8225TIP3    H246091   5.060   3.740  11.851  0.4611  0.4482 -1.0098
 8226TIP3   OH246092   6.178   4.829  15.664 -0.0234 -0.4905  0.0868
 8226TIP3    H146093   6.122   4.762  15.705 -0.1054  0.6936  1.9977
 8226TIP3    H246094   6.118   4.901  15.644  0.0782 -0.9385 -1.8936
 8227TIP3   OH246095   5.597   6.229   3.414 -0.5053 -0.3432 -0.1708
 8227TIP3    H146096   5.605   6.148   3.464  0.4579 -0.4790 -0.5261
 8227TIP3    H246097   5.636   6.209   3.329 -0.2688  0.4889 -0.2691
 8228TIP3   OH246098   3.751   0.533  12.497 -0.3109 -0.1983  0.4362
 8228TIP3    H146099   3.750   0.598  12.426  1.5984 -1.8722 -1.1642
 8228TIP3    H246100   3.713   0.454  12.458 -0.5210 -0.7388  1.7089
 8229TIP3   OH246101   5.871   0.477  14.392  0.5197  0.1853  0.4499
 8229TIP3    H146102   5.796   0.421  14.371 -0.3670  1.8196 -0.9477
 8229TIP3    H246103   5.900   0.448  14.478  0.0450 -2.3486 -0.2138
 8230TIP3   OH246104   0.703   4.059   5.312 -0.4404  0.0869  0.2649
 8230TIP3    H146105   0.708   4.021   5.399  0.0480 -1.7882 -0.5635
 8230TIP3    H246106   0.724   3.987   5.253  2.6696  2.1183 -1.2553
 8231TIP3   OH246107   3.872   6.676  16.053 -0.0384  0.1606 -0.3264
 8231TIP3    H146108   3.951   6.640  16.014 -0.3567 -1.0791  0.1580
 8231TIP3    H246109   3.848   6.749  15.996 -0.5033 -1.6144 -2.4731
 8232TIP3   OH246110   3.904   3.731  15.251 -0.6530 -0.6853  0.2581
 8232TIP3    H146111   3.983   3.697  15.210 -0.4193  0.3779 -0.1939
 8232TIP3    H246112   3.833   3.675  15.219 -0.0242 -1.9575  1.0552
 8233TIP3   OH246113   4.794   2.903   1.928 -0.2084 -0.5265  0.4010
 8233TIP3    H146114   4.873   2.942   1.891 -2.5782  1.5321 -2.7063
 8233TIP3    H246115   4.765   2.967   1.995 -0.8281  0.1937 -0.5379
 8234TIP3   OH246116   2.028   6.653  14.878 -0.4863  0.4106 -0.1305
 8234TIP3    H146117   2.009   6.729  14.823 -0.8340  0.6930  0.3808
 8234TIP3    H246118   2.057   6.690  14.961  0.9289 -0.0117 -0.4170
 8235TIP3   OH246119   4.524   5.122   4.742  0.0001  0.1411  0.5794
 8235TIP3    H146120   4.483   5.208   4.727  1.6708  0.8565 -0.0599
 8235TIP3    H246121   4.596   5.119   4.679  1.0542 -0.9944  1.8202
 8236TIP3   OH246122   0.337   6.469  12.939 -0.9926  0.2791  0.1005
 8236TIP3    H146123   0.411   6.529  12.944 -0.1245 -0.8397  0.7468
 8236TIP3    H246124   0.294   6.491  12.856  1.5392 -0.7607 -1.5349
 8237TIP3   OH246125   3.326   1.503   1.582  0.2347  0.7292  0.4686
 8237TIP3    H146126   3.350   1.595   1.588  0.5694  0.6435  0.4403
 8237TIP3    H246127   3.232   1.501   1.604  0.3656  0.9984  1.0748
 8238TIP3   OH246128   6.062   5.826  13.790  0.0914 -0.1575 -0.8479
 8238TIP3    H146129   5.969   5.842  13.802  0.7021  2.3306  1.2011
 8238TIP3    H246130   6.085   5.763  13.859  0.0758 -0.1848 -0.8676
 8239TIP3   OH246131   1.619   0.519  12.460  0.0607  0.6091  0.3675
 8239TIP3    H146132   1.582   0.606  12.467 -0.6619  0.2394  1.2619
 8239TIP3    H246133   1.713   0.531  12.474  0.3771  1.5933 -2.2481
 8240TIP3   OH246134   6.499   1.203   4.904 -0.3268 -0.1237  0.0572
 8240TIP3    H146135   6.474   1.130   4.960 -0.1772  1.7936  2.6694
 8240TIP3    H246136   6.548   1.262   4.961 -0.5703  2.1014 -1.9620
 8241TIP3   OH246137   6.128   0.308   1.252  0.2406 -0.2974  0.2462
 8241TIP3    H146138   6.211   0.322   1.206  1.3041 -1.7281  1.6785
 8241TIP3    H246139   6.135   0.363   1.330 -0.2625 -0.2577  0.2629
 8242TIP3   OH246140   5.195   3.834   5.511 -0.1633 -0.1378 -0.0540
 8242TIP3    H146141   5.165   3.915   5.552 -0.3396  0.1375 -0.7162
 8242TIP3    H246142   5.184   3.767   5.579  0.0278  0.4027  0.5091
 8243TIP3   OH246143   5.948   1.043   2.485 -0.5449 -0.4769  0.3904
 8243TIP3    H146144   5.965   0.993   2.405 -0.7358 -2.0228  1.2949
 8243TIP3    H246145   5.855   1.064   2.480 -0.3023  0.4158 -0.3480
 8244TIP3   OH246146   3.674   4.928   4.120  0.7499 -0.1686  0.1879
 8244TIP3    H146147   3.749   4.910   4.176  1.2113  0.4791 -0.2191
 8244TIP3    H246148   3.711   4.932   4.031  0.2187  0.0356 -0.0262
 8245TIP3   OH246149   3.432   6.718  14.512 -0.2930 -0.2061 -0.3834
 8245TIP3    H146150   3.518   6.678  14.499 -0.3915 -0.7158  0.4643
 8245TIP3    H246151   3.443   6.808  14.482 -0.0229 -0.8136 -2.1683
 8246TIP3   OH246152   2.888   1.285  11.884  0.1309 -0.6391 -0.3468
 8246TIP3    H146153   2.952   1.227  11.842 -2.2696 -3.3528 -0.3871
 8246TIP3    H246154   2.882   1.253  11.974 -0.6888  0.0204 -0.1596
 8247TIP3   OH246155   3.472   5.028  11.777  0.2299 -0.2675  0.4061
 8247TIP3    H146156   3.405   5.066  11.833  0.0601 -0.6445  0.4545
 8247TIP3    H246157   3.554   5.068  11.808 -0.1508  1.3879 -0.6778
 8248TIP3   OH246158   3.009   2.867  15.302 -0.7725  0.4482  0.0650
 8248TIP3    H146159   2.965   2.901  15.380 -1.4637 -1.6611  0.6057
 8248TIP3    H246160   3.093   2.835  15.334 -0.8398  0.0583 -0.1565
 8249TIP3   OH246161   4.673   0.179   2.711  0.0114  0.2931  0.4176
 8249TIP3    H146162   4.684   0.139   2.798  0.3501  1.2148  0.8004
 8249TIP3    H246163   4.581   0.166   2.690  0.1520 -0.8351  0.4701
 8250TIP3   OH246164   5.643   0.232  14.101 -0.1684  0.5265 -0.3452
 8250TIP3    H146165   5.604   0.167  14.160 -0.6778  1.3441  0.2247
 8250TIP3    H246166   5.720   0.264  14.148  0.2664  0.1083 -0.7664
 8251TIP3   OH246167   1.865   5.141   4.260 -0.1003  0.2985 -0.6286
 8251TIP3    H146168   1.818   5.217   4.293  1.7982  1.3769 -0.3444
 8251TIP3    H246169   1.906   5.102   4.338 -0.9405 -0.9611 -0.7865
 8252TIP3   OH246170   3.702   4.652  13.369  0.0317 -0.0179 -0.2084
 8252TIP3    H146171   3.773   4.648  13.432  1.7330  1.9635 -1.9080
 8252TIP3    H246172   3.675   4.744  13.369 -0.1064 -0.0211 -2.1280
 8253TIP3   OH246173   2.274   4.145  17.127 -0.2176 -0.6228  0.2758
 8253TIP3    H146174   2.345   4.161  17.064 -0.6977  1.6506  0.2530
 8253TIP3    H246175   2.194   4.149  17.075 -0.4478 -1.6485  0.5530
 8254TIP3   OH246176   0.400   0.485  14.600  0.0922  0.0818 -0.0196
 8254TIP3    H146177   0.343   0.481  14.523  1.7730 -1.8239 -1.1968
 8254TIP3    H246178   0.462   0.414  14.588  1.0037  0.3774  2.6383
 8255TIP3   OH246179   4.205   3.581   0.935 -0.2896 -0.2861  0.6301
 8255TIP3    H146180   4.176   3.493   0.959  0.5772 -1.2952 -1.7640
 8255TIP3    H246181   4.283   3.566   0.881 -0.7867  1.8964 -0.7466
 8256TIP3   OH246182   4.884   6.562  11.951  0.6296 -0.3221  0.1789
 8256TIP3    H146183   4.901   6.490  11.891  1.0903 -0.2966  0.2797
 8256TIP3    H246184   4.804   6.536  11.997 -0.1880  0.0342 -1.0110
 8257TIP3   OH246185   4.590   3.319  12.150 -0.4572 -0.0347  0.4079
 8257TIP3    H146186   4.652   3.387  12.174 -0.4428  0.7848 -1.8888
 8257TIP3    H246187   4.607   3.302  12.058 -0.3908 -3.2361  0.9493
 8258TIP3   OH246188   1.412   5.923   5.756 -0.5781 -0.3553  0.5815
 8258TIP3    H146189   1.459   5.856   5.807  0.9429  0.4851  0.2974
 8258TIP3    H246190   1.388   5.878   5.675  0.4463 -0.5587  0.3876
 8259TIP3   OH246191   1.195   6.613   0.393 -0.1191 -0.6333  0.0010
 8259TIP3    H146192   1.193   6.581   0.483  0.7577  1.2302  0.7139
 8259TIP3    H246193   1.243   6.696   0.399 -1.4131  0.2677 -1.9280
 8260TIP3   OH246194   6.105   0.242   0.724  0.2793  0.1829  0.2040
 8260TIP3    H146195   6.174   0.284   0.776  1.5037 -0.4051 -0.9149
 8260TIP3    H246196   6.116   0.278   0.636  1.4611 -2.5388 -0.8219
 8261TIP3   OH246197   4.429   6.701  13.339  0.2100 -0.1782 -0.2385
 8261TIP3    H146198   4.379   6.776  13.307  0.4951  0.7117  1.3195
 8261TIP3    H246199   4.516   6.712  13.301  0.2072  0.2040 -0.1330
 8262TIP3   OH246200   4.627   2.370   2.699  0.0890  0.2120 -0.3580
 8262TIP3    H146201   4.694   2.338   2.639 -1.5663 -2.1150 -1.0315
 8262TIP3    H246202   4.612   2.298   2.760 -2.3799  0.3524 -0.7305
 8263TIP3   OH246203   4.881   1.281   3.243 -0.3109 -0.1474  0.4203
 8263TIP3    H146204   4.904   1.192   3.218  0.5790 -0.6202  2.8392
 8263TIP3    H246205   4.849   1.321   3.161  1.1737 -2.0366 -1.1394
 8264TIP3   OH246206   5.659   0.249  12.526 -0.8295 -0.2831  0.0305
 8264TIP3    H146207   5.642   0.166  12.571 -0.0049  0.1988  1.2505
 8264TIP3    H246208   5.748   0.274  12.553 -0.8539  0.7086 -0.7690
 8265TIP3   OH246209   5.762   0.900  12.083 -0.1536 -0.3634 -0.5770
 8265TIP3    H146210   5.826   0.829  12.081 -0.9830 -1.1160 -0.5359
 8265TIP3    H246211   5.781   0.951  12.004  0.9955 -0.1373 -0.1555
 8266TIP3   OH246212   6.230   1.353   6.362 -0.0663  0.4089 -0.6381
 8266TIP3    H146213   6.254   1.360   6.455  0.7627  1.7560 -0.9346
 8266TIP3    H246214   6.250   1.263   6.338  1.0511  0.4463  0.1323
 8267TIP3   OH246215   4.157   5.697  15.055 -0.4594  0.2029 -0.0973
 8267TIP3    H146216   4.170   5.608  15.023  0.7760  1.2773 -2.7447
 8267TIP3    H246217   4.232   5.713  15.113  0.0820 -0.0198 -0.7268
 8268TIP3   OH246218   1.722   4.482  14.680  0.1856 -0.2039 -0.2905
 8268TIP3    H146219   1.807   4.458  14.716 -0.2368 -0.6535  0.4077
 8268TIP3    H246220   1.743   4.535  14.603  1.1308  2.7293  1.8626
 8269TIP3   OH246221   2.086   6.076  16.003  0.1447 -0.4972  0.5805
 8269TIP3    H146222   2.014   6.058  16.064 -1.2868  1.7792 -0.3510
 8269TIP3    H246223   2.054   6.044  15.919  0.2075  0.5377  0.1589
 8270TIP3   OH246224   6.543   2.147   5.629 -0.4126 -0.3296  0.1630
 8270TIP3    H146225   6.503   2.145   5.716  0.2480 -2.0614  0.4461
 8270TIP3    H246226   6.631   2.183   5.644 -1.1775  1.7563 -0.1882
 8271TIP3   OH246227   4.903   5.040   1.333 -0.1164  0.3685 -0.4137
 8271TIP3    H146228   4.906   5.129   1.368 -0.5353  0.0541  0.4318
 8271TIP3    H246229   4.824   5.002   1.371  0.0998 -0.3888 -0.7156
 8272TIP3   OH246230   6.352   0.966   0.837 -0.2996 -0.9534  0.1896
 8272TIP3    H146231   6.361   0.956   0.932 -0.6009  0.9481  0.4447
 8272TIP3    H246232   6.440   0.954   0.803  0.1372  0.1523  0.9028
 8273TIP3   OH246233   1.915   1.861   0.542 -0.2508  0.2042 -0.6595
 8273TIP3    H146234   1.822   1.839   0.534 -0.1142 -0.2256 -1.1676
 8273TIP3    H246235   1.949   1.798   0.606 -0.2088  0.0294 -0.8515
 8274TIP3   OH246236   4.681   2.565  13.709  0.1783 -0.3816  0.1802
 8274TIP3    H146237   4.695   2.523  13.624  2.4383 -0.9324  0.7894
 8274TIP3    H246238   4.769   2.575  13.745 -0.7394  0.1477  2.3245
 8275TIP3   OH246239   0.731   1.690   2.880  0.5517  0.3695 -0.9306
 8275TIP3    H146240   0.731   1.594   2.883  0.3605  0.3792 -0.4407
 8275TIP3    H246241   0.691   1.712   2.797 -1.1504  0.0338 -0.2237
 8276TIP3   OH246242   3.737   4.930  17.102 -0.0472  0.5722 -0.1085
 8276TIP3    H146243   3.708   4.910  17.013  0.0106  2.3210 -0.5421
 8276TIP3    H246244   3.796   4.858  17.125  0.2187  0.2902 -1.6209
 8277TIP3   OH246245   0.039   3.886  14.681  0.5361 -0.6806  0.0935
 8277TIP3    H146246  -0.002   3.922  14.602 -0.3646 -1.4335  0.2063
 8277TIP3    H246247   0.113   3.944  14.698  0.2198  0.0027 -0.8036
 8278TIP3   OH246248   2.656   3.693  17.010 -0.3359 -0.0161  0.3655
 8278TIP3    H146249   2.625   3.773  16.967 -2.0164 -2.1078 -2.4933
 8278TIP3    H246250   2.751   3.696  17.000 -0.4510  1.1868 -0.4915
 8279TIP3   OH246251   2.952   2.204   0.306  0.2783  0.4062 -0.3210
 8279TIP3    H146252   2.991   2.177   0.390  0.6556  1.3811 -0.1696
 8279TIP3    H246253   3.010   2.166   0.240  0.5070  0.4038 -0.1227
 8280TIP3   OH246254   3.317   6.634  14.256 -0.5608 -0.2469  0.0414
 8280TIP3    H146255   3.393   6.646  14.313 -1.6796  1.2687  1.2520
 8280TIP3    H246256   3.262   6.710  14.273 -3.0894 -2.0748  0.2985
 8281TIP3   OH246257   4.113   4.207  17.125 -0.4303  0.4103 -0.3925
 8281TIP3    H146258   4.142   4.258  17.200 -1.1668  0.4224 -0.1094
 8281TIP3    H246259   4.084   4.123  17.162 -0.8230  0.4266 -0.6591
 8282TIP3   OH246260   2.764   0.627  12.764  0.0620  0.4171 -0.1090
 8282TIP3    H146261   2.821   0.632  12.841 -1.8706 -1.7303  1.5375
 8282TIP3    H246262   2.717   0.711  12.764  0.8988  0.8889  0.3957
 8283TIP3   OH246263   6.162   0.635  13.515 -0.2653 -0.4571  0.0242
 8283TIP3    H146264   6.161   0.618  13.421  1.6970  0.6373 -0.2276
 8283TIP3    H246265   6.071   0.627  13.542 -1.1596  1.3215 -2.3603
 8284TIP3   OH246266   6.508   0.820  16.192  0.5878  0.1654  0.5445
 8284TIP3    H146267   6.415   0.812  16.215  0.3344  1.6622  0.0811
 8284TIP3    H246268   6.517   0.769  16.112  0.2288 -0.2207  0.7462
 8285TIP3   OH246269   2.044   0.049  11.776  0.1817  0.1713 -0.1162
 8285TIP3    H146270   2.010   0.084  11.858 -0.5121  1.0396 -0.7586
 8285TIP3    H246271   2.017   0.112  11.710  2.2354  0.3695 -0.7911
 8286TIP3   OH246272   2.961   5.833   6.257  0.3035 -0.3236  0.3630
 8286TIP3    H146273   2.946   5.820   6.351  1.5796 -2.0415  0.3579
 8286TIP3    H246274   3.026   5.903   6.253 -2.0241  1.9292  0.6201
 8287TIP3   OH246275   5.295   2.399  12.871  0.5692  0.1900  0.3938
 8287TIP3    H146276   5.303   2.324  12.929  0.1284 -0.9507 -1.0021
 8287TIP3    H246277   5.367   2.457  12.897  1.7397 -1.3268  0.5947
 8288TIP3   OH246278   3.537   5.640   1.004 -0.0903  0.1148 -0.4874
 8288TIP3    H146279   3.494   5.645   1.089 -1.7190 -1.8856 -1.1642
 8288TIP3    H246280   3.526   5.550   0.976  2.2491  0.2056 -1.9144
 8289TIP3   OH246281   1.335   2.982   5.242 -0.0231  0.3324 -0.3174
 8289TIP3    H146282   1.250   3.005   5.206  0.8335  1.5888 -1.5812
 8289TIP3    H246283   1.318   2.966   5.335 -1.7644 -0.2459 -0.7202
 8290TIP3   OH246284   6.583   2.992  14.206  0.7569 -0.2773  0.0048
 8290TIP3    H146285   6.488   2.995  14.204  0.8016  0.9595 -0.4622
 8290TIP3    H246286   6.606   3.004  14.298  0.4400 -1.6690  0.2764
 8291TIP3   OH246287   0.520   3.821   0.386  0.1887 -0.0137  0.0298
 8291TIP3    H146288   0.441   3.874   0.401 -0.2392 -0.3161 -1.0806
 8291TIP3    H246289   0.592   3.883   0.391 -0.1813  0.3947  0.3587
 8292TIP3   OH246290   3.676   4.916  15.670 -0.1849 -0.2495  0.0019
 8292TIP3    H146291   3.618   4.989  15.649 -1.6299 -0.9771  1.3832
 8292TIP3    H246292   3.657   4.850  15.603  0.8544  0.4574 -1.0234
 8293TIP3   OH246293   4.230   1.844  10.927  0.2562 -0.1721 -0.4076
 8293TIP3    H146294   4.146   1.815  10.891 -0.6643  0.6255  1.0455
 8293TIP3    H246295   4.254   1.919  10.873 -0.3573  0.0923 -0.3162
 8294TIP3   OH246296   3.267   2.395  16.632 -0.2975  0.7071 -0.3110
 8294TIP3    H146297   3.179   2.367  16.609 -0.5649  0.6530  0.7557
 8294TIP3    H246298   3.294   2.337  16.703  0.9232  0.1786 -1.1801
 8295TIP3   OH246299   3.242   2.218  13.472 -0.2496 -0.0818  0.7585
 8295TIP3    H146300   3.304   2.235  13.543 -0.2449  1.4156  0.4137
 8295TIP3    H246301   3.223   2.124  13.479  2.6009 -0.7374  0.4161
 8296TIP3   OH246302   3.085   1.620  15.111 -0.2275 -0.2320  0.0258
 8296TIP3    H146303   3.177   1.646  15.103 -0.5666  0.6522 -1.1878
 8296TIP3    H246304   3.063   1.635  15.203  0.2434  1.6128 -0.1455
 8297TIP3   OH246305   3.938   2.130   0.184  0.3706  0.0064  0.3417
 8297TIP3    H146306   4.010   2.093   0.235  1.1422  1.1132  0.0696
 8297TIP3    H246307   3.885   2.177   0.248 -0.9220 -1.9730  0.7859
 8298TIP3   OH246308   0.851   2.294  11.219  0.1308  0.4854 -0.5684
 8298TIP3    H146309   0.825   2.212  11.259  1.0190  0.5550  0.1649
 8298TIP3    H246310   0.928   2.272  11.167  1.4831  1.1878  1.0862
 8299TIP3   OH246311   4.195   5.222   3.871 -0.3103  1.0985  0.4773
 8299TIP3    H146312   4.157   5.279   3.937  0.3999  1.4199  0.6086
 8299TIP3    H246313   4.142   5.142   3.875  0.6157  0.5567  2.4146
 8300TIP3   OH246314   3.718   4.384  10.893  0.9893 -0.4613 -0.3982
 8300TIP3    H146315   3.632   4.396  10.934  0.5182 -0.8564 -1.2479
 8300TIP3    H246316   3.733   4.289  10.896  1.9259 -0.2834  0.7906
 8301TIP3   OH246317   4.521   0.484  14.689 -0.4459 -0.9823 -0.2704
 8301TIP3    H146318   4.474   0.566  14.703  0.3508 -0.9916  2.7806
 8301TIP3    H246319   4.606   0.511  14.652 -0.7732 -0.5622 -0.7223
 8302TIP3   OH246320   5.993   4.501   1.265 -0.0215 -0.0541 -0.2597
 8302TIP3    H146321   5.999   4.570   1.198 -1.8143  0.5989  0.2109
 8302TIP3    H246322   5.910   4.457   1.246  0.5178 -1.2999  0.2082
 8303TIP3   OH246323   2.409   4.006  16.564  0.1553 -0.0437  0.3199
 8303TIP3    H146324   2.400   3.914  16.587 -1.0169  0.3215  1.3975
 8303TIP3    H246325   2.502   4.018  16.547  0.1361 -1.6934 -1.0764
 8304TIP3   OH246326   5.784   1.367  15.030 -0.0171  0.1363 -0.2444
 8304TIP3    H146327   5.843   1.292  15.021 -0.0924  0.1479 -0.8763
 8304TIP3    H246328   5.730   1.346  15.106 -1.8861 -1.7460 -2.0437
 8305TIP3   OH246329   4.447   2.254  13.181  0.0321  0.1798 -0.0521
 8305TIP3    H146330   4.377   2.243  13.116  1.3876 -4.7421 -0.8910
 8305TIP3    H246331   4.412   2.215  13.261  1.8520 -2.7523 -0.6055
 8306TIP3   OH246332   1.064   5.529  16.961 -0.1416 -0.1803 -0.7947
 8306TIP3    H146333   1.082   5.497  16.873 -1.9761 -0.8705 -0.9319
 8306TIP3    H246334   1.086   5.456  17.019 -1.5528 -0.6935 -0.8929
 8307TIP3   OH246335   2.888   2.254   0.940 -0.1405 -0.9355  0.4837
 8307TIP3    H146336   2.956   2.204   0.984 -0.7915 -1.5911  0.7571
 8307TIP3    H246337   2.854   2.194   0.873  0.9191  0.0856 -1.0153
 8308TIP3   OH246338   2.430   2.462   6.076 -0.8540 -0.4430  0.4603
 8308TIP3    H146339   2.469   2.376   6.059 -0.4150 -0.2590  0.5279
 8308TIP3    H246340   2.350   2.463   6.024 -1.1538 -1.1154  0.9021
 8309TIP3   OH246341   4.691   1.782  15.263  0.7444 -0.1043 -0.2194
 8309TIP3    H146342   4.772   1.768  15.312  2.1994  1.1227 -2.2151
 8309TIP3    H246343   4.623   1.742  15.317  2.5198 -0.1834  2.0185
 8310TIP3   OH246344   6.728   4.726  13.307 -0.2005 -0.0406  0.1604
 8310TIP3    H146345   6.668   4.653  13.297 -1.8828  1.3025  0.1516
 8310TIP3    H246346   6.671   4.804  13.309  1.4654  1.1920  1.0262
 8311TIP3   OH246347   5.146   4.419  16.012  0.1739  0.2939 -0.6348
 8311TIP3    H146348   5.102   4.451  15.933  0.9368 -0.4843 -1.3851
 8311TIP3    H246349   5.074   4.397  16.072 -0.4598 -0.6807 -1.7341
 8312TIP3   OH246350   5.613   3.933   1.816  0.2261  0.3015  0.2764
 8312TIP3    H146351   5.620   3.857   1.874  0.7151 -0.8630 -1.2359
 8312TIP3    H246352   5.699   3.975   1.820  0.6385 -0.4398 -0.4354
 8313TIP3   OH246353   1.602   3.548  16.837  0.0070 -0.1399  0.0265
 8313TIP3    H146354   1.670   3.610  16.808  0.2420  0.5685  1.9723
 8313TIP3    H246355   1.636   3.514  16.920 -1.5204 -0.6143  0.4618
 8314TIP3   OH246356   6.451   1.112  16.221  0.3737  0.1816  0.2702
 8314TIP3    H146357   6.419   1.025  16.197 -1.1726  1.2753 -1.7413
 8314TIP3    H246358   6.422   1.123  16.312 -1.5116 -0.4554 -0.2214
 8315TIP3   OH246359   0.486   5.704   4.455 -0.2288  0.5862 -0.3073
 8315TIP3    H146360   0.434   5.678   4.379 -0.2078 -0.0815 -0.0909
 8315TIP3    H246361   0.491   5.799   4.448 -0.8152  0.5890 -0.7600
 8316TIP3   OH246362   4.011   4.664  11.313  0.0181 -0.6879  0.1438
 8316TIP3    H146363   4.017   4.743  11.258  2.5286 -0.6478  0.3986
 8316TIP3    H246364   3.934   4.679  11.368  1.5139  2.4775  1.4856
 8317TIP3   OH246365   1.442   0.720  12.393  0.0014 -0.9814  0.3333
 8317TIP3    H146366   1.362   0.687  12.353 -0.8823  0.4436  0.8685
 8317TIP3    H246367   1.485   0.770  12.323 -1.3407  1.1677  0.9825
 8318TIP3   OH246368   5.744   4.088  13.462 -0.2328 -0.0265 -0.3302
 8318TIP3    H146369   5.661   4.076  13.508  0.2529 -1.0127  0.3320
 8318TIP3    H246370   5.797   4.013  13.490  1.6454  1.7246  0.9646
 8319TIP3   OH246371   1.978   6.070   2.542 -0.6626 -0.2335  0.3325
 8319TIP3    H146372   2.004   6.070   2.634 -1.7392 -0.1970  0.6464
 8319TIP3    H246373   1.936   6.155   2.529  1.9742  0.9177 -0.9376
 8320TIP3   OH246374   5.591   0.632  15.933  0.1319 -0.4761 -0.5150
 8320TIP3    H146375   5.511   0.670  15.897 -0.5572 -0.0240  1.4638
 8320TIP3    H246376   5.641   0.706  15.965  0.2015 -0.9745  0.5422
 8321TIP3   OH246377   2.433   6.032   4.648 -1.2215  0.2621  0.3576
 8321TIP3    H146378   2.344   6.043   4.682 -0.4509  2.8432  1.6825
 8321TIP3    H246379   2.478   5.978   4.713 -1.8666 -1.2790 -0.4520
 8322TIP3   OH246380   6.525   2.045   0.750  0.5159  0.0721 -0.1097
 8322TIP3    H146381   6.566   2.074   0.669  3.2044 -0.9468  0.8115
 8322TIP3    H246382   6.595   2.049   0.815 -1.2338 -0.3998  1.8810
 8323TIP3   OH246383   5.955   5.721  11.566 -0.1368  0.4398 -0.3994
 8323TIP3    H146384   5.881   5.734  11.625 -0.3947  1.1945 -0.8686
 8323TIP3    H246385   5.954   5.627  11.547 -0.8226  0.3988 -0.2005
 8324TIP3   OH246386   0.021   0.601  16.802  0.6179 -0.5000  0.9844
 8324TIP3    H146387   0.041   0.683  16.756 -0.4493 -1.1197 -0.6363
 8324TIP3    H246388   0.075   0.604  16.881  1.1886  1.4015  0.5534
 8325TIP3   OH246389   6.647   1.488   3.763  0.4503 -0.6560 -0.3733
 8325TIP3    H146390   6.617   1.447   3.844  1.2777 -1.5034 -0.4940
 8325TIP3    H246391   6.572   1.481   3.704 -0.3938  0.5686  0.5269
 8326TIP3   OH246392   2.681   4.626  11.198  0.2063 -0.0549  0.3566
 8326TIP3    H146393   2.607   4.658  11.146 -0.1774  0.4658  1.2237
 8326TIP3    H246394   2.751   4.688  11.180  0.6612 -0.9058 -0.9754
 8327TIP3   OH246395   6.542   1.382  15.141  0.0929 -0.2740 -0.0204
 8327TIP3    H146396   6.505   1.421  15.220 -0.9700 -0.2174 -0.5435
 8327TIP3    H246397   6.498   1.298  15.132 -3.0860  1.6013 -2.9820
 8328TIP3   OH246398   4.028   6.646   3.132  0.9114  0.8616 -0.3195
 8328TIP3    H146399   3.999   6.654   3.223  1.7789  3.3162 -0.2302
 8328TIP3    H246400   4.093   6.576   3.134  0.6398  0.6222  0.8698
 8329TIP3   OH246401   3.676   2.573   6.284  0.2422  0.2741  0.9811
 8329TIP3    H146402   3.593   2.530   6.260  0.9371  0.7833 -2.4752
 8329TIP3    H246403   3.715   2.513   6.348 -2.0867 -0.7063  1.5603
 8330TIP3   OH246404   2.986   1.603   2.845 -0.2461  0.0207 -0.4245
 8330TIP3    H146405   2.914   1.543   2.830 -1.8001  1.8629 -0.5182
 8330TIP3    H246406   2.950   1.671   2.902  1.8296  0.1903  0.7581
 8331TIP3   OH246407   1.793   6.472  14.223 -0.3406 -0.3045 -0.0804
 8331TIP3    H146408   1.706   6.472  14.262 -0.4424 -0.0327 -0.3004
 8331TIP3    H246409   1.844   6.532  14.278 -1.1337  1.9960 -1.7487
 8332TIP3   OH246410   2.053   6.048  13.155 -0.1148  0.5255  0.3944
 8332TIP3    H146411   1.962   6.059  13.183  0.1260 -0.7805  1.7155
 8332TIP3    H246412   2.049   6.053  13.059 -1.3603  1.9569  0.4949
 8333TIP3   OH246413   0.958   4.843  14.461 -0.0291 -0.1214  0.2624
 8333TIP3    H146414   0.876   4.828  14.507  0.0653  1.8478  1.1065
 8333TIP3    H246415   0.983   4.756  14.428 -0.8095 -1.3289  2.6993
 8334TIP3   OH246416   4.071   0.808  11.886 -0.2126  0.0034  0.0628
 8334TIP3    H146417   3.989   0.794  11.838  0.0060 -0.2893 -0.2188
 8334TIP3    H246418   4.117   0.875  11.835  0.5711 -1.1829 -0.8115
 8335TIP3   OH246419   0.492   5.693  12.170  0.6675  0.1222 -0.1299
 8335TIP3    H146420   0.539   5.775  12.184  0.2005  0.3503  0.1199
 8335TIP3    H246421   0.404   5.710  12.204  0.4790 -0.3810 -0.3633
 8336TIP3   OH246422   6.485   1.185  13.292 -0.4937  0.1875 -0.1128
 8336TIP3    H146423   6.554   1.237  13.333  0.7142 -0.7068 -0.9632
 8336TIP3    H246424   6.452   1.129  13.362 -0.8978  1.1700  0.4878
 8337TIP3   OH246425   4.850   6.287  16.500 -0.1844 -0.4944 -0.4590
 8337TIP3    H146426   4.760   6.309  16.474  0.0083 -1.3704 -1.9199
 8337TIP3    H246427   4.900   6.367  16.482 -0.5052 -0.2989 -0.4857
 8338TIP3   OH246428   4.459   3.976   2.489 -0.0819  1.3197 -1.0291
 8338TIP3    H146429   4.535   4.004   2.539 -0.5499  2.4405 -0.9207
 8338TIP3    H246430   4.490   3.973   2.398  1.0197 -1.6233 -0.6049
 8339TIP3   OH246431   6.132   1.858  12.336  0.9291  0.5024  0.0661
 8339TIP3    H146432   6.037   1.850  12.344  0.8636 -3.8974 -3.2474
 8339TIP3    H246433   6.145   1.930  12.274 -0.2979  0.6493 -0.0378
 8340TIP3   OH246434   2.973   2.618  16.377 -0.2671  0.1173 -0.1203
 8340TIP3    H146435   2.911   2.602  16.448 -1.3393  0.0378 -1.0697
 8340TIP3    H246436   2.962   2.710  16.356 -0.3367  0.0129 -0.5450
 8341TIP3   OH246437   3.709   1.668  13.963  0.0615  0.5980  0.4120
 8341TIP3    H146438   3.710   1.730  14.037  1.2070 -0.4500  1.3008
 8341TIP3    H246439   3.645   1.602  13.987  1.2136 -0.3367  0.9999
 8342TIP3   OH246440   3.126   3.415   5.419  0.1589  0.4226  0.2501
 8342TIP3    H146441   3.148   3.427   5.326  0.5485 -2.4238 -0.0647
 8342TIP3    H246442   3.103   3.503   5.449 -0.5512  1.3174 -2.6875
 8343TIP3   OH246443   5.659   0.390   3.911 -0.4343  0.2353 -0.7297
 8343TIP3    H146444   5.732   0.444   3.941 -0.0362  0.0219 -1.3287
 8343TIP3    H246445   5.697   0.304   3.896 -1.1110 -0.2867  0.4373
 8344TIP3   OH246446   5.188   4.812  13.250  0.0241 -0.0757 -0.8407
 8344TIP3    H146447   5.238   4.749  13.302 -1.9726  0.1501  1.4157
 8344TIP3    H246448   5.193   4.894  13.299 -3.4406 -0.3197  0.0204
 8345TIP3   OH246449   2.941   2.234   1.946 -0.1826  0.7317  0.1015
 8345TIP3    H146450   3.029   2.209   1.915  0.1483  2.6194 -0.5406
 8345TIP3    H246451   2.951   2.324   1.976 -1.6270  0.5307  1.2246
 8346TIP3   OH246452   2.831   6.255   4.546 -0.7993 -0.6841 -0.2657
 8346TIP3    H146453   2.906   6.302   4.508 -0.3470  1.0962  2.6534
 8346TIP3    H246454   2.861   6.164   4.552  1.2589  0.0300  1.0083
 8347TIP3   OH246455   4.702   5.186  14.463 -0.0978 -0.5750  0.2409
 8347TIP3    H146456   4.617   5.143  14.467  0.0766 -1.1585 -1.8132
 8347TIP3    H246457   4.690   5.270  14.509 -2.3129  0.2179 -1.7237
 8348TIP3   OH246458   2.618   2.936   3.362 -0.3287  0.4289 -0.5204
 8348TIP3    H146459   2.670   2.907   3.437  1.5779  1.3715 -1.4364
 8348TIP3    H246460   2.679   2.935   3.289 -1.5876  1.6754 -1.6210
 8349TIP3   OH246461   1.328   5.251   5.205 -0.1653 -0.1735  0.2949
 8349TIP3    H146462   1.241   5.223   5.176  0.1940 -2.4609  1.3205
 8349TIP3    H246463   1.385   5.232   5.131  0.0684 -2.1982  0.9699
 8350TIP3   OH246464   0.364   2.857  12.179  0.6298 -0.3470  0.7853
 8350TIP3    H146465   0.324   2.800  12.114 -0.1085  1.4284 -0.3332
 8350TIP3    H246466   0.397   2.931  12.129 -0.5127  1.3559  2.5058
 8351TIP3   OH246467   2.910   2.396  14.513 -0.4708  0.3529  0.5769
 8351TIP3    H146468   2.927   2.485  14.484 -1.3789  0.4281  0.2509
 8351TIP3    H246469   2.914   2.343  14.433 -2.2477  0.4522  0.3937
 8352TIP3   OH246470   5.990   2.342   2.823 -0.8382 -1.0852 -0.0890
 8352TIP3    H146471   6.002   2.349   2.918 -0.3211 -1.0234 -0.1549
 8352TIP3    H246472   5.942   2.421   2.799 -0.4214 -0.7943  0.0349
 8353TIP3   OH246473   4.427   6.606  15.269  0.1366  0.2503  0.4846
 8353TIP3    H146474   4.412   6.513  15.284  0.3977  0.2199  0.5653
 8353TIP3    H246475   4.383   6.625  15.186  0.6060 -0.0776  0.1620
 8354TIP3   OH246476   4.765   5.764  11.327 -0.2382  0.9624  0.6017
 8354TIP3    H146477   4.697   5.783  11.392 -1.1195 -0.9592  0.2841
 8354TIP3    H246478   4.746   5.675  11.299  0.9847  1.2738 -1.2748
 8355TIP3   OH246479   1.573   0.932  12.699 -0.1283 -0.6037  0.2285
 8355TIP3    H146480   1.551   0.857  12.644 -2.9077 -0.1799  0.6888
 8355TIP3    H246481   1.553   1.008  12.644 -1.8959 -0.1909  1.4253
 8356TIP3   OH246482   0.378   4.828  11.095  0.1410 -0.3207 -0.2300
 8356TIP3    H146483   0.310   4.815  11.029  0.7544  2.1018 -1.3981
 8356TIP3    H246484   0.334   4.811  11.178 -1.5632 -0.0418 -1.0592
 8357TIP3   OH246485   0.821   3.785  15.635  0.2365 -0.4534 -0.1358
 8357TIP3    H146486   0.834   3.693  15.613 -0.7918 -0.6671  0.1174
 8357TIP3    H246487   0.734   3.788  15.674 -0.0327  0.7537 -0.8158
 8358TIP3   OH246488   5.932   1.162   0.767 -0.2122 -0.1830 -0.0835
 8358TIP3    H146489   5.863   1.101   0.791 -1.5569  0.9548 -0.9407
 8358TIP3    H246490   5.955   1.206   0.849 -0.8717 -0.2199  0.1249
 8359TIP3   OH246491   2.994   3.538  16.107  0.4072  0.4618 -0.0409
 8359TIP3    H146492   2.996   3.613  16.166 -0.5535  0.1306  0.4305
 8359TIP3    H246493   3.075   3.545  16.056  0.9992  1.0266  0.9690
 8360TIP3   OH246494   0.199   6.760   3.184 -0.2679  0.3177 -0.4133
 8360TIP3    H146495   0.290   6.790   3.184  0.4956 -1.9058  0.0046
 8360TIP3    H246496   0.173   6.763   3.092  1.3802 -2.3239 -1.0114
 8361TIP3   OH246497   1.410   4.468   6.069  0.1074 -0.3131  0.0021
 8361TIP3    H146498   1.430   4.385   6.113 -2.8965 -0.1845  1.7655
 8361TIP3    H246499   1.444   4.535   6.128  0.0047 -0.2315 -0.0319
 8362TIP3   OH246500   2.906   0.742  17.207 -0.4328  0.3445 -0.2486
 8362TIP3    H146501   2.986   0.739  17.155 -1.2519  1.1214 -1.5948
 8362TIP3    H246502   2.932   0.711  17.293  1.2020  0.0870 -0.8138
 8363TIP3   OH246503   0.539   3.907   2.770  0.4759  0.1286 -0.0655
 8363TIP3    H146504   0.595   3.837   2.802  0.0438  0.2027  0.8723
 8363TIP3    H246505   0.544   3.975   2.838  0.2623  0.6582 -0.5781
 8364TIP3   OH246506   3.990   3.812  13.131 -0.1648 -0.6097  0.1685
 8364TIP3    H146507   3.980   3.891  13.185 -2.4305 -1.2949  0.7650
 8364TIP3    H246508   4.010   3.845  13.044 -1.3361  0.6267  0.3651
 8365TIP3   OH246509   5.017   1.306  10.726 -0.6910  0.3933  0.2886
 8365TIP3    H146510   5.015   1.225  10.777  2.9917 -0.1011 -0.2126
 8365TIP3    H246511   4.958   1.290  10.653 -1.7531 -0.9810  1.4373
 8366TIP3   OH246512   2.971   6.653   5.095 -0.1108 -0.1293 -0.1847
 8366TIP3    H146513   2.950   6.577   5.041  1.4982 -1.6921  1.3129
 8366TIP3    H246514   3.067   6.652   5.102 -0.1119  1.6547  0.4170
 8367TIP3   OH246515   6.196   5.644  11.762 -0.2446  0.1164 -0.3373
 8367TIP3    H146516   6.128   5.598  11.810  0.5420 -0.5806  0.1293
 8367TIP3    H246517   6.198   5.603  11.676  0.1070 -0.3762 -0.0938
 8368TIP3   OH246518   0.773   5.764  11.201 -0.0614  0.3043  0.8693
 8368TIP3    H146519   0.702   5.708  11.231  0.6915  0.1946  2.4839
 8368TIP3    H246520   0.731   5.826  11.142 -1.1678 -0.9672  0.2961
 8369TIP3   OH246521   1.708   0.891  11.886  0.1992 -0.2053 -0.2373
 8369TIP3    H146522   1.627   0.863  11.842  0.0942 -1.4394  0.7182
 8369TIP3    H246523   1.766   0.917  11.814 -0.7696 -0.0516 -0.9774
 8370TIP3   OH246524   1.468   6.089  11.810  0.0656 -0.7008  0.1577
 8370TIP3    H146525   1.474   5.994  11.824  1.9527 -0.4931  0.8189
 8370TIP3    H246526   1.406   6.098  11.737  1.6810 -2.5729 -1.5183
 8371TIP3   OH246527   1.484   6.414   4.008  0.3005 -0.0548 -0.0682
 8371TIP3    H146528   1.498   6.334   4.058  0.7390 -0.3236 -0.6174
 8371TIP3    H246529   1.429   6.388   3.935 -0.3416  0.3397  0.2632
 8372TIP3   OH246530   0.810   1.898  11.458 -0.3346 -0.3899 -0.1007
 8372TIP3    H146531   0.766   1.830  11.408 -0.4599  0.1935 -0.8019
 8372TIP3    H246532   0.774   1.980  11.423 -0.6753  0.0234  1.1680
 8373TIP3   OH246533   3.261   5.632  13.161  0.1386  0.5767  0.0200
 8373TIP3    H146534   3.248   5.615  13.254  0.7666 -2.0711 -0.3328
 8373TIP3    H246535   3.187   5.688  13.136 -1.8682 -1.3793  1.3959
 8374TIP3   OH246536   1.915   4.771   5.791  0.2673 -0.3258  0.1392
 8374TIP3    H146537   1.987   4.785   5.730 -0.6132  1.4997 -0.5185
 8374TIP3    H246538   1.909   4.852   5.841 -0.9915 -0.6494  0.5494
 8375TIP3   OH246539   0.208   2.404   4.611  0.6416 -0.3200 -0.1476
 8375TIP3    H146540   0.127   2.428   4.656  1.0373 -0.2933  0.5530
 8375TIP3    H246541   0.267   2.374   4.681  1.1367 -0.6187 -0.6830
 8376TIP3   OH246542   3.302   1.293   0.316 -0.5485 -0.0893  0.1812
 8376TIP3    H146543   3.277   1.254   0.399 -0.2868  0.4755  0.5275
 8376TIP3    H246544   3.344   1.376   0.339 -0.4225  0.0485 -0.5063
 8377TIP3   OH246545   1.819   5.078   2.133  0.2003 -0.1767  0.2100
 8377TIP3    H146546   1.862   5.160   2.158  1.0713 -0.2301 -1.0770
 8377TIP3    H246547   1.847   5.063   2.043 -2.3561 -0.3390 -0.5955
 8378TIP3   OH246548   1.109   5.187   5.502 -0.7158 -0.1908  0.6571
 8378TIP3    H146549   1.047   5.127   5.543  0.6646 -1.6139  0.7331
 8378TIP3    H246550   1.190   5.176   5.552 -0.0142  0.6289 -0.2681
 8379TIP3   OH246551   3.000   1.426  12.602  0.7357 -0.9288 -0.5489
 8379TIP3    H146552   3.088   1.465  12.601  0.5120 -0.4546 -1.5558
 8379TIP3    H246553   2.962   1.450  12.518 -0.2897 -1.3098 -0.1957
 8380TIP3   OH246554   6.567   0.736  12.542 -0.7571  0.3670  0.1477
 8380TIP3    H146555   6.623   0.727  12.465  1.4944 -4.6378  2.1329
 8380TIP3    H246556   6.477   0.730  12.507  0.1940 -1.1926 -2.1654
 8381TIP3   OH246557   4.288   4.118   0.236  0.1843 -0.4480 -0.7204
 8381TIP3    H146558   4.217   4.053   0.236 -2.3578  2.2195 -0.7822
 8381TIP3    H246559   4.337   4.099   0.155 -1.2776 -1.4621 -1.3968
 8382TIP3   OH246560   2.084   2.381  15.324  0.2382 -0.1214 -0.0823
 8382TIP3    H146561   2.130   2.456  15.362  1.1442 -0.5876 -0.2509
 8382TIP3    H246562   2.050   2.333  15.400 -1.4586  1.1621 -0.0282
 8383TIP3   OH246563   5.828   0.574   1.408 -0.3394 -0.1105  0.4464
 8383TIP3    H146564   5.854   0.591   1.318  0.6568  3.3395  1.2867
 8383TIP3    H246565   5.734   0.594   1.411 -0.2284  0.4538  0.2899
 8384TIP3   OH246566   1.182   4.447   4.992  0.3028 -0.2149  0.2445
 8384TIP3    H146567   1.088   4.430   4.988  0.3827 -0.6000 -0.0569
 8384TIP3    H246568   1.211   4.401   5.070  0.5244 -1.5288 -0.5892
 8385TIP3   OH246569   6.325   6.184   3.842 -0.1382  0.6068  0.6108
 8385TIP3    H146570   6.295   6.135   3.765  0.4314  0.6117  0.3851
 8385TIP3    H246571   6.267   6.260   3.846 -0.4105  0.4119  0.4045
 8386TIP3   OH246572   0.226   1.459  14.494  0.0309 -0.6883 -0.2331
 8386TIP3    H146573   0.176   1.530  14.535  2.7173  1.0690  0.1007
 8386TIP3    H246574   0.228   1.482  14.401  0.9468 -0.2724 -0.1178
 8387TIP3   OH246575   1.797   5.484   1.927  0.0981  0.1163 -0.4505
 8387TIP3    H146576   1.797   5.580   1.921  0.3616  0.1636  0.2216
 8387TIP3    H246577   1.724   5.456   1.872  0.3822  0.6747 -1.1157
 8388TIP3   OH246578   3.064   3.421   1.925  0.2268  0.0106  0.1878
 8388TIP3    H146579   3.049   3.461   2.011 -0.1031  0.7989 -0.2239
 8388TIP3    H246580   2.977   3.417   1.886  0.4250 -0.0198 -0.2483
 8389TIP3   OH246581   4.337   3.435  12.179 -0.0219 -0.2383 -0.1306
 8389TIP3    H146582   4.410   3.373  12.178 -0.1591 -0.3955 -0.2887
 8389TIP3    H246583   4.311   3.439  12.271  1.6847  1.5792  0.3087
 8390TIP3   OH246584   0.556   4.935  16.588  0.4701 -0.4604  0.1692
 8390TIP3    H146585   0.535   4.865  16.650  1.0413  0.1760  1.1021
 8390TIP3    H246586   0.480   4.939  16.530  0.2594 -1.5855  0.3404
 8391TIP3   OH246587   0.923   1.763   5.788  0.1328  0.3967 -0.0110
 8391TIP3    H146588   0.952   1.684   5.834 -2.0419 -0.2885  0.2256
 8391TIP3    H246589   1.000   1.789   5.737  0.6764 -2.3330 -0.7137
 8392TIP3   OH246590   5.267   6.026  11.242  0.1844 -0.0705 -0.1215
 8392TIP3    H146591   5.322   6.026  11.164  0.3505  1.0831 -0.0188
 8392TIP3    H246592   5.179   6.008  11.210  0.4344 -0.7536 -0.4294
 8393TIP3   OH246593   5.087   1.873  11.904 -0.3590 -0.5281 -0.2987
 8393TIP3    H146594   5.043   1.937  11.959 -0.7384 -0.0088 -1.1948
 8393TIP3    H246595   5.055   1.788  11.936 -0.5864 -0.2324  0.2640
 8394TIP3   OH246596   0.567   3.552  15.904  0.2182 -0.2677  0.2665
 8394TIP3    H146597   0.662   3.557  15.904  0.2039  0.0100  0.3601
 8394TIP3    H246598   0.540   3.613  15.836  0.0698  0.4058  0.9178
 8395TIP3   OH246599   5.317   0.275  15.527 -0.3225  0.4252 -0.2305
 8395TIP3    H146600   5.382   0.209  15.504 -0.2649  0.2788  0.3459
 8395TIP3    H246601   5.279   0.301  15.443 -0.2837 -0.2779 -0.4738
 8396TIP3   OH246602   4.788   5.091   3.914  0.1318  0.0890 -0.0630
 8396TIP3    H146603   4.806   5.040   3.835 -0.4048 -0.4886  0.1897
 8396TIP3    H246604   4.870   5.139   3.931  0.4061 -0.1519 -0.6876
 8397TIP3   OH246605   4.726   2.609  15.824 -0.4237 -0.0930  0.0757
 8397TIP3    H146606   4.731   2.704  15.835 -1.6093  0.2358 -2.0425
 8397TIP3    H246607   4.642   2.594  15.781 -0.6345 -2.1982  1.1269
 8398TIP3   OH246608   5.085   4.223   0.652  0.6467 -0.0278 -0.1574
 8398TIP3    H146609   5.133   4.140   0.653 -0.2134 -0.5305  0.2628
 8398TIP3    H246610   5.047   4.227   0.564 -0.1727 -0.5939  0.1613
 8399TIP3   OH246611   4.866   0.724   5.626  0.2388  0.6100 -0.7640
 8399TIP3    H146612   4.806   0.719   5.701 -0.4000 -0.6286 -1.3504
 8399TIP3    H246613   4.812   0.755   5.554  1.1067  2.9265 -0.4810
 8400TIP3   OH246614   0.407   6.713  11.593  0.1678  0.1032  0.3582
 8400TIP3    H146615   0.333   6.770  11.569  0.0370 -0.1346  0.2018
 8400TIP3    H246616   0.449   6.759  11.665 -0.0982  0.2701  0.4096
 8401TIP3   OH246617   1.499   3.830  16.333 -0.3580  0.6733  0.1682
 8401TIP3    H146618   1.525   3.919  16.357  1.5948  0.7746 -2.1067
 8401TIP3    H246619   1.414   3.841  16.290 -0.4397  1.3487  0.4879
 8402TIP3   OH246620   2.552   1.451  16.501 -0.1283  1.0833 -0.3993
 8402TIP3    H146621   2.507   1.491  16.427 -1.7296  0.9084  0.4794
 8402TIP3    H246622   2.568   1.361  16.474  0.1967  1.2889 -0.9131
 8403TIP3   OH246623   5.546   5.540   0.737  0.4243 -0.1253  0.1084
 8403TIP3    H146624   5.554   5.590   0.818 -0.6181  0.7629 -0.3258
 8403TIP3    H246625   5.502   5.459   0.762 -1.1208  0.7321  0.2138
 8404TIP3   OH246626   2.397   4.870   1.975  0.4450  0.4132  0.5245
 8404TIP3    H146627   2.480   4.919   1.981 -0.2791  1.4875  2.3777
 8404TIP3    H246628   2.415   4.787   2.018  1.3666 -0.5338 -1.6444
 8405TIP3   OH246629   1.361   3.845  13.579 -0.0751  0.2301  0.6728
 8405TIP3    H146630   1.292   3.795  13.622  0.3117 -0.2700  0.7225
 8405TIP3    H246631   1.433   3.844  13.642  0.8696 -1.3942 -0.4006
 8406TIP3   OH246632   6.030   2.668  12.257  0.0720 -0.6864 -0.3409
 8406TIP3    H146633   6.058   2.617  12.334  2.9608 -1.2498 -1.6754
 8406TIP3    H246634   6.005   2.753  12.293  2.6158 -0.5067  1.1552
 8407TIP3   OH246635   3.969   1.843  14.322  0.0011 -0.6829 -0.1663
 8407TIP3    H146636   3.959   1.767  14.379  0.2936 -0.5507  0.0617
 8407TIP3    H246637   4.064   1.854  14.314 -0.0415 -0.3193 -0.1745
 8408TIP3   OH246638   0.424   1.113   5.517  0.2369 -0.6255  0.4325
 8408TIP3    H146639   0.446   1.141   5.606  2.4936  0.6879 -0.4903
 8408TIP3    H246640   0.506   1.118   5.469 -1.4270  1.2289 -2.3818
 8409TIP3   OH246641   0.174   2.313   0.184  0.3771  0.0888 -0.6184
 8409TIP3    H146642   0.253   2.260   0.185  0.0850 -0.3809 -1.5781
 8409TIP3    H246643   0.201   2.399   0.216  1.4799  0.2108 -1.8613
 8410TIP3   OH246644   2.822   5.029  10.733 -0.2225  0.2777 -0.2587
 8410TIP3    H146645   2.908   5.016  10.773  1.2932  1.0174 -3.1556
 8410TIP3    H246646   2.796   5.117  10.759 -0.2175 -0.0224  0.7836
 8411TIP3   OH246647   0.466   2.757   0.233 -0.2940 -0.4064  0.1977
 8411TIP3    H146648   0.396   2.721   0.288 -0.3600 -0.0964  0.3150
 8411TIP3    H246649   0.421   2.791   0.156 -0.2593 -0.3244  0.2136
 8412TIP3   OH246650   4.236   6.765  16.592 -0.7322 -0.1919  0.3456
 8412TIP3    H146651   4.276   6.718  16.518  0.6392 -0.2239  1.0826
 8412TIP3    H246652   4.153   6.720  16.607 -0.5465 -0.8333 -0.5248
 8413TIP3   OH246653   1.733   2.973   3.487 -0.1661 -0.4361  0.6822
 8413TIP3    H146654   1.693   2.986   3.401 -1.7120 -0.2745  1.3981
 8413TIP3    H246655   1.764   2.883   3.486  0.0618 -0.3525 -0.1353
 8414TIP3   OH246656   3.799   5.599   1.843  0.5268  0.2189 -0.1071
 8414TIP3    H146657   3.831   5.672   1.790  0.6774  1.2999  1.4194
 8414TIP3    H246658   3.879   5.556   1.875  0.4606 -1.8829 -2.6341
 8415TIP3   OH246659   4.685   3.807  15.541 -0.2165 -0.1986  0.2794
 8415TIP3    H146660   4.744   3.852  15.480 -0.7761 -0.6384 -0.6124
 8415TIP3    H246661   4.597   3.831  15.511 -0.5148 -1.4050  0.1513
 8416TIP3   OH246662   5.121   2.416   6.621  0.0439  0.1374 -0.0880
 8416TIP3    H146663   5.049   2.353   6.617  0.8303 -0.6922 -1.7843
 8416TIP3    H246664   5.192   2.375   6.572  0.1207  2.9064 -2.4447
 8417TIP3   OH246665   5.725   1.870   5.122 -0.0921 -0.1869  0.7653
 8417TIP3    H146666   5.641   1.847   5.162 -0.2163 -0.3381  0.4158
 8417TIP3    H246667   5.769   1.786   5.108 -0.9020 -0.2856 -1.2908
 8418TIP3   OH246668   1.320   5.996   1.827  0.0960  0.0509 -0.2686
 8418TIP3    H146669   1.232   6.023   1.801 -0.3321 -0.0993  1.0174
 8418TIP3    H246670   1.312   5.903   1.846  0.7367 -0.1604 -1.0095
 8419TIP3   OH246671   1.731   3.788  13.402 -0.3978 -0.1868  0.4796
 8419TIP3    H146672   1.732   3.710  13.456  1.1770  0.0638  0.8474
 8419TIP3    H246673   1.824   3.804  13.382 -0.6567  1.7937  0.7541
 8420TIP3   OH246674   3.934   4.864  16.558 -0.3093 -0.4420  0.3958
 8420TIP3    H146675   3.913   4.954  16.532  1.7648 -0.0928 -0.1723
 8420TIP3    H246676   4.029   4.856  16.543 -0.7080 -3.1729 -0.8842
 8421TIP3   OH246677   5.614   5.578   4.791  0.1210  0.2112 -0.0087
 8421TIP3    H146678   5.608   5.485   4.772  0.4256 -0.4184  2.7907
 8421TIP3    H246679   5.536   5.616   4.751  0.0996 -1.1885 -1.3407
 8422TIP3   OH246680   4.453   1.993   3.764  0.3630  0.2125 -0.2735
 8422TIP3    H146681   4.480   2.001   3.672  0.3606 -0.5664 -0.3402
 8422TIP3    H246682   4.443   2.084   3.793 -0.0698  0.4638 -1.1688
 8423TIP3   OH246683   4.956   1.712  13.673  0.1628 -0.0079 -0.2726
 8423TIP3    H146684   5.033   1.750  13.633 -0.1503  0.3442 -0.5443
 8423TIP3    H246685   4.960   1.741  13.765 -0.1768  0.8526 -0.5208
 8424TIP3   OH246686   4.011   0.897   2.602 -0.0867 -0.3034 -0.1798
 8424TIP3    H146687   3.995   0.943   2.684 -0.7561  0.6248 -0.8306
 8424TIP3    H246688   4.080   0.947   2.559  1.3277 -1.6391  0.4810
 8425TIP3   OH246689   0.848   6.092   2.078 -0.3059 -0.0865  0.0460
 8425TIP3    H146690   0.937   6.078   2.110 -0.6244  2.0011  2.0769
 8425TIP3    H246691   0.856   6.164   2.016 -0.7747  1.4029  1.6524
 8426TIP3   OH246692   1.223   4.355  16.247 -0.0149  1.3273 -0.1772
 8426TIP3    H146693   1.179   4.322  16.168  1.0794 -0.9151  0.1012
 8426TIP3    H246694   1.208   4.287  16.312  1.6955  1.7239  0.6446
 8427TIP3   OH246695   4.029   1.083   4.015  0.4845  0.0381  0.7817
 8427TIP3    H146696   4.032   1.112   4.106 -3.5322  0.6599  0.8048
 8427TIP3    H246697   4.032   0.988   4.019  0.5605  0.0746  1.5315
 8428TIP3   OH246698   0.637   0.561  15.950  0.5021 -0.1280 -0.1353
 8428TIP3    H146699   0.645   0.577  16.044  0.0626  2.6375 -0.5427
 8428TIP3    H246700   0.588   0.636  15.917  1.2262 -0.7435 -2.6816
 8429TIP3   OH246701   4.037   0.464   2.159  0.5231  0.2204  0.0687
 8429TIP3    H146702   4.109   0.515   2.123 -0.3423  1.8705  0.6169
 8429TIP3    H246703   4.010   0.406   2.088  1.5432  0.4987 -0.5490
 8430TIP3   OH246704   5.129   2.233   0.600  0.4698  0.5683  0.1656
 8430TIP3    H146705   5.173   2.303   0.649 -0.1905  0.3476  1.0946
 8430TIP3    H246706   5.065   2.198   0.662 -0.5446  0.4325 -0.9567
 8431TIP3   OH246707   4.121   4.175   3.697  0.6485 -0.1158 -0.3000
 8431TIP3    H146708   4.139   4.152   3.788 -0.0003  0.8373  0.0731
 8431TIP3    H246709   4.145   4.267   3.690 -1.2098  0.3653 -0.5605
 8432TIP3   OH246710   1.106   2.910   1.813 -0.0604 -0.5365  0.1332
 8432TIP3    H146711   1.055   2.835   1.844 -1.3915  0.2403 -0.1371
 8432TIP3    H246712   1.182   2.912   1.871 -1.5823 -0.2177  2.1746
 8433TIP3   OH246713   3.878   3.616  17.067 -0.4705 -0.4289 -0.1729
 8433TIP3    H146714   3.843   3.650  17.149 -0.0413 -1.0626  0.2819
 8433TIP3    H246715   3.965   3.654  17.060 -1.0575  0.7762 -1.0670
 8434TIP3   OH246716   0.211   2.500   3.546 -0.0316 -0.2183 -0.4638
 8434TIP3    H146717   0.207   2.446   3.625  0.8336 -0.1118 -0.3415
 8434TIP3    H246718   0.142   2.466   3.490 -0.7745 -0.1777  0.4116
 8435TIP3   OH246719   3.229   1.990   2.562  0.1476 -0.3599 -0.4438
 8435TIP3    H146720   3.212   2.045   2.485 -0.6137  1.1128  0.7736
 8435TIP3    H246721   3.325   1.988   2.569  0.1781  0.9679 -0.3852
 8436TIP3   OH246722   4.017   2.146   0.508 -0.0072 -0.1814 -0.7355
 8436TIP3    H146723   4.031   2.236   0.480  2.9740  0.7431  3.3308
 8436TIP3    H246724   3.935   2.149   0.557 -1.3069 -0.2883 -2.8479
 8437TIP3   OH246725   1.867   1.227   1.029 -0.7201 -0.1032 -0.4799
 8437TIP3    H146726   1.902   1.146   1.067 -1.1229  0.1654  0.4730
 8437TIP3    H246727   1.860   1.209   0.935 -0.6137 -1.0997 -0.2957
 8438TIP3   OH246728   0.917   1.737   3.453 -0.0431  0.3889 -0.1245
 8438TIP3    H146729   0.841   1.791   3.431 -1.7646 -1.4851  0.9632
 8438TIP3    H246730   0.879   1.651   3.471  2.4722 -0.8228 -0.4869
 8439TIP3   OH246731   5.851   3.862   2.333 -0.1493 -0.0248 -0.7294
 8439TIP3    H146732   5.901   3.943   2.346  0.0531 -0.4088  1.0350
 8439TIP3    H246733   5.884   3.827   2.251  0.1835  1.3882 -1.2235
 8440TIP3   OH246734   5.845   5.255  11.730  0.3252  0.0820  0.3786
 8440TIP3    H146735   5.797   5.173  11.721 -0.2632  0.1619  2.4633
 8440TIP3    H246736   5.921   5.245  11.673  0.0563 -1.7619  0.3074
 8441TIP3   OH246737   4.835   6.648  13.605 -0.1341  0.3108  0.2909
 8441TIP3    H146738   4.784   6.678  13.680  0.2682  0.7125  0.4056
 8441TIP3    H246739   4.921   6.625  13.642  0.1501  0.7568 -0.0892
 8442TIP3   OH246740   1.012   0.699  13.242 -0.2707  0.2348  0.4903
 8442TIP3    H146741   1.084   0.689  13.304 -0.4828 -0.0903  0.6870
 8442TIP3    H246742   0.954   0.625  13.261 -0.5618  0.3918  0.2088
 8443TIP3   OH246743   5.967   0.216  11.338  0.4091 -0.4919  0.2614
 8443TIP3    H146744   5.999   0.306  11.330 -0.0485 -0.4113 -0.6893
 8443TIP3    H246745   5.881   0.225  11.380  0.6632 -0.5403  0.7942
 8444TIP3   OH246746   4.437   0.918   2.770  0.4671  0.1277  0.5650
 8444TIP3    H146747   4.393   0.841   2.805  0.4502 -0.3793 -0.5651
 8444TIP3    H246748   4.468   0.965   2.848 -0.8178 -0.2430  1.3097
 8445TIP3   OH246749   1.086   6.563  13.195 -0.0263 -0.5490  0.3349
 8445TIP3    H146750   1.041   6.647  13.205 -0.0435 -0.6592  1.1994
 8445TIP3    H246751   1.030   6.513  13.135 -0.6495 -0.4033  0.7924
 8446TIP3   OH246752   1.344   5.551   2.065  0.4834  0.3637  0.0557
 8446TIP3    H146753   1.370   5.595   1.984 -1.7280  0.4569 -0.6356
 8446TIP3    H246754   1.368   5.459   2.052  0.0889  0.3737 -0.7211
 8447TIP3   OH246755   6.027   2.654   1.344 -0.0220 -0.2424 -0.0920
 8447TIP3    H146756   6.121   2.659   1.326 -0.3269  1.7872 -1.2774
 8447TIP3    H246757   5.987   2.642   1.258 -0.9128 -0.2748  0.3221
 8448TIP3   OH246758   5.617   4.804  15.154  0.0569  0.6606  0.4769
 8448TIP3    H146759   5.575   4.732  15.107  1.2899 -0.2643  0.7615
 8448TIP3    H246760   5.573   4.806  15.239 -0.5332  0.7673  0.1676
 8449TIP3   OH246761   2.336   5.316  10.758  0.2564  0.0434  0.6897
 8449TIP3    H146762   2.347   5.242  10.818  0.2192 -0.2980  0.2748
 8449TIP3    H246763   2.310   5.277  10.675  1.9862  0.3721 -0.0320
 8450TIP3   OH246764   2.265   4.890  14.303 -0.3328  0.3371 -0.1064
 8450TIP3    H146765   2.354   4.900  14.269 -0.3838 -0.9041 -0.6339
 8450TIP3    H246766   2.258   4.956  14.372  0.5483  1.3382 -0.9506
 8451TIP3   OH246767   6.293   0.077  11.990 -0.5870  0.0326  0.0010
 8451TIP3    H146768   6.310   0.163  11.952  0.6105 -0.3334 -0.2870
 8451TIP3    H246769   6.356   0.018  11.949 -0.5082 -0.7306  1.1718
 8452TIP3   OH246770   4.576   6.107  15.228 -0.4125  0.0302 -0.2118
 8452TIP3    H146771   4.512   6.178  15.231  0.2593  0.6423 -0.1667
 8452TIP3    H246772   4.661   6.152  15.220 -0.0934 -0.7933 -1.7056
 8453TIP3   OH246773   4.238   5.467  13.179 -0.0908 -0.4786  0.0270
 8453TIP3    H146774   4.305   5.426  13.232  0.5406 -0.7327 -0.9482
 8453TIP3    H246775   4.165   5.482  13.239 -0.3721 -3.1036  0.4095
 8454TIP3   OH246776   1.505   4.233  16.780  0.5512 -0.8746 -0.2531
 8454TIP3    H146777   1.483   4.164  16.842  1.2411 -1.0346 -0.1832
 8454TIP3    H246778   1.504   4.190  16.695  2.5131 -1.3469 -0.0628
 8455TIP3   OH246779   3.812   0.011  13.605 -0.2877 -0.2398 -0.1341
 8455TIP3    H146780   3.841   0.001  13.514 -0.2188 -0.2218 -0.1135
 8455TIP3    H246781   3.850   0.094  13.634 -0.2234 -0.2982 -0.0541
 8456TIP3   OH246782   5.522   5.340   4.754  0.1513  0.4442 -0.1742
 8456TIP3    H146783   5.428   5.320   4.749  0.0695  0.9712 -0.8476
 8456TIP3    H246784   5.562   5.283   4.689  0.2114  0.7110 -0.3730
 8457TIP3   OH246785   0.446   6.506   6.090 -0.3498  0.0538  0.1670
 8457TIP3    H146786   0.518   6.502   6.152 -0.1387  1.8716  0.0865
 8457TIP3    H246787   0.487   6.520   6.005 -0.7484  0.2378  0.0003
 8458TIP3   OH246788   3.585   0.346   4.380  0.1700 -0.3148 -0.5812
 8458TIP3    H146789   3.528   0.417   4.349 -1.3841 -1.7388 -1.0323
 8458TIP3    H246790   3.640   0.325   4.305  0.6012  0.3761 -0.4633
 8459TIP3   OH246791   5.980   2.315  12.794  0.1833  0.4531 -0.2172
 8459TIP3    H146792   5.935   2.261  12.730 -0.3027  0.1862  0.3432
 8459TIP3    H246793   6.033   2.254  12.845 -0.4434  0.4712  0.4821
 8460TIP3   OH246794   4.458   5.766  14.377  0.2159 -0.2600  0.1996
 8460TIP3    H146795   4.456   5.847  14.325 -1.4651  0.5843  1.5223
 8460TIP3    H246796   4.503   5.792  14.457 -2.9710  0.2069  1.9125
 8461TIP3   OH246797   0.343   2.067  11.679  0.7291 -0.3826 -0.6647
 8461TIP3    H146798   0.321   1.997  11.740 -1.5559 -1.1836 -2.3663
 8461TIP3    H246799   0.324   2.148  11.727 -2.1128 -1.0124 -0.6488
 8462TIP3   OH246800   2.254   1.265   3.800 -0.1461 -0.0259 -0.7884
 8462TIP3    H146801   2.264   1.236   3.891 -1.9902  0.0223 -0.5422
 8462TIP3    H246802   2.257   1.361   3.806  1.7706 -0.0597 -1.0548
 8463TIP3   OH246803   3.781   3.158   5.724  1.1296 -0.6740 -0.1379
 8463TIP3    H146804   3.749   3.075   5.690 -0.9901  0.7671 -1.8020
 8463TIP3    H246805   3.737   3.169   5.808  0.6176 -0.7545 -0.3964
 8464TIP3   OH246806   3.353   5.543   4.669 -0.5282 -0.2833  0.2822
 8464TIP3    H146807   3.409   5.482   4.621 -1.6615 -0.5166 -0.7973
 8464TIP3    H246808   3.341   5.503   4.755  0.7390 -0.3497  0.4356
 8465TIP3   OH246809   6.571   5.917   6.286 -0.3537 -0.0552  0.2628
 8465TIP3    H146810   6.534   5.989   6.235  2.8196  3.0878  2.0990
 8465TIP3    H246811   6.529   5.924   6.372  1.6394  1.1940  1.1848
 8466TIP3   OH246812   4.154   2.373   1.306 -0.0113 -0.5782 -0.3843
 8466TIP3    H146813   4.211   2.449   1.321  0.1746 -0.7498 -0.2318
 8466TIP3    H246814   4.162   2.320   1.385 -1.0761 -0.1585  0.0069
 8467TIP3   OH246815   3.031   1.218   4.783  0.3724  0.7269 -0.5763
 8467TIP3    H146816   3.046   1.252   4.871 -2.4021 -0.0701  0.2461
 8467TIP3    H246817   2.956   1.267   4.750  0.3582 -0.1287 -1.8744
 8468TIP3   OH246818   6.095   5.073  12.785  0.4776  0.2194  0.0149
 8468TIP3    H146819   6.154   5.148  12.796  0.3701  0.5420 -1.5269
 8468TIP3    H246820   6.027   5.085  12.851  1.7859  0.1630  1.4228
 8469TIP3   OH246821   3.222   5.584   5.898 -0.0697  0.8132  0.0650
 8469TIP3    H146822   3.200   5.677   5.893 -0.4223  0.7471  0.3705
 8469TIP3    H246823   3.153   5.546   5.952 -0.4930  0.1951 -0.8962
 8470TIP3   OH246824   6.229   6.062   2.529 -0.2428  0.3130  0.6293
 8470TIP3    H146825   6.286   6.019   2.465 -1.1909  0.0274 -0.0278
 8470TIP3    H246826   6.195   6.139   2.484 -1.0591  0.0139  0.7233
 8471TIP3   OH246827   5.480   1.762   2.681  0.2392  0.1065  0.4667
 8471TIP3    H146828   5.487   1.668   2.696  0.0113  0.1042  0.5661
 8471TIP3    H246829   5.386   1.777   2.668  0.5738 -0.1510 -2.6933
 8472TIP3   OH246830   5.189   3.874  17.150  0.5234  0.3128  0.4894
 8472TIP3    H146831   5.270   3.892  17.102  0.9256  2.6167  1.9450
 8472TIP3    H246832   5.150   3.960  17.164 -1.7681 -0.7018  0.5518
 8473TIP3   OH246833   4.375   2.009   5.015 -0.8817 -0.1415 -0.6605
 8473TIP3    H146834   4.453   1.990   4.963  0.8952 -0.6474  2.0658
 8473TIP3    H246835   4.365   2.104   5.009 -0.0115 -0.0665 -1.0116
 8474TIP3   OH246836   3.661   3.000   6.298 -0.4879 -0.0063 -0.2514
 8474TIP3    H146837   3.709   3.000   6.381  0.4444 -1.4888 -0.7712
 8474TIP3    H246838   3.688   2.920   6.254 -1.8990  0.1478 -1.4704
 8475TIP3   OH246839   6.483   5.001  16.864  0.6397 -0.0800 -0.5861
 8475TIP3    H146840   6.433   5.004  16.783 -1.0452  0.6675  0.4749
 8475TIP3    H246841   6.468   5.085  16.906  0.4506 -0.9493  1.1359
 8476TIP3   OH246842   6.136   3.193   3.382 -0.1277 -0.3522 -0.5682
 8476TIP3    H146843   6.223   3.189   3.343  0.1149 -1.3077  0.0670
 8476TIP3    H246844   6.083   3.131   3.332  0.1485 -1.4739  0.5153
 8477TIP3   OH246845   5.186   1.791  16.033 -0.8996  0.5712 -0.6579
 8477TIP3    H146846   5.155   1.817  16.120  2.5195  0.9990  0.4957
 8477TIP3    H246847   5.201   1.874  15.988 -1.7210  0.3618 -1.3253
 8478TIP3   OH246848   3.790   2.627  15.889  0.0264 -0.3156 -0.1044
 8478TIP3    H146849   3.696   2.638  15.878  0.0808 -1.7695 -2.4805
 8478TIP3    H246850   3.829   2.703  15.846 -0.0728  0.6858  1.5649
 8479TIP3   OH246851   5.456   4.441  14.172  0.4599  0.7880 -0.3710
 8479TIP3    H146852   5.396   4.376  14.210  0.1972  2.0669  1.4745
 8479TIP3    H246853   5.441   4.435  14.078  0.2930 -1.6799 -0.2152
 8480TIP3   OH246854   5.520   6.782   0.969  0.6745  0.1460  0.5137
 8480TIP3    H146855   5.442   6.812   0.922 -1.1244 -0.7813  2.7467
 8480TIP3    H246856   5.515   6.826   1.054  1.2385 -1.7955  1.5973
 8481TIP3   OH246857   2.959   1.731   0.798  0.3190 -0.0187 -0.3021
 8481TIP3    H146858   2.867   1.758   0.809  0.0774  0.3604 -2.8600
 8481TIP3    H246859   2.960   1.685   0.713  1.7832 -3.3795  1.4362
 8482TIP3   OH246860   4.092   1.228  13.435  0.1423  0.0399 -0.2714
 8482TIP3    H146861   4.133   1.187  13.512 -0.4263  1.4571  0.8164
 8482TIP3    H246862   4.117   1.320  13.441 -1.3477  0.4936 -0.8188
 8483TIP3   OH246863   2.243   2.732  14.382  0.1853 -0.3755  0.2288
 8483TIP3    H146864   2.307   2.669  14.349  1.0851  0.6579 -0.0459
 8483TIP3    H246865   2.162   2.711  14.335  0.9632 -0.1339 -1.2760
 8484TIP3   OH246866   3.403   4.117  17.227  0.1326 -0.0925  0.0650
 8484TIP3    H146867   3.440   4.203  17.248 -0.2185 -0.3233  1.6126
 8484TIP3    H246868   3.314   4.120  17.260 -1.0045  0.1167 -2.8256
 8485TIP3   OH246869   5.704   1.997  11.715 -0.1915 -0.2654 -1.0160
 8485TIP3    H146870   5.686   2.091  11.721 -0.5428 -0.3341 -0.9725
 8485TIP3    H246871   5.622   1.955  11.743 -0.0648 -0.5838 -1.1199
 8486TIP3   OH246872   6.348   2.656   3.956 -0.6940  0.0801  0.6333
 8486TIP3    H146873   6.419   2.717   3.934 -3.4664  2.8362 -0.9174
 8486TIP3    H246874   6.342   2.661   4.051  0.1895  0.9616  0.6549
 8487TIP3   OH246875   0.950   3.611  12.755  0.5007  0.5635 -0.0718
 8487TIP3    H146876   0.921   3.591  12.666 -1.6687  0.0527  0.7253
 8487TIP3    H246877   1.045   3.602  12.751  0.4282  0.3915 -2.2957
 8488TIP3   OH246878   5.881   2.792   1.784 -0.7651  0.0953  0.1111
 8488TIP3    H146879   5.924   2.806   1.699 -1.0368  1.1697  0.1379
 8488TIP3    H246880   5.791   2.768   1.761 -1.2749  1.9326  0.0974
 8489TIP3   OH246881   6.026   3.312   3.737 -0.0724  0.0207  0.5417
 8489TIP3    H146882   6.102   3.370   3.736 -0.6033  0.7146 -0.8530
 8489TIP3    H246883   5.976   3.336   3.659  0.1524 -2.9391 -0.5993
 8490TIP3   OH246884   1.884   5.294  15.924  0.1235 -0.2628  0.5445
 8490TIP3    H146885   1.943   5.242  15.869 -1.1530  0.5972 -1.7087
 8490TIP3    H246886   1.831   5.228  15.970  0.6197 -0.9868  0.0921
 8491TIP3   OH246887   1.690   4.773   3.595  0.0176  0.5491  0.0708
 8491TIP3    H146888   1.612   4.821   3.622 -0.2457  0.8519 -1.2127
 8491TIP3    H246889   1.707   4.712   3.667 -1.0161  0.9431  0.6479
 8492TIP3   OH246890   4.637   3.588   1.647 -0.7034 -0.2230 -0.3058
 8492TIP3    H146891   4.639   3.610   1.554 -0.6790  0.4626 -0.1421
 8492TIP3    H246892   4.709   3.638   1.685 -0.5762 -0.6685  0.0473
 8493TIP3   OH246893   3.256   1.707   1.943 -0.3030  0.0317  0.1079
 8493TIP3    H146894   3.346   1.674   1.947  0.1486  1.2831  0.2302
 8493TIP3    H246895   3.202   1.630   1.963  0.6762 -1.0401 -1.2393
 8494TIP3   OH246896   5.775   3.608   4.724 -0.3871  0.2368  0.4241
 8494TIP3    H146897   5.797   3.652   4.642 -1.2136  2.2805  1.2603
 8494TIP3    H246898   5.810   3.665   4.792  0.9927 -1.8278  1.5087
 8495TIP3   OH246899   0.424   0.146  12.920 -0.5339 -0.5724  0.1286
 8495TIP3    H146900   0.366   0.104  12.856  0.4075  0.1272 -1.2374
 8495TIP3    H246901   0.459   0.222  12.873  2.8226 -1.9268  0.2625
 8496TIP3   OH246902   0.350   2.651   3.987 -0.9529 -0.2470 -0.2065
 8496TIP3    H146903   0.327   2.739   4.017  0.4923 -0.1065  0.5516
 8496TIP3    H246904   0.338   2.654   3.893 -1.5880  0.5534 -0.1091
 8497TIP3   OH246905   4.119   4.775  12.514  0.3750  0.1781 -0.6911
 8497TIP3    H146906   4.134   4.708  12.581  0.0618 -0.1725 -0.9651
 8497TIP3    H246907   4.102   4.855  12.563 -0.0967 -0.1300 -0.3444
 8498TIP3   OH246908   3.062   5.344  14.894 -0.6024 -0.0214  0.3162
 8498TIP3    H146909   3.100   5.390  14.819 -0.0150  0.0915  0.6804
 8498TIP3    H246910   2.974   5.381  14.903  0.1601  1.6066  1.1104
 8499TIP3   OH246911   6.738   3.279  16.181 -0.0428  0.5170  0.0050
 8499TIP3    H146912   6.722   3.263  16.274 -0.0590 -1.3636 -0.2941
 8499TIP3    H246913   6.730   3.374  16.170 -0.9149  0.6539  1.7508
 8500TIP3   OH246914   6.077   3.868   6.551  0.6409  0.6115  0.1942
 8500TIP3    H146915   6.077   3.953   6.505 -1.0634 -0.9428 -2.8736
 8500TIP3    H246916   6.165   3.833   6.537  0.9127  1.2650  0.2480
 8501TIP3   OH246917   1.056   3.011   3.496  0.4160 -0.1272 -0.0414
 8501TIP3    H146918   1.134   3.018   3.441  1.5256  0.2250  1.5370
 8501TIP3    H246919   1.062   3.086   3.556 -0.3406 -0.9353  1.0761
 8502TIP3   OH246920   6.152   0.926  12.231 -0.2775 -0.0537  0.0643
 8502TIP3    H146921   6.193   0.841  12.213  1.3278  0.5201  0.8372
 8502TIP3    H246922   6.225   0.988  12.229 -1.2545  1.1348  0.6697
 8503TIP3   OH246923   5.982   2.596   1.068 -0.1136 -0.3841 -0.0009
 8503TIP3    H146924   5.904   2.616   1.017  0.5436 -0.2952 -0.9898
 8503TIP3    H246925   6.053   2.641   1.022  0.2215  1.2345  2.0242
 8504TIP3   OH246926   0.939   3.273   2.467 -0.6634 -0.3056  0.4047
 8504TIP3    H146927   0.981   3.281   2.552 -1.0496  2.9222  0.3623
 8504TIP3    H246928   0.853   3.237   2.486 -0.0912 -1.3013  1.1582
 8505TIP3   OH246929   4.703   4.455  11.209  0.9065  0.0667  0.1741
 8505TIP3    H146930   4.798   4.449  11.200  1.0437  0.5253  1.1864
 8505TIP3    H246931   4.686   4.429  11.300 -0.1475 -2.1222 -0.6149
 8506TIP3   OH246932   1.587   2.375   4.876  0.7453  0.1022 -0.2281
 8506TIP3    H146933   1.545   2.453   4.913  1.5116  0.5616 -0.3175
 8506TIP3    H246934   1.538   2.358   4.795 -0.6804 -0.6708  0.7760
 8507TIP3   OH246935   6.782   0.942  14.506 -0.0564  0.3520  0.8441
 8507TIP3    H146936   6.769   0.960  14.599  1.7800  0.7378  1.0545
 8507TIP3    H246937   6.842   1.010  14.476  0.0252 -0.2566 -0.4245
 8508TIP3   OH246938   4.351   2.230   3.842 -0.2444 -0.3273  0.1817
 8508TIP3    H146939   4.301   2.304   3.875 -2.8334 -1.4253 -1.0425
 8508TIP3    H246940   4.302   2.202   3.764  1.0052 -2.9010  0.2719
 8509TIP3   OH246941   0.562   0.527  11.277 -0.0861  0.4349  0.1080
 8509TIP3    H146942   0.653   0.506  11.296  0.1291  1.5291  0.3313
 8509TIP3    H246943   0.513   0.448  11.300  0.8691 -0.3692 -0.5898
 8510TIP3   OH246944   0.046   4.658  14.294 -0.4310 -0.1308 -0.1279
 8510TIP3    H146945   0.005   4.642  14.210  2.3581  1.1767 -1.8192
 8510TIP3    H246946   0.106   4.585  14.306 -0.3200  0.0385  0.3686
 8511TIP3   OH246947   2.962   0.045  13.815 -0.2634  0.8503  0.3427
 8511TIP3    H146948   2.980   0.129  13.773  2.1682  0.3563  0.3390
 8511TIP3    H246949   2.955   0.066  13.908  1.5540  0.9296  0.4916
 8512TIP3   OH246950   0.172   4.940  16.027 -0.4342 -0.4546 -0.3515
 8512TIP3    H146951   0.137   4.851  16.033  0.5457 -0.7624  1.1973
 8512TIP3    H246952   0.253   4.931  15.977  0.2965 -0.6403  0.8479
 8513TIP3   OH246953   3.511   4.266   5.247  0.6582  0.1961  0.0855
 8513TIP3    H146954   3.494   4.240   5.156 -3.4908  1.0694  0.5065
 8513TIP3    H246955   3.509   4.183   5.296  0.9181 -0.0698 -0.3502
 8514TIP3   OH246956   5.765   6.214   0.344  0.0272 -0.2004 -0.3898
 8514TIP3    H146957   5.687   6.174   0.306  1.1446 -1.0186 -1.8880
 8514TIP3    H246958   5.813   6.140   0.382 -0.4355  0.4389  1.5011
 8515TIP3   OH246959   5.216   1.130   1.620 -0.0754  0.2223  0.0556
 8515TIP3    H146960   5.147   1.194   1.632 -0.3567 -0.1093  0.2137
 8515TIP3    H246961   5.190   1.080   1.543 -0.2884 -0.2574  0.4358
 8516TIP3   OH246962   2.475   4.190  14.320  0.0342  0.2790 -0.0334
 8516TIP3    H146963   2.455   4.151  14.405  0.5611  0.0923  0.0058
 8516TIP3    H246964   2.414   4.263  14.312 -0.6135 -0.2407  0.1206
 8517TIP3   OH246965   1.803   1.042  16.109  0.1027  0.4682  0.3041
 8517TIP3    H146966   1.872   1.018  16.047  0.5300  1.1220  0.5116
 8517TIP3    H246967   1.730   1.071  16.055  0.0752  0.0005  0.0851
 8518TIP3   OH246968   6.109   6.562  11.891  0.1293 -0.0013  0.3291
 8518TIP3    H146969   6.139   6.644  11.850 -0.5392  0.7508  1.3084
 8518TIP3    H246970   6.139   6.493  11.832  3.3724  0.7426  1.0209
 8519TIP3   OH246971   3.702   5.892   2.099  0.1004  0.3408  0.0815
 8519TIP3    H146972   3.670   5.898   2.009  1.3211  1.5409 -0.3008
 8519TIP3    H246973   3.792   5.925   2.095  0.2053  0.3306  1.7256
 8520TIP3   OH246974   0.126   1.328  11.452 -0.2587 -0.3525 -0.1727
 8520TIP3    H146975   0.038   1.352  11.480 -0.6771  0.1827 -1.8694
 8520TIP3    H246976   0.113   1.286  11.367  1.1102 -0.3734 -0.3778
 8521TIP3   OH246977   4.636   2.926   1.029  0.5713  0.3230  0.2041
 8521TIP3    H146978   4.729   2.943   1.043  0.5965  0.6370 -0.3328
 8521TIP3    H246979   4.619   2.957   0.940 -0.1957  0.9084  0.5459
 8522TIP3   OH246980   2.470   3.625  12.407  0.3425  0.0029 -0.2106
 8522TIP3    H146981   2.529   3.552  12.386  0.2128 -0.1167 -0.1665
 8522TIP3    H246982   2.431   3.649  12.323 -0.0720 -0.3834 -0.1339
 8523TIP3   OH246983   0.401   4.324   2.112  0.3779  0.3095 -0.1123
 8523TIP3    H146984   0.411   4.398   2.172  1.1676  0.3765 -0.3243
 8523TIP3    H246985   0.433   4.248   2.161  1.0645  0.3718 -0.4630
 8524TIP3   OH246986   6.526   1.580   1.393  0.2805 -0.2959 -0.0948
 8524TIP3    H146987   6.531   1.665   1.437  0.7951 -0.5782  0.4063
 8524TIP3    H246988   6.565   1.519   1.456  2.4007 -0.4690 -1.5314
 8525TIP3   OH246989   2.042   0.187  11.521  0.1873 -0.0682 -0.1123
 8525TIP3    H146990   1.964   0.232  11.489 -0.5089 -0.8994  0.3887
 8525TIP3    H246991   2.102   0.258  11.548 -0.8459  0.5581  0.5633
 8526TIP3   OH246992   5.747   5.721  16.729  0.1683  0.8531  0.9670
 8526TIP3    H146993   5.780   5.747  16.815  0.2378 -3.6604  2.4209
 8526TIP3    H246994   5.824   5.723  16.672  1.2364 -1.1432  2.2799
 8527TIP3   OH246995   0.110   6.476  14.018  0.8625 -0.1374  0.2972
 8527TIP3    H146996   0.062   6.438  13.944  0.3601  0.4502  0.3184
 8527TIP3    H246997   0.072   6.563  14.029 -0.8496 -1.1603  2.8545
 8528TIP3   OH246998   2.968   2.713  11.782 -0.0152 -0.3998  0.1802
 8528TIP3    H146999   2.904   2.642  11.794  1.3661 -1.7355 -0.1976
 8528TIP3    H247000   2.977   2.752  11.868 -0.1287 -1.2614  0.5890
 8529TIP3   OH247001   1.955   5.917   5.616  0.2104  0.4146  0.2876
 8529TIP3    H147002   2.014   5.877   5.680 -1.4080 -2.9699 -0.1840
 8529TIP3    H247003   1.871   5.921   5.661 -0.0589  1.6710 -0.3141
 8530TIP3   OH247004   1.656   0.030   5.887  0.2814  0.2508  0.0801
 8530TIP3    H147005   1.605  -0.047   5.912  3.3091 -1.7634  0.3560
 8530TIP3    H247006   1.703   0.054   5.967 -2.0273  3.6351  0.5423
 8531TIP3   OH247007   4.201   2.277  14.131  0.5708  0.2408  0.5300
 8531TIP3    H147008   4.128   2.291  14.191  0.2365 -1.1550  0.4697
 8531TIP3    H247009   4.227   2.365  14.104  0.7152  0.8840  2.6781
 8532TIP3   OH247010   3.395   0.347   3.381 -0.3975 -0.1331 -0.3153
 8532TIP3    H147011   3.398   0.252   3.365  0.0165 -0.2042  0.1835
 8532TIP3    H247012   3.340   0.381   3.310 -0.1346 -0.6818 -0.7865
 8533TIP3   OH247013   5.043   4.413  13.263  0.2237 -0.2215  0.4285
 8533TIP3    H147014   4.978   4.343  13.268  0.4025 -0.2885  2.0444
 8533TIP3    H247015   5.058   4.425  13.170 -0.3909 -1.7947  0.1145
 8534TIP3   OH247016   6.030   4.496   3.233 -0.4038  0.1349  0.3293
 8534TIP3    H147017   6.112   4.537   3.205 -0.3231  0.0587  0.4525
 8534TIP3    H247018   6.001   4.550   3.307 -0.8208  0.5684 -0.1566
 8535TIP3   OH247019   5.744   4.924   2.148 -0.0950 -0.1762 -0.1427
 8535TIP3    H147020   5.728   4.908   2.055 -1.7813 -1.2465  0.3116
 8535TIP3    H247021   5.757   4.836   2.186  0.7259  0.2562  0.6150
 8536TIP3   OH247022   5.842   3.654   0.139  0.2440  0.4124  0.3837
 8536TIP3    H147023   5.855   3.564   0.109 -0.4743  1.2180 -2.4681
 8536TIP3    H247024   5.776   3.647   0.208  0.5038 -1.2922  0.4869
 8537TIP3   OH247025   6.275   1.807  13.235 -0.5755  0.2817 -0.9387
 8537TIP3    H147026   6.197   1.807  13.290 -0.2354  1.6168 -0.4441
 8537TIP3    H247027   6.326   1.731  13.264 -0.3009  1.0851  0.7309
 8538TIP3   OH247028   0.357   2.515   6.746 -0.0020  0.0909 -0.4805
 8538TIP3    H147029   0.263   2.521   6.731  0.0431 -0.5070 -1.0151
 8538TIP3    H247030   0.395   2.590   6.700 -0.4626  1.9064  1.9935
 8539TIP3   OH247031   1.244   3.673  11.363  0.1858 -0.2519 -0.3919
 8539TIP3    H147032   1.338   3.666  11.343  0.0868  0.1555 -1.0266
 8539TIP3    H247033   1.208   3.720  11.287 -0.1126  1.9063  1.0410
 8540TIP3   OH247034   2.882   3.529   4.947 -0.7298 -0.2499 -0.2419
 8540TIP3    H147035   2.835   3.594   4.895  0.4796  0.0456 -0.9895
 8540TIP3    H247036   2.938   3.580   5.005  0.0116 -0.6102 -0.6327
 8541TIP3   OH247037   0.010   4.728  15.116  0.0053 -0.2607  0.1829
 8541TIP3    H147038  -0.019   4.752  15.028  1.1789  0.0872 -0.1299
 8541TIP3    H247039  -0.024   4.798  15.172 -3.0469 -1.8748  0.4513
 8542TIP3   OH247040   5.359   3.469   3.883  0.2183 -0.0993 -0.1806
 8542TIP3    H147041   5.407   3.386   3.883  0.7970  0.2198 -1.5670
 8542TIP3    H247042   5.410   3.527   3.826 -0.6564  0.9328  0.0532
 8543TIP3   OH247043   2.545   4.194   3.517  0.0885  0.2797  0.6310
 8543TIP3    H147044   2.510   4.267   3.466  3.0621  0.5656 -1.1152
 8543TIP3    H247045   2.502   4.117   3.481 -0.6652  0.8475  0.2993
 8544TIP3   OH247046   5.374   5.934  17.199 -0.2245 -0.9503 -0.0331
 8544TIP3    H147047   5.449   5.892  17.241  0.7675  0.5595 -0.2790
 8544TIP3    H247048   5.340   5.994  17.265  0.0509 -0.1147 -0.6488
 8545TIP3   OH247049   5.909   1.175  12.102  0.0245  0.4591  0.2359
 8545TIP3    H147050   5.926   1.110  12.171 -1.8018 -0.1753  0.1085
 8545TIP3    H247051   5.980   1.162  12.039  1.4079  0.6678  1.7079
 8546TIP3   OH247052   5.640   5.249   0.434  0.6846  0.2496 -1.0342
 8546TIP3    H147053   5.657   5.171   0.487  0.9654 -0.3327 -1.9836
 8546TIP3    H247054   5.726   5.289   0.422  0.4226  1.2328  0.2500
 8547TIP3   OH247055   1.965   3.713   2.778 -0.2737 -0.5476  0.1465
 8547TIP3    H147056   1.963   3.622   2.807 -2.3457 -1.0514 -1.4403
 8547TIP3    H247057   1.998   3.709   2.688  1.4503  0.4765  0.7133
 8548TIP3   OH247058   6.270   1.071  10.770  0.3029  0.0186  0.3482
 8548TIP3    H147059   6.329   1.058  10.844  0.6953 -2.4505 -0.3510
 8548TIP3    H247060   6.253   0.983  10.737 -2.5975  0.7897 -0.4098
 8549TIP3   OH247061   3.311   0.678  13.762  0.0909  0.2552 -0.8663
 8549TIP3    H147062   3.297   0.750  13.823 -0.1938 -0.3338 -0.2307
 8549TIP3    H247063   3.406   0.678  13.745  0.4247 -0.6637  0.9330
 8550TIP3   OH247064   5.562   5.328  15.172 -0.2195  0.4113 -0.2019
 8550TIP3    H147065   5.656   5.342  15.158 -0.6662  2.8161 -1.0665
 8550TIP3    H247066   5.555   5.236  15.196  2.2353 -0.1240 -1.3238
 8551TIP3   OH247067   5.308   3.373  10.729  0.2456  0.3908 -0.1968
 8551TIP3    H147068   5.268   3.333  10.806 -0.1759  1.2306  0.0292
 8551TIP3    H247069   5.296   3.308  10.659 -0.2105  0.0212  0.2233
 8552TIP3   OH247070   3.116   0.617  16.848 -0.0753 -0.0748  0.0283
 8552TIP3    H147071   3.151   0.530  16.865  1.6893  0.6043 -0.0647
 8552TIP3    H247072   3.023   0.611  16.873  0.0381 -1.9558  0.0317
 8553TIP3   OH247073   0.869   6.611  12.805 -0.8013  0.0693  0.0234
 8553TIP3    H147074   0.880   6.705  12.816 -0.1184 -0.0730  0.5957
 8553TIP3    H247075   0.782   6.601  12.767 -0.2117  1.0333 -1.6227
 8554TIP3   OH247076   0.092   0.883   4.399 -0.4117 -0.0053 -0.5604
 8554TIP3    H147077   0.110   0.807   4.454 -0.2818  0.6983  0.3822
 8554TIP3    H247078   0.101   0.958   4.458  2.5659  0.9919 -2.1387
 8555TIP3   OH247079   4.775   1.958   2.059  0.3407 -0.3310  0.3822
 8555TIP3    H147080   4.777   1.874   2.013  0.3616 -0.7696  1.1777
 8555TIP3    H247081   4.853   2.003   2.029 -0.0388 -0.3021 -0.5889
 8556TIP3   OH247082   5.076   3.685   2.407 -0.1869  0.6627  0.3669
 8556TIP3    H147083   5.019   3.734   2.466  0.3397  1.1897  0.4418
 8556TIP3    H247084   5.160   3.731   2.410  0.6953 -0.9481  1.3872
 8557TIP3   OH247085   3.828   2.829  14.805  0.3021  0.0729 -0.1041
 8557TIP3    H147086   3.821   2.805  14.897 -0.2490  0.2680 -0.0955
 8557TIP3    H247087   3.917   2.865  14.797 -0.0953  1.2677  0.6457
 8558TIP3   OH247088   2.684   1.335   4.054  0.1972  0.4121  0.0582
 8558TIP3    H147089   2.664   1.429   4.052  0.3561  0.4389 -0.5270
 8558TIP3    H247090   2.670   1.306   3.964  0.8654  0.0275  0.0716
 8559TIP3   OH247091   1.313   5.627  12.745 -0.0157  0.7771 -0.2607
 8559TIP3    H147092   1.352   5.714  12.738  0.9639  0.1549 -3.1676
 8559TIP3    H247093   1.219   5.644  12.749  0.2424  2.0231  0.9453
 8560TIP3   OH247094   3.290   4.617  13.965  0.2937 -0.2331 -0.0355
 8560TIP3    H147095   3.376   4.651  13.941 -0.0766  0.4450 -0.3968
 8560TIP3    H247096   3.246   4.690  14.008  0.2107 -0.8391  0.9147
 8561TIP3   OH247097   2.230   0.876  11.108 -0.1733  0.7357  0.9181
 8561TIP3    H147098   2.168   0.946  11.125 -1.7402 -0.7503  1.4981
 8561TIP3    H247099   2.228   0.865  11.013 -1.7126 -0.0788  1.0235
 8562TIP3   OH247100   6.367   4.243   0.296 -0.6787 -0.2847  0.8576
 8562TIP3    H147101   6.355   4.189   0.218  0.9372 -0.1453  0.4818
 8562TIP3    H247102   6.342   4.331   0.268  0.3948 -0.1380  0.3257
 8563TIP3   OH247103   3.728   6.624  15.000  0.5705  0.2118  0.0855
 8563TIP3    H147104   3.769   6.593  14.919  2.5388  2.2127  0.2736
 8563TIP3    H247105   3.640   6.587  14.997  0.1527  1.2539 -3.6258
 8564TIP3   OH247106   3.344   4.123   6.721  0.3538 -0.0879  0.0899
 8564TIP3    H147107   3.309   4.149   6.807 -1.6075 -0.5677 -0.5330
 8564TIP3    H247108   3.353   4.205   6.673 -0.8365 -0.0337 -0.0601
 8565TIP3   OH247109   4.229   6.493   5.527 -0.1913 -0.3637  0.2454
 8565TIP3    H147110   4.146   6.531   5.553  0.1982  0.4693  0.2687
 8565TIP3    H247111   4.269   6.464   5.609  0.6360  1.4528  0.5035
 8566TIP3   OH247112   5.087   1.958  16.675  0.1550 -0.1908 -0.2787
 8566TIP3    H147113   5.087   1.920  16.588  1.1826 -0.7643 -0.0360
 8566TIP3    H247114   4.997   1.945  16.707  0.2050 -1.4416 -0.6204
 8567TIP3   OH247115   0.842   5.653   4.833  0.1090 -0.4393  0.3665
 8567TIP3    H147116   0.751   5.658   4.803  0.5805 -2.0037 -1.4590
 8567TIP3    H247117   0.891   5.624   4.756  1.8572 -1.6054  1.8637
 8568TIP3   OH247118   0.016   0.267   2.781  0.5926  0.6357 -0.4965
 8568TIP3    H147119   0.011   0.259   2.876  0.0693 -0.5920 -0.6215
 8568TIP3    H247120   0.010   0.361   2.764  0.1414  0.8173  0.6505
 8569TIP3   OH247121   5.554   5.083  11.563  0.6904  0.0677 -0.1709
 8569TIP3    H147122   5.553   5.044  11.650  0.3910 -1.5206 -0.8597
 8569TIP3    H247123   5.600   5.018  11.509 -0.5252  0.3002 -1.5116
 8570TIP3   OH247124   5.721   2.140   2.220 -0.0602 -0.0071 -0.2871
 8570TIP3    H147125   5.664   2.064   2.232 -0.1139 -0.1712 -1.5670
 8570TIP3    H247126   5.697   2.174   2.134  0.3671  1.1234  0.0362
 8571TIP3   OH247127   2.306   2.168  10.618  0.3140 -0.1441  0.5231
 8571TIP3    H147128   2.324   2.260  10.641 -0.2738 -0.2089  1.2714
 8571TIP3    H247129   2.388   2.136  10.581  0.1781  1.0244 -0.8222
 8572TIP3   OH247130   2.765   3.462  16.778 -0.4395  0.5209  0.8878
 8572TIP3    H147131   2.762   3.428  16.867  0.2756  0.3165  0.8395
 8572TIP3    H247132   2.727   3.393  16.724 -0.5304  0.4916  0.9903
 8573TIP3   OH247133   3.277   2.930   1.473 -0.3718  0.1028 -0.5572
 8573TIP3    H147134   3.190   2.939   1.510 -0.5781 -2.1250 -0.4625
 8573TIP3    H247135   3.286   3.006   1.415 -2.2234  0.5327 -0.3174
 8574TIP3   OH247136   1.640   5.584   4.293  0.0541  0.5582 -0.2229
 8574TIP3    H147137   1.602   5.651   4.237  0.7253  0.9294 -0.2397
 8574TIP3    H247138   1.650   5.508   4.237  0.4543  0.8370 -0.5244
 8575TIP3   OH247139   5.037   4.578  14.518  0.3455 -0.2278  0.3808
 8575TIP3    H147140   4.979   4.653  14.531 -0.3623 -0.3129 -2.0886
 8575TIP3    H247141   4.978   4.506  14.496  1.2258 -0.8847  0.1452
 8576TIP3   OH247142   2.203   4.368   5.274 -1.0959 -0.1131 -0.0707
 8576TIP3    H147143   2.200   4.291   5.217  1.2264  0.9413 -1.7081
 8576TIP3    H247144   2.178   4.441   5.217 -1.2406  0.6292  0.9185
 8577TIP3   OH247145   5.376   2.742  12.265  0.0263 -0.6219  0.6443
 8577TIP3    H147146   5.384   2.792  12.346 -0.4623  1.6164 -0.6716
 8577TIP3    H247147   5.286   2.754  12.237  0.3291 -0.9609 -0.5107
 8578TIP3   OH247148   2.396   2.647   5.189 -0.4412  0.2056 -0.1680
 8578TIP3    H147149   2.437   2.562   5.208  0.2279  0.3877 -0.7778
 8578TIP3    H247150   2.318   2.625   5.138 -0.1708 -0.0284 -0.4790
 8579TIP3   OH247151   1.100   0.340  11.321  0.2709  0.4647  0.7543
 8579TIP3    H147152   1.147   0.264  11.354  0.0258  1.1446  2.7620
 8579TIP3    H247153   1.168   0.402  11.294  0.5047  0.6487  1.7680
 8580TIP3   OH247154   3.917   6.530   0.159  0.6547  0.1612 -0.7305
 8580TIP3    H147155   3.940   6.440   0.135 -1.3653 -0.5462 -0.1097
 8580TIP3    H247156   3.831   6.544   0.120 -0.4083  0.7517  1.7372
 8581TIP3   OH247157   5.376   4.023   1.812 -0.2622  0.2896 -0.1159
 8581TIP3    H147158   5.353   4.073   1.891  1.9042  2.7043 -0.9555
 8581TIP3    H247159   5.469   4.003   1.822 -0.7023 -2.1062 -0.6344
 8582TIP3   OH247160   0.708   0.389  16.779  0.0109  0.3764 -0.6047
 8582TIP3    H147161   0.779   0.373  16.716 -0.6583  1.5724 -1.7082
 8582TIP3    H247162   0.753   0.402  16.863  0.9499 -0.8102 -0.9063
 8583TIP3   OH247163   1.003   0.667  11.034  0.3266  0.3121  0.1520
 8583TIP3    H147164   0.933   0.608  11.008 -0.3223 -0.2331  3.0421
 8583TIP3    H247165   1.018   0.721  10.956 -0.2817 -2.4208 -1.9574
 8584TIP3   OH247166   4.828   3.807  15.268  0.4671  0.3941  0.0564
 8584TIP3    H147167   4.815   3.712  15.275  0.3273  0.3579 -0.7363
 8584TIP3    H247168   4.831   3.824  15.174 -1.6474  1.4736  0.1614
 8585TIP3   OH247169   1.543   5.705   1.233  0.0217 -0.5828 -0.4614
 8585TIP3    H147170   1.527   5.640   1.164 -0.2826  0.1006 -1.0497
 8585TIP3    H247171   1.610   5.763   1.195 -0.5899  0.1554 -0.4339
 8586TIP3   OH247172   5.356   0.109   3.076  0.0641 -0.5096  0.7682
 8586TIP3    H147173   5.290   0.059   3.028 -1.4732  0.0479  2.1959
 8586TIP3    H247174   5.363   0.192   3.029 -1.6126  0.1313  1.5863
 8587TIP3   OH247175   4.726   0.187   0.679  0.6375 -0.1811 -0.5780
 8587TIP3    H147176   4.798   0.128   0.657  1.8441  1.8102 -2.0393
 8587TIP3    H247177   4.705   0.231   0.597 -0.5291  1.1461  0.4146
 8588TIP3   OH247178   5.210   3.891   0.247 -0.0798  0.5262  0.0449
 8588TIP3    H147179   5.289   3.895   0.192 -0.3487 -0.9561 -0.4527
 8588TIP3    H247180   5.151   3.957   0.209 -0.9875 -1.7263 -2.5934
 8589TIP3   OH247181   2.938   5.447  13.054 -0.5984 -0.3591  0.0695
 8589TIP3    H147182   2.876   5.488  13.114  0.2028  0.1596  0.5449
 8589TIP3    H247183   2.890   5.440  12.971 -1.2787  0.0720  0.4259
 8590TIP3   OH247184   6.090   0.662  11.747  0.0230  0.3092  0.1093
 8590TIP3    H147185   6.074   0.572  11.776 -0.1109 -0.4919 -2.2981
 8590TIP3    H247186   6.013   0.684  11.694  0.5383  1.4748 -0.1805
 8591TIP3   OH247187   0.956   4.284   1.044  0.5375  0.3539  0.3370
 8591TIP3    H147188   0.929   4.262   0.955  0.6097 -0.3671  0.4856
 8591TIP3    H247189   0.902   4.359   1.068 -1.9585 -1.5349  0.9138
 8592TIP3   OH247190   0.592   3.140   5.457  0.4017  0.3208  0.0074
 8592TIP3    H147191   0.531   3.075   5.492 -0.5130  1.4224  0.4795
 8592TIP3    H247192   0.637   3.175   5.534 -0.5110  1.6358 -0.0277
 8593TIP3   OH247193   6.665   0.738   6.889  0.0736 -0.1425  0.1822
 8593TIP3    H147194   6.588   0.773   6.843 -1.5577 -0.0074  2.9125
 8593TIP3    H247195   6.628   0.693   6.965  2.8055  1.0195  2.2312
 8594TIP3   OH247196   1.129   5.097   4.152 -0.2716 -0.3061  0.5055
 8594TIP3    H147197   1.082   5.036   4.209  1.2033 -1.1504  0.8504
 8594TIP3    H247198   1.159   5.166   4.211  1.5137 -1.3335  0.8359
 8595TIP3   OH247199   2.390   2.348  16.666  0.0535 -0.1656  0.7632
 8595TIP3    H147200   2.318   2.288  16.649  0.0481  0.4133 -1.4211
 8595TIP3    H247201   2.469   2.299  16.641  0.0049  0.8886 -1.5401
 8596TIP3   OH247202   3.028   1.369  13.866 -0.4749  1.1938  0.1036
 8596TIP3    H147203   3.107   1.370  13.921  1.0653  1.2983 -2.0461
 8596TIP3    H247204   2.969   1.308  13.910  1.9023 -1.0716  0.3149
 8597TIP3   OH247205   2.937   4.836  14.582  0.5081  0.5209 -0.1357
 8597TIP3    H147206   2.926   4.822  14.676  0.4140  1.3827 -0.0145
 8597TIP3    H247207   2.851   4.817  14.545  0.3047  1.0466  0.0602
 8598TIP3   OH247208   5.459   2.729  15.272  0.1294 -0.0042  0.3850
 8598TIP3    H147209   5.376   2.702  15.234  0.2093 -0.2035  0.3502
 8598TIP3    H247210   5.443   2.733  15.366 -0.1233  0.6803  0.3101
 8599TIP3   OH247211   3.765   5.637  13.522 -0.6834 -0.3320 -0.4706
 8599TIP3    H147212   3.705   5.563  13.511  0.2230 -0.8252 -2.3633
 8599TIP3    H247213   3.781   5.667  13.432  0.2933  1.0795  0.1766
 8600TIP3   OH247214   1.262   2.472   3.887 -0.4899 -0.4813  0.1112
 8600TIP3    H147215   1.348   2.508   3.907 -0.4495  0.1826 -1.1445
 8600TIP3    H247216   1.271   2.378   3.898 -0.1024 -0.2580  1.7310
 8601TIP3   OH247217   1.666   2.026   1.163  0.7915 -0.4711 -0.0676
 8601TIP3    H147218   1.691   2.108   1.120  3.2244 -0.2926  1.5448
 8601TIP3    H247219   1.733   1.963   1.136  0.7139 -1.0988  1.1369
 8602TIP3   OH247220   3.282   3.199   2.978 -0.7209 -0.0399 -0.0617
 8602TIP3    H147221   3.262   3.293   2.978  0.4499  0.2089  1.4480
 8602TIP3    H247222   3.371   3.193   2.944 -0.0747 -0.4553  1.7018
 8603TIP3   OH247223   3.861   6.428  10.523 -0.6699 -0.7734 -0.5488
 8603TIP3    H147224   3.957   6.431  10.522 -0.6645 -0.3281  0.6621
 8603TIP3    H247225   3.838   6.368  10.453  0.4818 -0.3963 -1.2550
 8604TIP3   OH247226   4.849   4.627  13.137  0.0822 -0.0204 -0.7195
 8604TIP3    H147227   4.869   4.604  13.228 -0.7142  0.0032 -0.5345
 8604TIP3    H247228   4.908   4.573  13.085  1.1518  0.5935 -0.1652
 8605TIP3   OH247229   5.013   4.852   5.455 -0.7080 -0.0757 -0.3746
 8605TIP3    H147230   5.043   4.879   5.368 -0.0833 -0.2042 -0.2011
 8605TIP3    H247231   5.033   4.926   5.512  0.0355 -0.4798 -0.1022
 8606TIP3   OH247232   5.141   3.281  12.753  0.4139 -0.2018  0.0964
 8606TIP3    H147233   5.230   3.318  12.758  0.4403  0.0123 -1.5844
 8606TIP3    H247234   5.150   3.207  12.693 -0.6215  0.0447 -0.3668
 8607TIP3   OH247235   2.044   3.720   2.105  0.0406  0.0295  0.2124
 8607TIP3    H147236   2.082   3.740   2.190 -0.0119 -0.6647  0.4018
 8607TIP3    H247237   2.090   3.776   2.043  0.9024 -0.3294  0.5317
 8608TIP3   OH247238   4.276   2.386  15.440 -0.3183 -0.4288  0.0920
 8608TIP3    H147239   4.216   2.409  15.370  0.5102 -0.9131 -0.7871
 8608TIP3    H247240   4.329   2.465  15.454  1.7955 -1.3788 -2.1810
 8609TIP3   OH247241   1.355   5.786  11.802 -0.2779  0.4440 -0.4688
 8609TIP3    H147242   1.429   5.774  11.863 -0.1357 -0.9607 -0.9039
 8609TIP3    H247243   1.386   5.751  11.719 -1.4942 -0.2801 -0.6255
 8610TIP3   OH247244   3.795   3.773  11.993  0.1783  0.6223 -0.0365
 8610TIP3    H147245   3.735   3.794  11.922  0.4913 -1.0904 -0.8187
 8610TIP3    H247246   3.746   3.712  12.049  0.0646  1.6714  1.0401
 8611TIP3   OH247247   5.529   1.466   4.330 -0.7424  0.0995  0.5118
 8611TIP3    H147248   5.480   1.538   4.370  0.1898  0.9004  0.2321
 8611TIP3    H247249   5.518   1.479   4.236 -1.1698 -0.5441  0.4754
 8612TIP3   OH247250   4.380   2.855  16.369 -0.1333  0.0832  0.1655
 8612TIP3    H147251   4.397   2.768  16.333  0.6956 -1.1651  3.4086
 8612TIP3    H247252   4.465   2.899  16.368 -0.0609 -0.0368  0.7724
 8613TIP3   OH247253   4.690   0.416   2.508  0.3941 -0.1945  0.3171
 8613TIP3    H147254   4.713   0.392   2.418 -2.0634  3.8645 -1.5648
 8613TIP3    H247255   4.717   0.341   2.561  2.1300 -2.6125 -3.7566
 8614TIP3   OH247256   2.937   5.868  11.960  0.1320 -0.4851 -0.0030
 8614TIP3    H147257   2.883   5.944  11.938  0.9715  0.0841 -0.1302
 8614TIP3    H247258   3.027   5.897  11.944  0.5894 -0.8984  1.7909
 8615TIP3   OH247259   6.434   6.628  12.967  0.0328 -0.0718 -0.2085
 8615TIP3    H147260   6.516   6.675  12.952 -0.6583  0.6594 -1.7970
 8615TIP3    H247261   6.423   6.628  13.062  1.1482  1.0595 -0.0700
 8616TIP3   OH247262   0.554   2.279   2.589 -0.1843 -0.0626  0.1140
 8616TIP3    H147263   0.547   2.276   2.494  0.3352  0.2124  0.0662
 8616TIP3    H247264   0.632   2.226   2.609 -0.6710 -0.6753  0.4323
 8617TIP3   OH247265   0.297   2.506  14.755  0.4286 -0.1384 -0.3003
 8617TIP3    H147266   0.338   2.450  14.821  0.2041  1.1583  0.9826
 8617TIP3    H247267   0.203   2.502  14.776  0.4544  1.0463  0.0827
 8618TIP3   OH247268   5.541   3.304   0.989  0.2242 -0.2400  0.1549
 8618TIP3    H147269   5.521   3.247   1.063  1.5867 -2.1616 -0.9067
 8618TIP3    H247270   5.615   3.261   0.944 -0.3076  1.0717 -2.0823
 8619TIP3   OH247271   6.685   0.402   5.792  0.0092 -0.3373 -0.4094
 8619TIP3    H147272   6.768   0.416   5.744  0.2975  1.4024  0.5867
 8619TIP3    H247273   6.618   0.441   5.736  0.4692  2.6371  1.0198
 8620TIP3   OH247274   3.031   4.573  12.574  0.2668  0.5176  0.5978
 8620TIP3    H147275   2.973   4.566  12.499  0.3169  0.2945  0.5816
 8620TIP3    H247276   3.100   4.509  12.559 -0.9965 -1.2059  1.9874
 8621TIP3   OH247277   2.594   0.578  11.000 -0.0091 -0.4445 -0.7293
 8621TIP3    H147278   2.628   0.538  10.921 -2.4472 -0.5333 -1.7966
 8621TIP3    H247279   2.604   0.672  10.987 -1.0277 -0.4289 -1.4700
 8622TIP3   OH247280   1.782   1.226   2.299 -0.2379  0.3090  0.2669
 8622TIP3    H147281   1.804   1.236   2.206 -0.1597 -2.2500 -0.0095
 8622TIP3    H247282   1.832   1.296   2.342  0.5932  0.8361 -1.4907
 8623TIP3   OH247283   2.234   4.684   0.541 -0.1864 -0.5550 -0.2875
 8623TIP3    H147284   2.214   4.637   0.622  0.6543 -2.0083 -0.9041
 8623TIP3    H247285   2.328   4.704   0.547 -0.4529  0.7658 -0.1962
 8624TIP3   OH247286   1.657   4.523  14.008 -0.4323  0.3055 -0.1417
 8624TIP3    H147287   1.630   4.562  13.925  0.0346 -0.7682 -0.7905
 8624TIP3    H247288   1.752   4.519  14.004 -0.5318 -2.0073 -0.5767
 8625TIP3   OH247289   4.410   4.039  13.010 -0.1046 -0.2377  0.1849
 8625TIP3    H147290   4.349   4.057  13.081 -0.5316 -1.6230  0.1876
 8625TIP3    H247291   4.459   4.120  12.999 -2.3232  1.1011 -0.1930
 8626TIP3   OH247292   3.791   4.586   3.928 -0.7669 -0.4677  0.3317
 8626TIP3    H147293   3.703   4.552   3.942 -0.6587 -0.4070  1.1418
 8626TIP3    H247294   3.849   4.514   3.951 -0.6063 -0.5635 -0.3639
 8627TIP3   OH247295   1.650   2.996   4.556 -0.2513 -0.1996 -0.1552
 8627TIP3    H147296   1.669   2.930   4.490 -0.4486  0.7976 -1.2088
 8627TIP3    H247297   1.728   3.050   4.560 -1.2199  1.3494 -1.4856
 8628TIP3   OH247298   2.468   1.396  15.590 -0.7497  0.1594 -0.2792
 8628TIP3    H147299   2.460   1.351  15.674  0.4459  1.1538  0.3740
 8628TIP3    H247300   2.444   1.487  15.609  1.1588  0.7492 -0.6462
 8629TIP3   OH247301   1.589   5.588   4.959  0.2692  0.3322 -0.6191
 8629TIP3    H147302   1.622   5.670   4.995 -1.1274  0.5457  0.2196
 8629TIP3    H247303   1.640   5.520   5.003 -0.9498  0.6189  1.2649
 8630TIP3   OH247304   4.252   1.560   2.043  0.2191 -0.2917 -0.1635
 8630TIP3    H147305   4.231   1.532   1.954  2.0066 -0.8033 -0.4351
 8630TIP3    H247306   4.169   1.594   2.077 -0.5024 -0.1594 -1.9896
 8631TIP3   OH247307   2.864   2.216   3.807  0.2937 -0.0686  0.0152
 8631TIP3    H147308   2.893   2.130   3.837 -0.8977  0.0186  1.4822
 8631TIP3    H247309   2.934   2.276   3.834 -2.2011  0.5386  5.8641
 8632TIP3   OH247310   5.038   4.192  15.105  0.2919  0.2190  0.1360
 8632TIP3    H147311   5.082   4.111  15.077 -1.0813 -0.3641 -0.4197
 8632TIP3    H247312   5.019   4.178  15.197 -0.0831 -0.1729  0.0018
 8633TIP3   OH247313   6.618   0.465  15.863 -0.1097  0.2226 -0.3059
 8633TIP3    H147314   6.681   0.519  15.814  0.0869  1.0028  0.8020
 8633TIP3    H247315   6.673   0.405  15.914 -0.2800  0.3337  0.0102
 8634TIP3   OH247316   1.001   6.479  15.665 -0.2859  0.0680 -0.2686
 8634TIP3    H147317   1.043   6.550  15.714  0.3025  0.6756 -1.6280
 8634TIP3    H247318   0.920   6.462  15.713  0.5508  0.2423  1.2479
 8635TIP3   OH247319   4.714   4.846   4.130 -0.1793 -0.3847  0.1379
 8635TIP3    H147320   4.718   4.928   4.081  0.0072 -0.2273  0.4101
 8635TIP3    H247321   4.767   4.784   4.079 -0.8870 -0.5281 -0.4256
 8636TIP3   OH247322   5.245   5.038  13.427 -0.0610  0.2863  0.2815
 8636TIP3    H147323   5.299   5.064  13.353  1.3667 -0.6788  0.9729
 8636TIP3    H247324   5.194   5.116  13.448  0.7169  1.0635 -0.6684
 8637TIP3   OH247325   2.067   4.247  11.681 -0.5222 -0.5028 -0.0894
 8637TIP3    H147326   2.133   4.190  11.721 -1.5067 -0.4732  1.5864
 8637TIP3    H247327   2.047   4.313  11.748 -1.3432  0.2399 -1.0409
 8638TIP3   OH247328   2.139   0.016  14.049  0.3490  0.2687  0.2619
 8638TIP3    H147329   2.114   0.089  14.104  1.1772 -0.8293  2.1515
 8638TIP3    H247330   2.117  -0.062  14.100  0.0202 -0.8082 -1.4617
 8639TIP3   OH247331   3.326   0.542  15.339 -0.1799  0.1063 -0.3064
 8639TIP3    H147332   3.239   0.504  15.328 -0.2796 -0.2571  1.5540
 8639TIP3    H247333   3.386   0.467  15.339 -0.0579  0.1990  0.1963
 8640TIP3   OH247334   3.702   5.206  16.303  0.3573  0.3058 -0.0680
 8640TIP3    H147335   3.627   5.262  16.284 -1.6564 -1.0139  3.3839
 8640TIP3    H247336   3.771   5.266  16.331 -0.2599  1.3609 -0.7897
 8641TIP3   OH247337   4.128   1.744   4.820 -0.2245 -0.3831 -0.2466
 8641TIP3    H147338   4.049   1.779   4.779  0.1643  2.5449  1.3196
 8641TIP3    H247339   4.104   1.735   4.913  0.8145 -0.8967 -0.0257
 8642TIP3   OH247340   3.439   2.785   1.623 -0.3576 -0.2077  0.2660
 8642TIP3    H147341   3.404   2.760   1.708  1.0694  0.8114  1.1659
 8642TIP3    H247342   3.369   2.836   1.582 -1.0894 -0.7990  0.7730
 8643TIP3   OH247343   2.147   3.054   6.461  0.0816 -0.3390  0.3516
 8643TIP3    H147344   2.131   3.018   6.548 -0.0100 -2.1860 -0.4150
 8643TIP3    H247345   2.060   3.079   6.428 -0.1612 -1.7836 -0.1225
 8644TIP3   OH247346   5.422   5.843   5.320  0.0805  0.5087 -0.3703
 8644TIP3    H147347   5.367   5.860   5.396 -0.7563  1.6286 -1.2095
 8644TIP3    H247348   5.498   5.797   5.355 -2.4649 -3.2088  0.4942
 8645TIP3   OH247349   4.984   2.373  12.053  0.1976 -0.1673 -0.1621
 8645TIP3    H147350   4.899   2.353  12.012  0.1030  0.2208 -0.1494
 8645TIP3    H247351   4.961   2.405  12.140  0.4330 -1.9538  0.5808
 8646TIP3   OH247352   6.500   3.719   4.195  0.7660 -0.3966  0.1286
 8646TIP3    H147353   6.469   3.737   4.283  1.1033 -0.7090  0.3145
 8646TIP3    H247354   6.532   3.629   4.199 -0.0164 -0.7167 -0.5325
 8647TIP3   OH247355   1.558   6.474   5.215 -0.2251  0.0801  0.1556
 8647TIP3    H147356   1.573   6.387   5.252 -0.0258 -0.4910 -1.2544
 8647TIP3    H247357   1.644   6.515   5.211 -0.2553  0.1653  0.3809
 8648TIP3   OH247358   4.279   0.331   1.928  0.6297  0.0646 -0.6006
 8648TIP3    H147359   4.367   0.330   1.964 -0.2113  1.5594  1.5610
 8648TIP3    H247360   4.235   0.256   1.969  0.1167  0.8760  0.3358
 8649TIP3   OH247361   2.771   0.107  15.012 -0.2543 -0.8143  0.0661
 8649TIP3    H147362   2.775   0.030  14.956  0.0077 -0.9467  0.2703
 8649TIP3    H247363   2.781   0.074  15.101  1.6236 -0.3679  0.0414
 8650TIP3   OH247364   3.517   4.771  12.760 -0.3848  0.0015  0.3978
 8650TIP3    H147365   3.563   4.687  12.762 -2.2625 -1.0456  1.6536
 8650TIP3    H247366   3.553   4.816  12.684  0.0059 -2.3259 -0.8452
 8651TIP3   OH247367   1.207   4.661  13.764  0.1974  0.3692  0.6496
 8651TIP3    H147368   1.266   4.648  13.690  0.5305  0.8189  0.8318
 8651TIP3    H247369   1.263   4.700  13.832 -0.6284  2.1225  0.3416
 8652TIP3   OH247370   6.724   3.540   3.946  0.2801  0.2555  0.1192
 8652TIP3    H147371   6.704   3.478   3.876  0.6023 -0.4852  0.6852
 8652TIP3    H247372   6.654   3.528   4.010 -1.6462  2.9372 -1.3507
 8653TIP3   OH247373   4.141   6.484   1.547 -0.2898 -0.5245 -0.8024
 8653TIP3    H147374   4.057   6.438   1.551 -1.1790  1.1426  0.1754
 8653TIP3    H247375   4.118   6.577   1.546  1.5560 -0.0038  0.6298
 8654TIP3   OH247376   1.645   0.123  16.714  0.0500  0.2819 -0.1337
 8654TIP3    H147377   1.670   0.196  16.657 -0.7874 -1.0730 -2.2887
 8654TIP3    H247378   1.717   0.116  16.777  0.2069  2.8707  0.0289
 8655TIP3   OH247379   5.858   5.421  12.502 -0.3923 -0.5667 -0.0978
 8655TIP3    H147380   5.847   5.472  12.582  0.0865 -0.2660 -0.2241
 8655TIP3    H247381   5.845   5.484  12.431 -0.0433 -0.6735 -0.2559
 8656TIP3   OH247382   1.711   2.666   0.455 -0.5575  0.4690  0.0531
 8656TIP3    H147383   1.627   2.626   0.474  0.6539 -1.6992  1.0721
 8656TIP3    H247384   1.718   2.739   0.517 -0.5909 -0.9437  1.7460
 8657TIP3   OH247385   5.915   5.414   4.930  0.2930 -0.2925 -0.8990
 8657TIP3    H147386   6.004   5.385   4.949 -0.3828 -1.8020 -0.0220
 8657TIP3    H247387   5.866   5.334   4.914 -0.9743  0.5135 -1.1528
 8658TIP3   OH247388   2.231   6.223  11.896 -0.0615 -0.5716 -0.2370
 8658TIP3    H147389   2.212   6.246  11.987 -1.0049  0.3123 -0.6492
 8658TIP3    H247390   2.302   6.159  11.902  2.2739  2.0204  0.9916
 8659TIP3   OH247391   3.397   2.538   3.246  0.1916  0.3998  0.8851
 8659TIP3    H147392   3.324   2.490   3.206 -0.0668  2.5855 -1.4327
 8659TIP3    H247393   3.475   2.489   3.222 -0.2306  0.0258  0.2637
 8660TIP3   OH247394   1.023   3.194   1.763  0.0194  0.0561 -0.3400
 8660TIP3    H147395   1.081   3.234   1.698 -0.4132 -0.8018 -1.2754
 8660TIP3    H247396   1.042   3.101   1.758 -0.6047 -0.1054  0.1889
 8661TIP3   OH247397   1.887   0.942  14.681  0.6932  0.3720 -0.1238
 8661TIP3    H147398   1.962   0.982  14.637  0.5168 -0.8985 -1.6261
 8661TIP3    H247399   1.844   0.891  14.613 -0.3157 -0.6245  1.2407
 8662TIP3   OH247400   2.346   4.711  11.514 -0.6920  0.0175 -0.4215
 8662TIP3    H147401   2.297   4.791  11.528 -0.6455 -0.1490  0.7031
 8662TIP3    H247402   2.279   4.643  11.507 -0.6502 -0.1580  0.7642
 8663TIP3   OH247403   5.430   6.502  11.857 -0.0316 -0.0381  0.7509
 8663TIP3    H147404   5.431   6.479  11.764  0.3613  0.6572  0.5720
 8663TIP3    H247405   5.353   6.559  11.866 -1.6026 -2.2309  1.3997
 8664TIP3   OH247406   6.644   0.150  15.914 -0.3546 -0.0863 -0.1230
 8664TIP3    H147407   6.733   0.122  15.890 -0.5025  0.8702 -1.8259
 8664TIP3    H247408   6.588   0.077  15.887 -0.5204  0.9731 -2.7551
 8665TIP3   OH247409   0.359   6.120   0.535 -0.4538 -0.0316  0.5196
 8665TIP3    H147410   0.324   6.186   0.595 -2.1086  1.0380 -1.5527
 8665TIP3    H247411   0.282   6.070   0.507  0.4024 -1.0171 -0.1158
 8666TIP3   OH247412   5.887   5.110   1.692  0.2522  0.0559 -0.9654
 8666TIP3    H147413   5.922   5.197   1.714  1.0940 -0.8379  1.3217
 8666TIP3    H247414   5.965   5.056   1.677 -0.2050 -0.9705  0.2861
 8667TIP3   OH247415   6.074   1.515   5.015 -0.6804 -0.6634 -0.1803
 8667TIP3    H147416   6.157   1.506   5.062 -1.8647 -0.2002  2.0797
 8667TIP3    H247417   6.089   1.588   4.955 -0.3474  1.4328  2.3528
 8668TIP3   OH247418   4.636   4.826  14.764 -0.1116  0.9871  0.5420
 8668TIP3    H147419   4.550   4.821  14.724  0.5945 -0.8402 -0.8459
 8668TIP3    H247420   4.620   4.814  14.858 -1.2914  0.0193  0.2270
 8669TIP3   OH247421   5.544   1.304   5.457 -0.6283  0.5931  0.7582
 8669TIP3    H147422   5.457   1.267   5.471 -0.7227 -0.6107 -2.6484
 8669TIP3    H247423   5.603   1.228   5.466 -0.1566  0.9372  0.5597
 8670TIP3   OH247424   3.540   1.710  11.289 -0.4149  0.0740  0.0922
 8670TIP3    H147425   3.598   1.700  11.213 -1.4710 -2.5427 -0.3923
 8670TIP3    H247426   3.453   1.720  11.251 -0.6944  0.9577  0.9333
 8671TIP3   OH247427   2.659   3.126  12.813 -0.2314  0.1969  0.0296
 8671TIP3    H147428   2.731   3.073  12.848  0.0537  1.1971  0.9793
 8671TIP3    H247429   2.676   3.214  12.846 -2.4050  0.2665  1.0041
 8672TIP3   OH247430   4.496   0.394   1.039  0.7521  0.0164 -1.0457
 8672TIP3    H147431   4.420   0.449   1.020  0.1386 -0.6290 -0.4959
 8672TIP3    H247432   4.541   0.439   1.110 -0.3800 -0.7647  0.1899
 8673TIP3   OH247433   6.534   5.962  16.528 -0.1537 -0.3907  0.2883
 8673TIP3    H147434   6.478   5.952  16.450  2.1544 -3.5733 -1.0935
 8673TIP3    H247435   6.616   5.917  16.504  1.1467 -0.1721  4.0410
 8674TIP3   OH247436   1.007   4.915  16.160 -0.3225  0.0955  0.4267
 8674TIP3    H147437   0.926   4.953  16.126 -0.4211 -0.5861 -0.1002
 8674TIP3    H247438   0.977   4.847  16.221 -0.1552 -0.4252 -0.0646
 8675TIP3   OH247439   5.106   5.670   5.224  0.0626  0.3265 -0.4857
 8675TIP3    H147440   5.146   5.749   5.260 -0.8390  0.1674  0.8838
 8675TIP3    H247441   5.179   5.624   5.182  0.9515  0.9638  0.3461
 8676TIP3   OH247442   5.746   3.127  14.329  0.3727  0.5176 -0.4271
 8676TIP3    H147443   5.785   3.048  14.365 -1.8309 -0.8818 -1.0381
 8676TIP3    H247444   5.820   3.180  14.301  2.1404  0.8775  4.4271
 8677TIP3   OH247445   6.376   6.737  17.088 -0.3836 -0.2621  0.3275
 8677TIP3    H147446   6.389   6.780  17.004 -2.3175  0.3116  0.2964
 8677TIP3    H247447   6.321   6.798  17.138 -0.8325 -1.4509  1.3149
 8678TIP3   OH247448   3.758   6.754   1.530  0.3218  0.2765 -0.4528
 8678TIP3    H147449   3.688   6.819   1.528  1.3872  1.4543 -0.1297
 8678TIP3    H247450   3.773   6.731   1.439 -1.9182 -1.5790 -0.4066
 8679TIP3   OH247451   3.579   3.325   2.156  0.2209 -0.0353 -0.0104
 8679TIP3    H147452   3.607   3.327   2.247 -1.7742  0.4057  0.6308
 8679TIP3    H247453   3.647   3.373   2.108  0.9771  0.2441  1.3313
 8680TIP3   OH247454   2.555   0.556  11.642 -0.8013 -0.1045 -0.6809
 8680TIP3    H147455   2.488   0.608  11.686 -0.8265 -0.7812  0.0902
 8680TIP3    H247456   2.510   0.476  11.615 -0.2400 -0.7012  0.1223
 8681TIP3   OH247457   4.787   4.316   6.350 -0.3479  0.6124 -0.1095
 8681TIP3    H147458   4.707   4.264   6.338 -0.8129  1.1310  0.7397
 8681TIP3    H247459   4.770   4.398   6.303 -0.6227  1.0477  0.7606
 8682TIP3   OH247460   6.017   2.435   4.143 -0.3516  0.0509 -0.1976
 8682TIP3    H147461   5.922   2.425   4.142 -0.2675 -0.7972 -0.0662
 8682TIP3    H247462   6.034   2.498   4.213 -1.0328  2.7016 -2.3225
 8683TIP3   OH247463   1.197   0.883   0.605 -0.4273  0.2246  0.1694
 8683TIP3    H147464   1.219   0.909   0.516  0.3194  0.6143  0.4584
 8683TIP3    H247465   1.217   0.790   0.609  0.1146  0.3352  0.0967
 8684TIP3   OH247466   4.389   4.155   4.213  0.2430  0.4862 -0.0101
 8684TIP3    H147467   4.377   4.202   4.295 -0.8292  1.4212 -0.6897
 8684TIP3    H247468   4.372   4.063   4.236 -3.0452  1.0901  0.2145
 8685TIP3   OH247469   1.025   2.643   5.779  0.6254  0.2869  0.0793
 8685TIP3    H147470   1.105   2.603   5.745  0.4033  0.4951 -0.6936
 8685TIP3    H247471   1.048   2.735   5.792  1.6745 -0.3851  3.5307
 8686TIP3   OH247472   3.338   1.085  11.640  0.0583 -0.1818 -0.2060
 8686TIP3    H147473   3.360   1.176  11.623  2.9479 -1.1333 -2.0208
 8686TIP3    H247474   3.326   1.080  11.735 -0.8728  2.2052 -0.1745
 8687TIP3   OH247475   6.706   3.228  13.766 -0.4640 -0.0536  0.0516
 8687TIP3    H147476   6.705   3.205  13.673 -0.5358 -1.4117  0.3815
 8687TIP3    H247477   6.691   3.323  13.767  1.1229  0.2484 -1.3995
 8688TIP3   OH247478   0.351   3.761  11.416 -0.5687 -0.0509  0.5772
 8688TIP3    H147479   0.358   3.728  11.506  0.6788  0.6765  0.7539
 8688TIP3    H247480   0.283   3.827  11.420 -0.4419  0.0576  1.0217
 8689TIP3   OH247481   0.759   6.673   4.001 -0.7745  0.1239 -0.3352
 8689TIP3    H147482   0.825   6.610   4.029 -2.0068 -2.0924 -2.2710
 8689TIP3    H247483   0.687   6.662   4.063 -1.3183 -0.9795 -1.1467
 8690TIP3   OH247484   6.753   2.566  16.039  0.3695 -0.4302 -0.3802
 8690TIP3    H147485   6.703   2.526  15.967 -0.9325 -1.4732  1.0541
 8690TIP3    H247486   6.691   2.627  16.079  0.0936 -1.9774  1.6311
 8691TIP3   OH247487   2.733   1.560   4.556 -0.1000 -0.1759  0.1382
 8691TIP3    H147488   2.725   1.580   4.463 -2.2892 -0.3041  0.2659
 8691TIP3    H247489   2.810   1.608   4.585 -0.5604  1.4924 -1.3098
 8692TIP3   OH247490   3.687   0.505  15.924  0.0348  0.3148  0.4090
 8692TIP3    H147491   3.603   0.515  15.969 -0.1241 -0.6328  0.3365
 8692TIP3    H247492   3.746   0.469  15.990  0.6941  2.0466  0.7707
 8693TIP3   OH247493   3.259   3.053   0.362  0.2513 -0.4124  0.2525
 8693TIP3    H147494   3.213   3.052   0.278 -0.3244 -0.0251  0.5626
 8693TIP3    H247495   3.196   3.089   0.424  1.6539  2.0807  0.2825
 8694TIP3   OH247496   2.552   5.638  14.528 -0.8379 -0.2317 -0.1773
 8694TIP3    H147497   2.478   5.580  14.512  0.9567 -1.9819 -2.4104
 8694TIP3    H247498   2.627   5.580  14.537  1.2022  1.6720 -3.5628
 8695TIP3   OH247499   3.957   0.107  16.409 -0.2370 -0.6976 -0.0985
 8695TIP3    H147500   3.984   0.015  16.416  1.1422 -0.3579 -0.9015
 8695TIP3    H247501   4.030   0.156  16.446 -0.4359  0.1531 -0.8418
 8696TIP3   OH247502   2.767   5.287   6.697  0.0816 -0.3062  0.0479
 8696TIP3    H147503   2.718   5.216   6.655  0.2421 -0.7368  0.5878
 8696TIP3    H247504   2.699   5.342   6.737 -0.2640  1.4750 -2.8331
 8697TIP3   OH247505   0.080   1.037  13.613  0.4099 -0.0094 -0.2660
 8697TIP3    H147506   0.028   0.972  13.564 -0.9444  1.2708 -0.5723
 8697TIP3    H247507   0.026   1.058  13.690  0.3038  1.5532 -0.7422
 8698TIP3   OH247508   2.626   1.656  14.293 -0.0530 -0.6830 -0.1616
 8698TIP3    H147509   2.605   1.680  14.383 -2.5648 -0.2190 -0.8161
 8698TIP3    H247510   2.674   1.574  14.300 -0.1199 -0.5932  1.6074
 8699TIP3   OH247511   4.323   2.422   1.739  0.4797  0.2529  0.2267
 8699TIP3    H147512   4.301   2.369   1.662 -1.7504  0.4274  0.7208
 8699TIP3    H247513   4.381   2.366   1.791  0.8163 -0.4230 -0.8621
 8700TIP3   OH247514   4.613   0.132  13.778  0.2399 -0.0991 -0.1264
 8700TIP3    H147515   4.577   0.184  13.706  0.3634 -0.7482 -0.6524
 8700TIP3    H247516   4.707   0.124  13.758  0.0279 -1.4301 -0.5965
 8701TIP3   OH247517   6.079   1.397  13.301 -0.0307  0.0493  0.2062
 8701TIP3    H147518   6.109   1.421  13.388  0.0499  0.1188  0.1587
 8701TIP3    H247519   6.026   1.318  13.314 -1.1891  0.8499  0.5010
 8702TIP3   OH247520   5.744   0.423  11.699 -0.4683 -0.8534 -0.5276
 8702TIP3    H147521   5.701   0.482  11.637 -0.3831  0.5740  0.7574
 8702TIP3    H247522   5.672   0.379  11.744 -0.6977  2.1564  2.2259
 8703TIP3   OH247523   5.567   5.050  17.137 -0.2778 -0.5881 -0.4321
 8703TIP3    H147524   5.648   5.010  17.105  0.5575  1.2318 -0.6800
 8703TIP3    H247525   5.532   5.097  17.061 -1.1630 -0.7209 -0.1162
 8704TIP3   OH247526   6.542   0.020   5.680  0.0469 -0.5544  0.0085
 8704TIP3    H147527   6.574  -0.016   5.763 -0.0339  1.2225  0.8307
 8704TIP3    H247528   6.620   0.024   5.624  0.2746 -0.9254  0.2955
 8705TIP3   OH247529   0.249   0.723   1.642  0.1732 -0.2338 -0.4686
 8705TIP3    H147530   0.208   0.769   1.714  0.7374 -0.8308  0.2440
 8705TIP3    H247531   0.296   0.791   1.593  0.9399 -0.0388  0.5345
 8706TIP3   OH247532   3.610   3.928  13.164  0.1088 -0.2432  0.1172
 8706TIP3    H147533   3.603   3.990  13.091 -0.2900 -1.1012 -0.5910
 8706TIP3    H247534   3.647   3.979  13.235  0.4972  0.6163 -0.6844
 8707TIP3   OH247535   6.681   3.776  16.660  0.3653  0.4732 -0.0664
 8707TIP3    H147536   6.655   3.696  16.613  2.6596 -0.2430 -0.1521
 8707TIP3    H247537   6.638   3.847  16.611 -2.8677 -0.7693  0.8535
 8708TIP3   OH247538   0.356   4.879  13.792  0.4265  0.0588 -0.2358
 8708TIP3    H147539   0.289   4.915  13.850  1.2427  1.2005  0.0162
 8708TIP3    H247540   0.434   4.932  13.808  1.1370 -0.6524 -1.1976
 8709TIP3   OH247541   2.303   0.827  10.868  1.0192 -0.2255  0.3230
 8709TIP3    H147542   2.246   0.791  10.800  1.4956  1.7050 -1.1410
 8709TIP3    H247543   2.375   0.868  10.820  0.9494  1.8674  1.9218
 8710TIP3   OH247544   4.983   2.973   4.142  0.3537  0.2620  0.4639
 8710TIP3    H147545   4.969   2.910   4.213  0.8048 -0.5859 -0.1813
 8710TIP3    H247546   4.935   3.051   4.168 -0.2799 -0.3840  1.2459
 8711TIP3   OH247547   4.975   2.780   6.552  0.5566  0.2169 -0.1116
 8711TIP3    H147548   4.954   2.760   6.643  0.8433 -1.6484 -0.4371
 8711TIP3    H247549   4.897   2.822   6.518 -0.5687 -1.5189  0.2631
 8712TIP3   OH247550   3.802   5.557   0.166  0.0052 -0.2056 -0.4859
 8712TIP3    H147551   3.743   5.501   0.115 -0.8466  0.9827 -0.8167
 8712TIP3    H247552   3.746   5.597   0.233  0.4214  0.9427 -0.8138
 8713TIP3   OH247553   4.067   3.407   5.910 -0.2426 -0.1543  0.2167
 8713TIP3    H147554   4.019   3.487   5.888 -0.8095 -0.3784  0.6238
 8713TIP3    H247555   3.999   3.343   5.930  0.1074 -1.6543 -3.0673
 8714TIP3   OH247556   6.457   4.831  11.459 -0.1655 -0.0524 -0.2974
 8714TIP3    H147557   6.469   4.736  11.460 -1.2233 -0.2105 -1.5522
 8714TIP3    H247558   6.538   4.865  11.497  0.2918 -1.4452  0.0288
 8715TIP3   OH247559   0.567   3.150  16.802 -0.6553 -0.7246 -0.1547
 8715TIP3    H147560   0.489   3.100  16.825  0.7367 -2.3266  1.1631
 8715TIP3    H247561   0.592   3.196  16.882  0.1425 -0.7738 -0.3617
 8716TIP3   OH247562   4.337   0.643   1.075  0.1454  0.2838 -0.0642
 8716TIP3    H147563   4.368   0.641   1.166  1.8262 -0.5309 -0.6405
 8716TIP3    H247564   4.406   0.690   1.028 -1.2299  1.6582 -0.7507
 8717TIP3   OH247565   0.439   4.554   0.648 -0.4296 -0.6594  0.6891
 8717TIP3    H147566   0.489   4.513   0.578  0.1188 -0.7509  1.1292
 8717TIP3    H247567   0.370   4.603   0.603 -0.2526 -0.9439  0.1040
 8718TIP3   OH247568   4.523   1.797   4.846  0.5134  0.1659 -0.3221
 8718TIP3    H147569   4.603   1.850   4.857  0.3831  0.2121  0.4689
 8718TIP3    H247570   4.472   1.844   4.780  0.4705  0.9597  0.2576
 8719TIP3   OH247571   3.726   5.030   6.451  0.7152 -0.0024 -0.0605
 8719TIP3    H147572   3.721   5.018   6.357 -2.4468 -1.8750  0.2852
 8719TIP3    H247573   3.636   5.053   6.478  1.4737  0.1528  2.5378
 8720TIP3   OH247574   4.416   2.885   4.787 -0.0766  0.2839  0.0159
 8720TIP3    H147575   4.448   2.804   4.747  0.4826 -0.1342  1.2899
 8720TIP3    H247576   4.473   2.954   4.752  1.3860 -0.2824  1.2698
 8721TIP3   OH247577   2.620   2.457  12.130  0.2755  0.0945 -0.7243
 8721TIP3    H147578   2.696   2.400  12.113  0.6405 -0.1757  1.7404
 8721TIP3    H247579   2.644   2.507  12.207 -1.4971  1.0768 -0.7871
 8722TIP3   OH247580   2.694   4.529  15.284  0.3469 -0.1573  0.2313
 8722TIP3    H147581   2.631   4.478  15.335  1.3131 -2.1446 -0.4929
 8722TIP3    H247582   2.658   4.617  15.283 -0.4819 -0.3909  3.0614
 8723TIP3   OH247583   1.969   3.673  16.041 -0.2595 -0.0754 -0.4203
 8723TIP3    H147584   1.952   3.712  16.126  0.6848  1.4463 -0.9056
 8723TIP3    H247585   2.012   3.590  16.060 -3.5483 -1.5917  0.6625
 8724TIP3   OH247586   5.600   3.224   2.604 -0.3134 -0.1774 -0.1394
 8724TIP3    H147587   5.625   3.131   2.605 -0.3370 -0.1817  0.0708
 8724TIP3    H247588   5.515   3.225   2.561 -1.2772 -0.4947  1.6918
 8725TIP3   OH247589   1.650   0.027  12.868 -0.0079  0.1351 -0.0661
 8725TIP3    H147590   1.660   0.036  12.962 -0.9734 -2.7717  0.3895
 8725TIP3    H247591   1.731  -0.017  12.840  0.0363  0.4892 -0.4931
 8726TIP3   OH247592   4.224   4.767   3.930  0.5072 -0.3065  0.1574
 8726TIP3    H147593   4.248   4.754   4.021  0.9733 -0.3778  0.0289
 8726TIP3    H247594   4.307   4.786   3.886  0.1112  1.0076 -0.0336
 8727TIP3   OH247595   2.454   3.630   0.275 -0.4304 -0.2949  0.2182
 8727TIP3    H147596   2.549   3.631   0.292 -0.3102  1.1072 -0.4039
 8727TIP3    H247597   2.436   3.541   0.248  0.6766 -0.6529  0.6013
 8728TIP3   OH247598   1.474   2.761  12.596  0.0215  0.1436  0.2864
 8728TIP3    H147599   1.556   2.796  12.562 -0.3753  1.2552  0.4635
 8728TIP3    H247600   1.407   2.793  12.536 -0.8140  2.9843  2.6138
 8729TIP3   OH247601   2.511   6.345   0.423 -0.2174 -0.2533 -0.2055
 8729TIP3    H147602   2.513   6.329   0.329 -0.2991  1.1354 -0.4452
 8729TIP3    H247603   2.575   6.283   0.458 -1.2611 -1.8359 -0.9900
 8730TIP3   OH247604   1.583   5.037  12.805  0.1988 -0.8394 -0.6458
 8730TIP3    H147605   1.552   5.027  12.715  0.2758  0.0554 -0.7844
 8730TIP3    H247606   1.516   5.091  12.847  0.5683 -0.5779 -0.3909
 8731TIP3   OH247607   3.794   0.636   0.793 -0.0166 -0.6298 -0.1094
 8731TIP3    H147608   3.773   0.543   0.801 -0.0569 -0.6013  0.1424
 8731TIP3    H247609   3.728   0.680   0.847  1.0882 -0.5891  1.2586
 8732TIP3   OH247610   3.535   3.970  12.584  0.6537  0.0332  0.3659
 8732TIP3    H147611   3.549   3.875  12.583 -0.6430 -0.1899  1.9137
 8732TIP3    H247612   3.495   3.989  12.499 -2.3810 -1.3604  1.4042
 8733TIP3   OH247613   2.854   0.082  14.678 -0.0469  0.7549  0.5028
 8733TIP3    H147614   2.829  -0.001  14.718  1.2106 -0.2611 -0.7733
 8733TIP3    H247615   2.773   0.133  14.677 -0.7065 -0.2453  1.7917
 8734TIP3   OH247616   2.802   4.102  11.392 -0.0101  0.0693 -0.2327
 8734TIP3    H147617   2.788   4.171  11.327 -1.1846 -0.3186 -0.4004
 8734TIP3    H247618   2.855   4.037  11.346  0.8649  0.7228 -0.1629
 8735TIP3   OH247619   4.159   4.498   3.218 -0.2388  0.1642 -0.0688
 8735TIP3    H147620   4.149   4.586   3.254 -0.2298 -0.9382  2.7436
 8735TIP3    H247621   4.071   4.476   3.187 -0.7339  0.3653  1.1518
 8736TIP3   OH247622   5.324   4.090  13.292 -0.5170 -0.1192  0.0717
 8736TIP3    H147623   5.274   4.043  13.225 -1.3040  0.9415 -0.0966
 8736TIP3    H247624   5.415   4.081  13.266 -0.8007  0.0104 -0.9655
 8737TIP3   OH247625   5.283   0.222  16.937  0.1544 -0.2150 -0.2075
 8737TIP3    H147626   5.289   0.194  16.845  1.9121 -0.6440  0.0183
 8737TIP3    H247627   5.297   0.143  16.988 -0.3409  0.1082  0.4403
 8738TIP3   OH247628   0.473   4.032   3.683  0.4798  0.2363 -0.4000
 8738TIP3    H147629   0.490   4.124   3.703 -1.4202  0.4699  0.2399
 8738TIP3    H247630   0.378   4.024   3.682  0.6091 -1.9588  0.6735
 8739TIP3   OH247631   0.642   3.865  16.838  0.2892  0.2736 -0.5646
 8739TIP3    H147632   0.725   3.899  16.870 -0.7845  0.4665  2.0949
 8739TIP3    H247633   0.600   3.940  16.795  0.8862  0.5138 -0.7297
 8740TIP3   OH247634   4.671   1.268  15.201  0.6309 -0.3516 -0.4222
 8740TIP3    H147635   4.675   1.317  15.283 -0.0255 -1.1389  0.0960
 8740TIP3    H247636   4.664   1.334  15.133 -0.9748  0.2778  0.3160
 8741TIP3   OH247637   1.235   5.794   3.958 -0.0984  0.6373  0.3432
 8741TIP3    H147638   1.244   5.741   3.879  2.3598  0.0956  0.9329
 8741TIP3    H247639   1.186   5.738   4.018 -0.3017  0.2905 -0.1365
 8742TIP3   OH247640   5.041   4.876   4.188 -0.5447  0.5884  0.2466
 8742TIP3    H147641   4.969   4.813   4.185  0.1466 -0.2533  0.9897
 8742TIP3    H247642   5.110   4.831   4.238  0.8952  0.9778 -1.3415
 8743TIP3   OH247643   2.582   0.136  14.692 -0.0308  0.0919  0.4151
 8743TIP3    H147644   2.547   0.141  14.603  0.4816  0.2044  0.2202
 8743TIP3    H247645   2.525   0.073  14.736 -0.9279  0.8070  0.3072
 8744TIP3   OH247646   6.179   3.952   2.713 -0.1777 -0.2269 -0.0561
 8744TIP3    H147647   6.234   4.027   2.692 -1.2880  0.9019  0.9665
 8744TIP3    H247648   6.238   3.891   2.758  0.4201  0.6325  0.3418
 8745TIP3   OH247649   0.858   4.713   2.872 -0.0843 -0.4559  0.1341
 8745TIP3    H147650   0.905   4.724   2.954  0.4500  0.0168 -0.2230
 8745TIP3    H247651   0.833   4.621   2.870 -0.6097 -0.3359  1.0907
 8746TIP3   OH247652   5.848   6.495  15.393  0.6915  0.3442  0.2691
 8746TIP3    H147653   5.905   6.571  15.384  0.9062  0.2430  0.7583
 8746TIP3    H247654   5.907   6.421  15.407  0.6109 -0.3459 -2.7823
 8747TIP3   OH247655   4.034   1.937  13.647 -0.4439 -0.2138 -0.0681
 8747TIP3    H147656   3.980   1.859  13.659  0.9909 -1.2251 -0.1181
 8747TIP3    H247657   4.070   1.928  13.559 -2.4873  1.9226 -1.2002
 8748TIP3   OH247658   6.514   1.589   2.770  0.6051  0.4687  0.1402
 8748TIP3    H147659   6.420   1.573   2.778  0.7852 -0.2570  0.8500
 8748TIP3    H247660   6.526   1.618   2.679 -0.3787  1.1337  0.2187
 8749TIP3   OH247661   0.202   3.287   5.706 -0.0182  0.1264  0.2934
 8749TIP3    H147662   0.177   3.374   5.673  0.4899 -0.1596 -0.8971
 8749TIP3    H247663   0.294   3.279   5.681 -0.4625 -1.3502 -0.8954
 8750TIP3   OH247664   1.340   3.253   3.511  0.3813 -0.5004 -0.2964
 8750TIP3    H147665   1.305   3.334   3.548  0.2010  0.5413 -2.6564
 8750TIP3    H247666   1.340   3.191   3.584 -0.7322  1.2360  1.2117
 8751TIP3   OH247667   1.821   1.972  11.610 -0.4744  0.1589 -0.1596
 8751TIP3    H147668   1.903   1.938  11.644 -0.2270 -0.4327 -1.3230
 8751TIP3    H247669   1.770   1.995  11.688  1.0117  1.0767  0.5501
 8752TIP3   OH247670   5.208   5.794   0.744  0.1073  0.1546  0.1762
 8752TIP3    H147671   5.258   5.723   0.703 -1.0530 -1.7861  2.0387
 8752TIP3    H247672   5.266   5.827   0.813 -1.2980 -2.5013  2.7395
 8753TIP3   OH247673   3.519   4.004   0.842 -0.0526  0.1915 -0.4455
 8753TIP3    H147674   3.484   4.032   0.757  0.0325  1.5952 -0.0365
 8753TIP3    H247675   3.466   3.928   0.866 -1.7717  1.3159 -0.5793
 8754TIP3   OH247676   6.122   0.207  15.870 -0.1193 -0.4903 -0.1523
 8754TIP3    H147677   6.098   0.182  15.959 -0.7650 -0.6799 -0.3741
 8754TIP3    H247678   6.201   0.260  15.880 -1.7335  1.8507  0.8095
 8755TIP3   OH247679   2.470   3.508  12.800 -0.3782  0.2129  0.1938
 8755TIP3    H147680   2.466   3.596  12.762 -1.4465  0.1282  0.0994
 8755TIP3    H247681   2.530   3.460  12.743  0.7275  1.0515  0.6171
 8756TIP3   OH247682   4.567   2.702   1.167  0.1273  0.0037  0.2544
 8756TIP3    H147683   4.615   2.772   1.123  0.1483 -0.1419  0.0468
 8756TIP3    H247684   4.551   2.636   1.099 -0.7799  0.2651  0.2156
 8757TIP3   OH247685   3.479   1.895   5.363  0.1640  0.0600  0.4601
 8757TIP3    H147686   3.478   1.800   5.377 -0.4251 -0.1102 -0.6516
 8757TIP3    H247687   3.443   1.906   5.275  1.7479  1.2145 -0.0579
 8758TIP3   OH247688   5.327   0.552  13.698  0.1491  0.3614 -0.6877
 8758TIP3    H147689   5.364   0.474  13.741  2.0934  1.7670  0.2472
 8758TIP3    H247690   5.380   0.625  13.730 -1.3310  2.0318 -1.9369
 8759TIP3   OH247691   0.791   3.855   4.646 -0.5741 -0.2054 -0.1251
 8759TIP3    H147692   0.779   3.946   4.675 -1.5726 -0.3323 -0.1195
 8759TIP3    H247693   0.703   3.817   4.649 -0.0442 -1.4169  0.6613
 8760TIP3   OH247694   0.658   0.500  11.661  0.0896  0.5421  0.0410
 8760TIP3    H147695   0.743   0.542  11.653  0.6679 -0.3743  1.1498
 8760TIP3    H247696   0.676   0.418  11.708 -1.3648  0.2590  0.1372
 8761TIP3   OH247697   6.290   1.504  12.029  1.4307 -0.4407  0.3987
 8761TIP3    H147698   6.353   1.445  12.070  0.2328 -1.2504  1.1372
 8761TIP3    H247699   6.205   1.470  12.057  0.7117  3.4568  3.4410
 8762TIP3   OH247700   2.143   0.542  12.586 -0.2984 -0.4451  0.7093
 8762TIP3    H147701   2.075   0.604  12.558  0.6030  0.0975 -0.3121
 8762TIP3    H247702   2.094   0.465  12.615 -1.5329  1.3125  3.5883
 8763TIP3   OH247703   4.390   5.756   4.811 -0.1911 -0.3153 -0.4271
 8763TIP3    H147704   4.431   5.758   4.897 -1.1103 -0.8611  0.0362
 8763TIP3    H247705   4.418   5.838   4.769  0.3868 -0.1246  0.3249
 8764TIP3   OH247706   5.132   2.360   3.979  0.1655  0.2325 -0.0694
 8764TIP3    H147707   5.202   2.425   3.973 -0.7584  1.3192  0.6456
 8764TIP3    H247708   5.088   2.365   3.894  0.1834  0.4455 -0.0667
 8765TIP3   OH247709   2.384   5.532   3.762  0.3553  0.7563 -0.1003
 8765TIP3    H147710   2.345   5.489   3.839  0.1213 -0.4488 -0.8783
 8765TIP3    H247711   2.321   5.519   3.692  1.1827  0.6608 -0.8402
 8766TIP3   OH247712   6.155   3.946  10.388  0.1795  0.2803  0.3895
 8766TIP3    H147713   6.062   3.959  10.404 -0.0732  1.7693 -2.0671
 8766TIP3    H247714   6.195   4.032  10.403  0.8334  0.1735 -0.6436
 8767TIP3   OH247715   2.542   1.116   2.543 -0.0304 -0.3778 -0.1181
 8767TIP3    H147716   2.572   1.089   2.630  1.9993 -0.2954 -0.7717
 8767TIP3    H247717   2.469   1.176   2.561  0.3258 -0.4071  1.5357
 8768TIP3   OH247718   1.540   2.173  14.300  0.3371 -0.0030 -0.7073
 8768TIP3    H147719   1.448   2.187  14.325  0.5200  0.8035 -0.4759
 8768TIP3    H247720   1.545   2.205  14.210  0.9728  2.3826  0.1378
 8769TIP3   OH247721   6.053   6.229  11.685  1.1102 -0.1267  0.4181
 8769TIP3    H147722   6.071   6.151  11.632  0.7398  1.4826 -2.1613
 8769TIP3    H247723   5.970   6.210  11.728  0.6119 -0.8548 -0.8389
 8770TIP3   OH247724   6.437   2.957   6.278 -0.3700 -0.1756 -0.1596
 8770TIP3    H147725   6.504   2.892   6.298 -0.7056 -0.8913 -1.3075
 8770TIP3    H247726   6.440   3.018   6.351  3.5850  1.5016 -1.5590
 8771TIP3   OH247727   1.221   5.902  12.729 -0.2312  0.7267 -0.3376
 8771TIP3    H147728   1.144   5.950  12.758 -0.9557 -0.8445  0.3960
 8771TIP3    H247729   1.223   5.915  12.634 -1.6276  0.4835 -0.4115
 8772TIP3   OH247730   6.475   3.548   5.352  0.1226 -0.2108 -0.0063
 8772TIP3    H147731   6.472   3.621   5.290  1.7668 -0.9960 -1.0751
 8772TIP3    H247732   6.460   3.587   5.438  0.9952  1.3766 -0.5642
 8773TIP3   OH247733   5.929   1.112   5.276 -0.0057  0.0753  0.3010
 8773TIP3    H147734   5.918   1.177   5.206  0.9622 -0.1703 -0.0854
 8773TIP3    H247735   6.015   1.130   5.312 -0.0019 -0.5799  0.6320
 8774TIP3   OH247736   5.926   3.732   1.227 -0.1390  0.6492  0.3930
 8774TIP3    H147737   5.912   3.774   1.312  0.3175 -0.8563  1.2404
 8774TIP3    H247738   5.844   3.745   1.180 -0.2887  1.7589  0.9480
 8775TIP3   OH247739   1.997   0.378  12.324  0.0213 -0.1625 -0.2814
 8775TIP3    H147740   1.962   0.289  12.322  0.3199 -0.3125  0.6848
 8775TIP3    H247741   2.090   0.368  12.305  0.3991 -0.2677  1.4597
 8776TIP3   OH247742   1.586   2.091  13.129 -0.0424 -1.0732  0.6923
 8776TIP3    H147743   1.517   2.118  13.069  0.2221  0.8383  1.2117
 8776TIP3    H247744   1.661   2.146  13.107 -0.2874  0.4658  3.4624
 8777TIP3   OH247745   1.827   2.676   4.992  0.2429 -0.3490  0.0798
 8777TIP3    H147746   1.743   2.630   4.996 -0.1562  0.1834 -1.9868
 8777TIP3    H247747   1.882   2.622   4.935  0.3240  0.8604 -0.9964
 8778TIP3   OH247748   4.655   5.366   1.823  0.1212  0.4255  0.8985
 8778TIP3    H147749   4.598   5.344   1.898  1.4989 -1.3526  1.4474
 8778TIP3    H247750   4.648   5.290   1.765 -0.1327  1.3606 -0.3050
 8779TIP3   OH247751   0.774   3.513   4.119 -0.0834  0.4063  0.0914
 8779TIP3    H147752   0.854   3.461   4.119  0.0299  0.5793  1.1244
 8779TIP3    H247753   0.799   3.598   4.154 -1.1076 -0.1911  2.3746
 8780TIP3   OH247754   3.883   5.476  12.652 -0.1912  0.0656 -0.5713
 8780TIP3    H147755   3.946   5.516  12.592 -1.8936  2.3539 -0.9282
 8780TIP3    H247756   3.906   5.509  12.738 -0.1457 -0.0849 -0.5247
 8781TIP3   OH247757   3.155   3.659  14.264  0.1844  0.5448 -0.1796
 8781TIP3    H147758   3.102   3.642  14.186 -0.6197  1.7683  0.0869
 8781TIP3    H247759   3.241   3.685  14.230  0.6162 -1.3877 -0.6142
 8782TIP3   OH247760   0.074   0.467   4.401  0.1215 -0.1934  0.1779
 8782TIP3    H147761   0.154   0.424   4.431  0.9699 -0.7053 -2.6089
 8782TIP3    H247762   0.084   0.471   4.306 -2.7189  0.6873 -0.1237
 8783TIP3   OH247763   1.286   5.324  10.532  0.3926 -0.6943 -0.3731
 8783TIP3    H147764   1.380   5.306  10.544  0.1886 -0.4879  1.7308
 8783TIP3    H247765   1.247   5.302  10.616 -1.5098 -1.0171 -1.3177
 8784TIP3   OH247766   1.270   5.256   3.173  0.2923 -0.3611  0.0153
 8784TIP3    H147767   1.298   5.335   3.218  1.0806 -1.1849  0.9698
 8784TIP3    H247768   1.288   5.275   3.080 -0.5001  0.9738  0.1141
 8785TIP3   OH247769   0.627   5.127   4.200  0.1306  0.6723 -0.4703
 8785TIP3    H147770   0.588   5.203   4.159  2.4613  2.5334  0.6174
 8785TIP3    H247771   0.590   5.125   4.288  0.6614  1.0071 -0.2396
 8786TIP3   OH247772   6.374   2.621   5.825 -0.4481 -0.0235  0.1957
 8786TIP3    H147773   6.320   2.543   5.815 -0.7022  0.1597  0.1457
 8786TIP3    H247774   6.383   2.633   5.920 -0.3034 -0.1863  0.2017
 8787TIP3   OH247775   5.665   2.367  15.550 -0.1398 -0.2785 -0.2632
 8787TIP3    H147776   5.628   2.351  15.463  0.3070 -1.2801 -0.2797
 8787TIP3    H247777   5.759   2.353  15.538  0.3363  2.6160 -0.3174
 8788TIP3   OH247778   2.520   1.010  16.076 -0.1630  0.5394 -0.0159
 8788TIP3    H147779   2.483   1.018  16.164 -0.0489 -1.3556  0.2092
 8788TIP3    H247780   2.445   1.005  16.018 -0.2678 -1.2737  0.2605
 8789TIP3   OH247781   1.984   4.372   3.379  1.0761 -0.4489  0.2507
 8789TIP3    H147782   2.060   4.426   3.362  0.2289  0.4152 -0.8442
 8789TIP3    H247783   1.944   4.410   3.457  0.3210  0.7032 -0.6826
 8790TIP3   OH247784   6.417   2.612  11.988 -0.2051  0.1862  0.0575
 8790TIP3    H147785   6.322   2.623  11.985 -0.2451  0.1978  1.4398
 8790TIP3    H247786   6.433   2.530  11.941 -0.7054  1.2515 -2.0311
 8791TIP3   OH247787   5.088   4.453   3.336  0.5360  0.2019 -0.0647
 8791TIP3    H147788   5.067   4.542   3.308 -1.0754  0.3097  1.3917
 8791TIP3    H247789   5.168   4.463   3.388  0.2961  0.8163  0.1883
 8792TIP3   OH247790   1.861   3.536  14.237 -0.2043  0.1447 -0.1662
 8792TIP3    H147791   1.865   3.502  14.327 -2.0042  0.7408  0.1592
 8792TIP3    H247792   1.887   3.462  14.182 -1.0478 -0.8434  0.7285
 8793TIP3   OH247793   2.930   1.598   1.049 -0.3108  0.4093 -0.0011
 8793TIP3    H147794   2.983   1.628   0.975  0.4064  0.7767  0.6547
 8793TIP3    H247795   2.841   1.592   1.014  0.4015 -1.7572 -1.5593
 8794TIP3   OH247796   6.124   1.165  15.925 -0.4640 -0.0446 -0.2103
 8794TIP3    H147797   6.147   1.233  15.988 -0.8613 -0.8783  0.8528
 8794TIP3    H247798   6.049   1.119  15.965 -0.0431 -1.2621 -0.7827
 8795TIP3   OH247799   0.229   6.078  12.386 -0.3884 -0.0478  0.5278
 8795TIP3    H147800   0.142   6.054  12.418 -0.1765 -0.5670  0.7245
 8795TIP3    H247801   0.287   6.063  12.460 -0.2433  1.0445  0.6376
 8796TIP3   OH247802   0.627   0.726  13.495 -0.7100  0.0566  0.4732
 8796TIP3    H147803   0.691   0.735  13.565  0.0404 -0.6696 -0.1144
 8796TIP3    H247804   0.665   0.777  13.422 -1.2658  0.4325  0.4460
 8797TIP3   OH247805   4.944   3.160  12.530 -0.0811  0.0980  0.2422
 8797TIP3    H147806   5.014   3.198  12.478 -0.5097  0.5124 -0.0379
 8797TIP3    H247807   4.867   3.213  12.510 -0.8936 -1.4255 -0.8111
 8798TIP3   OH247808   6.558   2.144  15.322  0.1989  0.2028  0.3759
 8798TIP3    H147809   6.537   2.185  15.406  0.5635 -1.6296  1.3983
 8798TIP3    H247810   6.645   2.105  15.336  0.5459  0.4350 -1.0741
 8799TIP3   OH247811   3.486   0.616   3.766  0.5412 -0.0613  0.1498
 8799TIP3    H147812   3.479   0.704   3.729 -1.8386 -0.0521  0.5563
 8799TIP3    H247813   3.523   0.563   3.696 -0.2463  0.7707 -0.8981
 8800TIP3   OH247814   4.638   0.526   0.799  0.1521  0.1833 -0.5409
 8800TIP3    H147815   4.561   0.468   0.799  0.6295 -0.4577 -0.8640
 8800TIP3    H247816   4.681   0.508   0.716  1.1089 -0.0739 -0.0001
 8801TIP3   OH247817   0.543   5.845  10.485 -0.3936 -0.3686 -0.8826
 8801TIP3    H147818   0.499   5.916  10.439 -1.8828 -2.9187 -3.5905
 8801TIP3    H247819   0.488   5.828  10.562 -0.4099  0.8882 -0.6088
 8802TIP3   OH247820   1.428   5.269  11.808  0.5472 -0.7029  0.2164
 8802TIP3    H147821   1.510   5.316  11.821 -0.6897  1.7273 -0.2974
 8802TIP3    H247822   1.399   5.295  11.720 -1.3521 -0.5312  0.8619
 8803TIP3   OH247823   4.878   6.510  16.141  0.3150  0.5763 -0.5447
 8803TIP3    H147824   4.848   6.419  16.136  1.4239  0.2064 -0.4050
 8803TIP3    H247825   4.908   6.522  16.231 -2.6955  2.0066  0.3641
 8804TIP3   OH247826   2.338   6.660  10.839 -0.0749  0.3583 -0.5352
 8804TIP3    H147827   2.429   6.637  10.819  0.1292  0.7609 -0.0757
 8804TIP3    H247828   2.286   6.591  10.797  0.4774 -0.3365 -0.0806
 8805TIP3   OH247829   2.710   3.571  11.827 -0.4667  0.5720 -0.1579
 8805TIP3    H147830   2.715   3.605  11.737 -0.1796  1.9771  0.3688
 8805TIP3    H247831   2.619   3.544  11.837 -0.1932 -0.8513 -1.3012
 8806TIP3   OH247832   1.583   1.593  16.281  0.0330 -0.0203 -0.4918
 8806TIP3    H147833   1.575   1.534  16.356  1.1297 -0.1665 -0.4785
 8806TIP3    H247834   1.493   1.621  16.262 -0.6978 -2.8869 -1.4580
 8807TIP3   OH247835   0.068   5.622  15.718  0.2080 -0.0533  0.0234
 8807TIP3    H147836   0.046   5.659  15.804  2.1036  0.2756  0.3983
 8807TIP3    H247837   0.059   5.528  15.730 -1.4892  0.0971  0.0004
 8808TIP3   OH247838   4.165   4.936  14.820  0.2241 -0.5147  0.0162
 8808TIP3    H147839   4.130   5.004  14.763 -0.1097  0.3304  1.2047
 8808TIP3    H247840   4.124   4.953  14.905  0.9183 -1.5848  0.5733
 8809TIP3   OH247841   1.461   4.385   2.326  0.1587 -0.3737  0.0701
 8809TIP3    H147842   1.369   4.409   2.333 -0.1456 -0.8665 -1.8329
 8809TIP3    H247843   1.460   4.292   2.302  1.1182 -0.2057 -0.6674
 8810TIP3   OH247844   0.949   5.161   4.841 -0.0600 -0.4647 -0.3466
 8810TIP3    H147845   0.862   5.151   4.802  0.9095  0.9978 -2.9750
 8810TIP3    H247846   0.940   5.236   4.899 -0.3650  0.1429 -1.1716
 8811TIP3   OH247847   2.624   0.006   4.870 -0.1574  0.2703  0.3155
 8811TIP3    H147848   2.687   0.017   4.941  0.3072  0.0760 -0.0677
 8811TIP3    H247849   2.591  -0.083   4.881 -0.9106  0.6199  0.9576
 8812TIP3   OH247850   6.305   5.430  16.369 -0.0937 -0.3331  0.1923
 8812TIP3    H147851   6.327   5.522  16.352 -1.2778 -0.0074  0.3969
 8812TIP3    H247852   6.388   5.384  16.358  0.3736  0.6641 -0.6286
 8813TIP3   OH247853   3.424   4.319  12.707 -0.0855  0.0264 -0.5147
 8813TIP3    H147854   3.500   4.333  12.650 -0.2495  0.4107 -0.6426
 8813TIP3    H247855   3.442   4.371  12.785 -1.1927  1.8606 -1.4463
 8814TIP3   OH247856   5.087   2.746  17.029  0.1946 -0.1159 -0.7791
 8814TIP3    H147857   5.156   2.716  16.970 -0.4613 -1.9396 -0.6478
 8814TIP3    H247858   5.123   2.733  17.117  0.7127  1.4863 -0.7371
 8815TIP3   OH247859   5.185   2.323   5.951 -0.0811 -0.2154 -0.3934
 8815TIP3    H147860   5.090   2.322   5.938 -0.0709  0.9270 -0.6293
 8815TIP3    H247861   5.199   2.270   6.030 -0.7800 -1.5222 -1.1302
 8816TIP3   OH247862   4.775   4.491  13.407 -0.2492 -0.0738 -0.3302
 8816TIP3    H147863   4.724   4.553  13.460 -0.5530 -1.6222  1.2439
 8816TIP3    H247864   4.854   4.476  13.459  0.9001  0.7559 -1.8082
 8817TIP3   OH247865   2.355   6.576   2.010  0.4625  0.0311  0.2573
 8817TIP3    H147866   2.360   6.483   2.034  0.4090  0.3129  1.3597
 8817TIP3    H247867   2.284   6.611   2.065  0.7836  0.8287  0.1663
 8818TIP3   OH247868   1.656   5.098  13.170  0.2764  0.1396  1.0159
 8818TIP3    H147869   1.570   5.060  13.153 -0.2686  0.7832  2.2559
 8818TIP3    H247870   1.645   5.144  13.254  1.1708  2.1997  0.0322
 8819TIP3   OH247871   6.644   5.029   5.102  0.0628 -0.3263 -0.6421
 8819TIP3    H147872   6.604   4.943   5.092  0.5575 -0.4941 -1.2124
 8819TIP3    H247873   6.613   5.061   5.186  1.9463 -2.1813  0.8045
 8820TIP3   OH247874   3.712   3.047  11.335 -0.8620 -0.1058  0.4150
 8820TIP3    H147875   3.622   3.016  11.325 -1.2444  0.7639  1.0600
 8820TIP3    H247876   3.719   3.073  11.427  0.5369 -1.6203  0.7584
 8821TIP3   OH247877   1.562   5.213   5.882 -0.1991  0.6700  0.0840
 8821TIP3    H147878   1.561   5.124   5.918  0.9915  0.1533 -1.1134
 8821TIP3    H247879   1.487   5.256   5.922 -0.8536 -0.9069  0.5913
 8822TIP3   OH247880   1.444   0.268  15.922  0.1201  0.3936 -0.1153
 8822TIP3    H147881   1.540   0.266  15.915  0.0408 -0.7463 -0.9238
 8822TIP3    H247882   1.427   0.331  15.992  1.5547 -1.2347  1.7638
 8823TIP3   OH247883   2.251   5.579   5.624  0.5115 -0.1220  0.1482
 8823TIP3    H147884   2.254   5.539   5.712 -1.5181 -2.9191 -0.9617
 8823TIP3    H247885   2.317   5.531   5.574 -1.7083 -1.9461 -1.1142
 8824TIP3   OH247886   6.142   4.803  10.449 -0.0239 -0.0611 -0.5109
 8824TIP3    H147887   6.221   4.753  10.470 -0.7857 -1.2727 -0.4930
 8824TIP3    H247888   6.111   4.764  10.368  1.0828  2.4385 -2.1966
 8825TIP3   OH247889   2.086   0.239   0.558  0.9753 -0.0046  0.2599
 8825TIP3    H147890   2.176   0.217   0.584  0.7849 -1.3522 -0.1829
 8825TIP3    H247891   2.092   0.259   0.465  0.6237 -1.2425 -0.0309
 8826TIP3   OH247892   0.804   5.146   5.158  0.1300  0.4465 -0.1215
 8826TIP3    H147893   0.808   5.053   5.136 -1.1562  0.1408  0.9139
 8826TIP3    H247894   0.720   5.157   5.202 -0.3456  2.3674 -1.4428
 8827TIP3   OH247895   2.876   3.823  12.991 -0.5381 -0.4211 -0.5333
 8827TIP3    H147896   2.944   3.877  12.950 -1.5279  0.4816 -1.0184
 8827TIP3    H247897   2.910   3.734  12.985  0.0479 -0.1294 -1.9279
 8828TIP3   OH247898   3.913   1.867  13.913 -0.8014 -0.0240 -0.5587
 8828TIP3    H147899   3.872   1.801  13.857 -0.4633 -0.1298 -0.6797
 8828TIP3    H247900   3.931   1.821  13.995 -1.2966  0.1308 -0.3547
 8829TIP3   OH247901   5.255   4.085  11.304  0.2994 -0.1882  0.7372
 8829TIP3    H147902   5.281   4.171  11.336  0.6296 -0.0109  0.0088
 8829TIP3    H247903   5.319   4.065  11.236  0.1880 -0.9852  0.8708
 8830TIP3   OH247904   1.063   0.368  12.456  0.0269  0.3651  0.1526
 8830TIP3    H147905   1.092   0.398  12.370  0.2474 -1.4199 -0.4113
 8830TIP3    H247906   0.978   0.328  12.440  0.8024 -1.4466  0.4705
 8831TIP3   OH247907   4.149   1.992  12.138 -0.0691 -0.1552  0.3335
 8831TIP3    H147908   4.236   1.971  12.104 -0.0261 -0.7242  0.7924
 8831TIP3    H247909   4.094   1.919  12.111 -0.6189  0.6331 -0.7349
 8832TIP3   OH247910   3.310   2.953  15.063 -0.1255  0.5659  0.4698
 8832TIP3    H147911   3.365   2.922  14.990 -2.0318 -1.3087 -0.2043
 8832TIP3    H247912   3.275   3.036  15.032  0.0571  0.3762 -0.2730
 8833TIP3   OH247913   3.754   1.321   2.227  0.0537  0.5774  0.3172
 8833TIP3    H147914   3.768   1.229   2.247 -2.4264 -0.0691 -0.7232
 8833TIP3    H247915   3.679   1.346   2.281 -0.6144  1.3957 -0.9661
 8834TIP3   OH247916   4.794   3.851   1.688  0.3537 -0.1311  0.1967
 8834TIP3    H147917   4.719   3.883   1.638 -0.3990 -2.1644 -0.0476
 8834TIP3    H247918   4.863   3.915   1.673 -1.3264  1.8005  0.4315
 8835TIP3   OH247919   1.008   6.157   4.228  0.2919 -0.1078 -0.0926
 8835TIP3    H147920   1.087   6.116   4.261  0.4422  0.9627  0.9169
 8835TIP3    H247921   1.036   6.246   4.203 -0.3233 -0.1323 -0.8861
 8836TIP3   OH247922   0.561   2.532   5.429 -0.2545 -0.7530  0.1369
 8836TIP3    H147923   0.645   2.546   5.473  0.0370 -0.0904 -0.6121
 8836TIP3    H247924   0.505   2.603   5.459  0.0158 -0.1686 -0.7237
 8837TIP3   OH247925   4.271   4.688  13.041 -0.4599  0.0746 -0.3597
 8837TIP3    H147926   4.277   4.621  13.108 -0.3024  0.7772  0.3432
 8837TIP3    H247927   4.362   4.715  13.026 -0.6417  1.1972  0.4693
 8838TIP3   OH247928   6.581   1.575  15.580 -0.2017  0.6075  0.0813
 8838TIP3    H147929   6.541   1.640  15.638  1.1680  2.2634 -0.7661
 8838TIP3    H247930   6.663   1.616  15.552  2.0958 -2.6819  1.7585
 8839TIP3   OH247931   6.566   2.439   5.194 -0.0643  0.1424 -0.1286
 8839TIP3    H147932   6.642   2.385   5.213 -0.6475 -0.3570  0.8750
 8839TIP3    H247933   6.509   2.383   5.142  0.2652  0.5271 -0.9064
 8840TIP3   OH247934   0.245   4.769   0.098  0.8542  0.0516  0.1739
 8840TIP3    H147935   0.209   4.773   0.010  3.2243 -0.8472 -0.8715
 8840TIP3    H247936   0.237   4.678   0.125  1.8290 -0.0523  0.1403
 8841TIP3   OH247937   2.711   1.257   6.288  0.5297 -0.6499  0.7086
 8841TIP3    H147938   2.765   1.336   6.292 -1.8146  1.0044  0.0462
 8841TIP3    H247939   2.674   1.249   6.376 -0.9862  0.2423  0.1585
 8842TIP3   OH247940   3.388   0.830   5.081  0.2322 -0.1248  0.1686
 8842TIP3    H147941   3.310   0.780   5.061  0.8968 -1.2813  0.3961
 8842TIP3    H247942   3.439   0.831   5.000  1.1230 -1.5051  0.6866
 8843TIP3   OH247943   6.256   4.554  11.180 -0.3394  0.8411 -0.3787
 8843TIP3    H147944   6.266   4.489  11.110  0.2104  1.9449 -1.3325
 8843TIP3    H247945   6.262   4.503  11.261 -0.5361 -0.3823 -1.1260
 8844TIP3   OH247946   3.653   4.969   2.141  0.1719  0.2882 -0.1988
 8844TIP3    H147947   3.597   4.948   2.216 -0.5034 -2.1413 -1.3118
 8844TIP3    H247948   3.678   4.884   2.106 -0.0540  1.3465 -3.1046
 8845TIP3   OH247949   0.069   4.454   0.668 -0.4158 -0.1752 -0.5558
 8845TIP3    H147950   0.046   4.406   0.747  2.7606 -0.0847  0.5059
 8845TIP3    H247951   0.004   4.428   0.603 -1.8434 -1.8258  1.4952
 8846TIP3   OH247952   1.871   1.054  15.640 -0.0598 -0.7113 -0.5560
 8846TIP3    H147953   1.899   1.054  15.731 -1.1505 -0.2242 -0.2104
 8846TIP3    H247954   1.904   1.137  15.605 -0.6734 -0.3372 -0.2649
 8847TIP3   OH247955   0.823   5.982   2.401  0.2110 -0.1294 -0.0304
 8847TIP3    H147956   0.909   6.006   2.365  0.2204  1.2796  0.9018
 8847TIP3    H247957   0.787   5.920   2.337  2.3625 -1.5774  0.1177
 8848TIP3   OH247958   4.106   1.086   2.424  0.2451  0.2941  0.4968
 8848TIP3    H147959   4.151   1.145   2.364 -0.0846  0.0557  0.0134
 8848TIP3    H247960   4.108   1.001   2.381 -0.7230  0.2932  0.4309
 8849TIP3   OH247961   2.369   5.133  12.594 -0.7011 -0.1099  0.0361
 8849TIP3    H147962   2.360   5.072  12.667 -2.1302 -0.6001 -0.5513
 8849TIP3    H247963   2.283   5.173  12.584  0.3198  2.4103  0.7321
 8850TIP3   OH247964   3.839   5.429   2.559 -0.5474 -0.7576 -0.0453
 8850TIP3    H147965   3.773   5.417   2.491 -0.9407  0.1069  0.1674
 8850TIP3    H247966   3.889   5.347   2.561 -0.5265 -0.7790 -1.3850
 8851TIP3   OH247967   4.173   6.766   1.039 -0.1073 -0.2743 -0.7388
 8851TIP3    H147968   4.221   6.837   1.082  0.6595  0.0002 -2.0320
 8851TIP3    H247969   4.101   6.810   0.994  0.8330 -0.1910 -2.2127
 8852TIP3   OH247970   5.490   3.953  14.814 -0.7214 -0.0358 -0.0932
 8852TIP3    H147971   5.433   4.025  14.787 -1.5897 -1.2907 -1.7110
 8852TIP3    H247972   5.578   3.981  14.789 -1.0903  0.3811 -0.9555
 8853TIP3   OH247973   3.697   1.699  11.076 -0.4763  0.1996 -0.3399
 8853TIP3    H147974   3.673   1.639  11.006  0.4543 -0.5660 -0.0094
 8853TIP3    H247975   3.736   1.774  11.031 -0.0031 -0.2330 -0.6583
 8854TIP3   OH247976   6.757   5.154   2.507 -1.0746 -0.3024 -0.1444
 8854TIP3    H147977   6.812   5.089   2.550  0.7089  0.8919 -0.5954
 8854TIP3    H247978   6.668   5.129   2.532 -0.4051 -2.6033  0.1059
 8855TIP3   OH247979   6.254   0.752   4.898  0.4210  0.1853 -0.2020
 8855TIP3    H147980   6.274   0.816   4.967  0.5703  0.9036 -0.9042
 8855TIP3    H247981   6.309   0.779   4.825 -0.3209 -0.1005 -0.8654
 8856TIP3   OH247982   2.533   1.804   5.084 -0.6985  0.3727 -0.5158
 8856TIP3    H147983   2.550   1.891   5.049 -1.6737  1.5255  1.7645
 8856TIP3    H247984   2.528   1.817   5.179  0.3487 -2.3653 -0.0228
 8857TIP3   OH247985   6.478   0.586   0.340  0.2036  0.3418 -0.0304
 8857TIP3    H147986   6.522   0.668   0.319 -0.6532  0.4007 -1.6350
 8857TIP3    H247987   6.392   0.613   0.371 -0.4180  0.0035 -1.4647
 8858TIP3   OH247988   3.862   5.711  14.569 -0.2226 -0.1834  0.6637
 8858TIP3    H147989   3.845   5.673  14.483  0.4280  1.9502 -0.4516
 8858TIP3    H247990   3.888   5.636  14.624 -0.6325 -1.5640 -0.9848
 8859TIP3   OH247991   2.734   3.491  15.004  0.3146 -0.0715 -0.6805
 8859TIP3    H147992   2.829   3.487  14.996  0.4128  0.4686  0.2141
 8859TIP3    H247993   2.706   3.400  14.995  0.9582 -0.3040 -0.3663
 8860TIP3   OH247994   1.370   0.059  11.986  0.5245 -0.5336 -0.3585
 8860TIP3    H147995   1.353  -0.009  12.052  0.0465 -1.4674 -1.4438
 8860TIP3    H247996   1.460   0.087  12.004  0.6086 -1.2003  0.3096
 8861TIP3   OH247997   0.856   0.213  15.086 -0.4026  0.1818  0.6185
 8861TIP3    H147998   0.842   0.237  15.178 -2.2526 -0.1943  0.4581
 8861TIP3    H247999   0.823   0.123  15.080  1.0779 -0.3264 -0.0904
 8862TIP3   OH248000   1.857   1.635  12.494  0.2500  0.0313 -0.1073
 8862TIP3    H148001   1.934   1.667  12.446 -1.1728  1.2100 -1.6857
 8862TIP3    H248002   1.873   1.659  12.585  0.8278  2.1242 -0.7336
 8863TIP3   OH248003   1.430   3.726  17.014 -0.0212 -0.2067  0.3785
 8863TIP3    H148004   1.465   3.677  16.939  0.6738  0.6590  0.1232
 8863TIP3    H248005   1.335   3.714  17.008 -0.0981  1.0861 -1.5386
 8864TIP3   OH248006   0.026   5.337   4.283  0.0120  0.6510 -0.1799
 8864TIP3    H148007  -0.026   5.407   4.243  0.1460  0.1815 -1.2046
 8864TIP3    H248008  -0.039   5.273   4.313 -0.1460  1.5344  1.3988
 8865TIP3   OH248009   3.953   4.698  10.645 -0.2520 -0.0580 -0.4507
 8865TIP3    H148010   4.005   4.722  10.721  0.0373 -0.9102 -0.3694
 8865TIP3    H248011   3.968   4.769  10.582  0.7928 -0.1589 -0.3217
 8866TIP3   OH248012   0.844   0.391  17.011  0.1697 -0.1365  0.5719
 8866TIP3    H148013   0.925   0.356  17.047  0.9799 -0.0750 -1.1099
 8866TIP3    H248014   0.851   0.486  17.021  0.9025 -0.0410 -0.7288
 8867TIP3   OH248015   3.938   2.777  13.113 -0.0558  0.3248 -0.7680
 8867TIP3    H148016   4.010   2.745  13.168  0.3656 -0.5212 -1.8008
 8867TIP3    H248017   3.904   2.698  13.070 -1.8094  0.6686 -0.0490
 8868TIP3   OH248018   3.184   5.049  13.690  0.4306  0.5141  0.0441
 8868TIP3    H148019   3.150   4.984  13.629  1.4539 -0.4486  0.4702
 8868TIP3    H248020   3.252   5.095  13.641 -0.8375  1.8257 -0.5158
 8869TIP3   OH248021   4.408   5.368   4.708 -0.6567  0.4923  0.1662
 8869TIP3    H148022   4.386   5.379   4.800  2.8874  0.4828  1.0841
 8869TIP3    H248023   4.411   5.457   4.673 -0.5660  0.5885  0.4224
 8870TIP3   OH248024   4.046   2.453  15.253  0.6176 -0.2872 -0.0626
 8870TIP3    H148025   3.962   2.437  15.297  0.8614  0.2164  0.5698
 8870TIP3    H248026   4.066   2.545  15.270  1.7443 -0.6389  0.5306
 8871TIP3   OH248027   2.608   2.535  14.544 -0.5037 -0.0715  0.0050
 8871TIP3    H148028   2.517   2.560  14.562  0.0125  1.1196  1.0940
 8871TIP3    H248029   2.623   2.458  14.599 -0.5702  0.3082  0.5596
 8872TIP3   OH248030   5.760   3.508  14.759 -0.1426 -0.3831  0.1182
 8872TIP3    H148031   5.762   3.493  14.853  1.7738  0.7762  0.2913
 8872TIP3    H248032   5.696   3.578  14.746 -1.4454 -1.5006  0.3832
 8873TIP3   OH248033   1.349   1.548  14.983 -0.2280 -0.2431  0.9279
 8873TIP3    H148034   1.442   1.541  15.007 -0.3578 -2.4879  0.8664
 8873TIP3    H248035   1.301   1.537  15.065 -0.5131 -2.8689  0.4657
 8874TIP3   OH248036   3.034   0.790   4.561 -0.2625 -0.2657  0.3078
 8874TIP3    H148037   2.954   0.823   4.602  1.4346  2.4890  1.5044
 8874TIP3    H248038   3.082   0.747   4.632 -0.4807 -1.5864 -0.3258
 8875TIP3   OH248039   3.572   3.978  17.052 -0.5685  0.7363  0.1049
 8875TIP3    H148040   3.650   4.018  17.091 -0.7930  1.7486 -0.4685
 8875TIP3    H248041   3.500   4.032  17.084 -0.9713  0.2107  0.0764
 8876TIP3   OH248042   1.215   2.405  13.463  0.2443 -0.2781 -0.0384
 8876TIP3    H148043   1.308   2.383  13.469  0.1519 -0.5916  0.2638
 8876TIP3    H248044   1.208   2.459  13.384  1.1018  1.9129  1.3345
 8877TIP3   OH248045   4.217   4.437   4.985 -0.1316 -0.1833 -0.0329
 8877TIP3    H148046   4.201   4.521   4.942  0.6831 -0.6967 -1.3926
 8877TIP3    H248047   4.260   4.384   4.918  1.1855 -1.0166  1.4430
 8878TIP3   OH248048   1.357   4.428  17.201 -0.5803  0.5940  0.1939
 8878TIP3    H148049   1.439   4.391  17.234 -0.5175  0.9811  0.4845
 8878TIP3    H248050   1.378   4.459  17.113 -0.4635  0.5229  0.1977
 8879TIP3   OH248051   5.308   5.329  15.031 -0.2714 -0.0189  0.1468
 8879TIP3    H148052   5.240   5.293  15.088  0.9440 -0.8936  1.0758
 8879TIP3    H248053   5.389   5.291  15.065  0.7468  1.5342 -0.5211
 8880TIP3   OH248054   3.387   3.856  12.039  0.2105 -0.6875  0.2711
 8880TIP3    H148055   3.357   3.877  11.950  1.2410 -1.7014 -0.3316
 8880TIP3    H248056   3.478   3.829  12.027 -0.3446 -3.1647  1.3096
 8881TIP3   OH248057   3.771   6.067   1.205  0.4787  0.0676 -0.4415
 8881TIP3    H148058   3.703   6.108   1.152 -0.2754 -0.8442 -0.1950
 8881TIP3    H248059   3.780   6.125   1.280 -0.6765 -0.2514 -0.0328
 8882TIP3   OH248060   3.661   3.168  14.946  0.3486 -0.2626 -0.1255
 8882TIP3    H148061   3.699   3.212  14.869 -0.5265 -0.4664 -0.6809
 8882TIP3    H248062   3.612   3.237  14.991  0.5837 -0.2231  0.0753
 8883TIP3   OH248063   2.211   6.437  10.759 -0.5136  0.3743  0.2730
 8883TIP3    H148064   2.240   6.348  10.776 -0.1818  0.3846 -0.2371
 8883TIP3    H248065   2.212   6.445  10.664  1.5362  1.6059  0.3621
 8884TIP3   OH248066   1.196   3.160  15.595 -0.2869 -0.5438  0.3170
 8884TIP3    H148067   1.278   3.112  15.584  0.2780  0.4186  0.2851
 8884TIP3    H248068   1.160   3.128  15.677  0.0889 -1.0275  0.2960
 8885TIP3   OH248069   0.664   2.998   2.568  0.4666  0.5421 -0.5701
 8885TIP3    H148070   0.695   3.081   2.606  0.7759  0.9643 -1.7170
 8885TIP3    H248071   0.656   3.017   2.474 -0.1858 -0.5145 -0.7254
 8886TIP3   OH248072   5.847   6.019   2.582 -0.0321  0.6648  0.3733
 8886TIP3    H148073   5.764   6.065   2.574  0.4452  1.3207 -0.9538
 8886TIP3    H248074   5.873   6.032   2.673 -1.1443  0.8458  0.6756
 8887TIP3   OH248075   4.278   3.238   5.595 -0.9410  0.3721  0.4063
 8887TIP3    H148076   4.275   3.146   5.619 -2.1040 -0.0680 -1.2632
 8887TIP3    H248077   4.306   3.283   5.674 -0.2962 -1.4119  1.2270
 8888TIP3   OH248078   1.343   5.867  14.292  0.0684 -0.0327  0.0489
 8888TIP3    H148079   1.260   5.825  14.272  0.0266 -0.4817  1.1442
 8888TIP3    H248080   1.390   5.869  14.208 -1.0765  0.3120 -0.5906
 8889TIP3   OH248081   4.766   0.805   5.387 -0.7989  0.2321  0.0905
 8889TIP3    H148082   4.780   0.898   5.367 -1.2253  0.6010  1.4254
 8889TIP3    H248083   4.768   0.761   5.302 -1.5291  1.5915 -0.6406
 8890TIP3   OH248084   0.265   6.602   4.702 -0.3856 -0.7329 -0.1161
 8890TIP3    H148085   0.339   6.600   4.642 -0.9014 -0.3097 -0.7696
 8890TIP3    H248086   0.298   6.650   4.778  0.2877 -1.3340 -0.0244
 8891TIP3   OH248087   1.226   4.627  11.474  0.0009 -0.4595 -0.3681
 8891TIP3    H148088   1.233   4.573  11.395  1.5631 -1.5639  0.4933
 8891TIP3    H248089   1.316   4.635  11.506 -0.7340 -0.9357  1.9107
 8892TIP3   OH248090   4.376   2.565   1.366 -0.0283  0.8120  0.0290
 8892TIP3    H148091   4.424   2.618   1.302  0.2671 -0.4363 -0.7915
 8892TIP3    H248092   4.441   2.544   1.433  0.7103 -1.1479 -1.2419
 8893TIP3   OH248093   2.537   5.363  15.463 -0.2243 -0.2256  0.0929
 8893TIP3    H148094   2.631   5.378  15.450 -0.1688  0.0731  0.8150
 8893TIP3    H248095   2.533   5.291  15.526 -0.4519  1.5340  2.1538
 8894TIP3   OH248096   2.012   3.665  13.907 -0.0212  0.0993 -0.4646
 8894TIP3    H148097   2.087   3.641  13.852  0.3421  0.4843 -0.1405
 8894TIP3    H248098   1.944   3.603  13.881  0.1725  0.2155 -1.2858
 8895TIP3   OH248099   4.974   3.499  11.560  0.0258  1.0352 -0.8547
 8895TIP3    H148100   4.947   3.416  11.521 -2.0510  1.9898 -1.5424
 8895TIP3    H248101   5.065   3.485  11.586 -0.6510 -1.8207  0.1018
 8896TIP3   OH248102   4.803   5.026   0.203 -0.0388 -0.0357  0.5593
 8896TIP3    H148103   4.836   4.942   0.169 -0.5570 -0.7982  1.8920
 8896TIP3    H248104   4.715   5.006   0.233  0.6787  0.4088  3.0754
 8897TIP3   OH248105   5.948   1.261   4.560  0.2219  0.1748  0.0471
 8897TIP3    H148106   6.019   1.325   4.568  2.3344 -2.1200  0.0994
 8897TIP3    H248107   5.868   1.314   4.565  1.8761  2.6227  1.7160
 8898TIP3   OH248108   2.301   6.537   1.760  0.1918  0.2025 -0.2069
 8898TIP3    H148109   2.343   6.571   1.839  0.1067  1.3190 -0.6287
 8898TIP3    H248110   2.212   6.518   1.786  1.0066 -2.4786  0.7750
 8899TIP3   OH248111   0.229   3.530   1.567 -0.0777  0.0203  0.5936
 8899TIP3    H148112   0.223   3.553   1.659 -0.0636 -0.1500  0.6368
 8899TIP3    H248113   0.323   3.516   1.552 -0.0168  0.5963  0.4214
 8900TIP3   OH248114   2.546   0.099   3.394  0.0274 -0.2619 -0.0816
 8900TIP3    H148115   2.458   0.077   3.425 -0.1341 -2.5380 -1.9884
 8900TIP3    H248116   2.604   0.040   3.441  0.6901  1.8382  1.8309
 8901TIP3   OH248117   2.606   5.883   0.078 -0.6373 -0.3995  0.5535
 8901TIP3    H148118   2.608   5.931   0.161  2.2699 -0.4206  0.5307
 8901TIP3    H248119   2.578   5.948   0.014  0.5830  0.5550  0.9692
 8902TIP3   OH248120   1.479   6.639  12.723  0.2182  0.2962  0.1478
 8902TIP3    H148121   1.396   6.664  12.764  0.0886 -0.6877  0.4859
 8902TIP3    H248122   1.544   6.695  12.766 -0.4267  2.0680 -1.0967
 8903TIP3   OH248123   4.449   0.955  16.861 -0.1729  0.3098  0.1464
 8903TIP3    H148124   4.470   0.915  16.777  0.3491 -0.1384  0.4889
 8903TIP3    H248125   4.356   0.978  16.855 -1.2223 -3.4636  0.9486
 8904TIP3   OH248126   2.837   6.736   3.476 -0.0581  0.2571  0.3567
 8904TIP3    H148127   2.892   6.811   3.450  0.6976 -0.9898 -1.7594
 8904TIP3    H248128   2.898   6.663   3.484 -1.2246 -0.8550 -0.7383
 8905TIP3   OH248129   5.112   3.949   1.783  0.4655 -0.1153 -0.0172
 8905TIP3    H148130   5.089   3.967   1.874  2.0149  0.0527  0.3506
 8905TIP3    H248131   5.207   3.936   1.784  0.3270 -1.4430 -1.3916
 8906TIP3   OH248132   0.748   2.686  13.048 -0.5325  0.7292  0.2040
 8906TIP3    H148133   0.680   2.718  13.106  0.3863  0.3702  1.4894
 8906TIP3    H248134   0.820   2.661  13.106  2.2780  4.7918 -1.3064
 8907TIP3   OH248135   1.898   2.819  12.722 -0.0576 -0.6820 -0.4962
 8907TIP3    H148136   1.946   2.862  12.651 -0.2341  1.4297  0.6157
 8907TIP3    H248137   1.966   2.792  12.784 -0.1635  1.2711  0.5204
 8908TIP3   OH248138   6.560   0.474  12.779 -0.3095  0.1585 -0.2077
 8908TIP3    H148139   6.618   0.544  12.747  1.2528  0.2511  2.6661
 8908TIP3    H248140   6.589   0.396  12.732 -1.0062  1.0786 -2.2559
 8909TIP3   OH248141   2.143   0.478   6.704  0.3086 -0.1601  0.4135
 8909TIP3    H148142   2.129   0.572   6.688 -2.2441 -0.7505 -1.1745
 8909TIP3    H248143   2.072   0.453   6.763  0.4182 -1.2646  0.0876
 8910TIP3   OH248144   2.491   3.420  14.703  0.0587 -0.7653  0.3678
 8910TIP3    H148145   2.455   3.376  14.627  0.0900  1.5015 -0.9853
 8910TIP3    H248146   2.585   3.400  14.700 -0.2148 -2.2174  0.8951
 8911TIP3   OH248147   0.233   1.170  16.018  0.4870  0.5586 -0.6211
 8911TIP3    H148148   0.182   1.250  16.030  1.1118  0.9055 -0.2569
 8911TIP3    H248149   0.181   1.118  15.956 -0.5662  0.6778  0.1448
 8912TIP3   OH248150   1.958   2.367   2.679  0.5150  0.6449 -0.4160
 8912TIP3    H148151   1.892   2.381   2.612  2.9945 -1.6531 -3.4818
 8912TIP3    H248152   1.916   2.308   2.742 -0.3917 -0.7327 -2.2721
 8913TIP3   OH248153   5.246   1.845   5.038 -0.2441  0.4777 -0.0509
 8913TIP3    H148154   5.278   1.756   5.052 -0.9163  0.2715  0.1806
 8913TIP3    H248155   5.151   1.837   5.037 -0.3555  1.3810  1.2711
 8914TIP3   OH248156   1.561   0.395  15.564  0.2509 -0.0005  0.0437
 8914TIP3    H148157   1.514   0.457  15.620 -0.7605 -0.0230 -0.7649
 8914TIP3    H248158   1.547   0.428  15.475  2.0547  0.1812 -0.1964
 8915TIP3   OH248159   6.139   4.789  15.969  0.1880  0.5111 -0.6273
 8915TIP3    H148160   6.122   4.705  16.012  0.5216  1.3275  1.1396
 8915TIP3    H248161   6.148   4.767  15.876  0.7351 -1.4712 -0.1275
 8916TIP3   OH248162   3.636   6.507  12.090  1.0877  0.3721 -0.2482
 8916TIP3    H148163   3.666   6.465  12.171  1.3793  1.2488  0.1002
 8916TIP3    H248164   3.542   6.520  12.103  1.3083  1.4200  0.3662
 8917TIP3   OH248165   2.225   1.125   4.637  0.1704  0.1491  0.0652
 8917TIP3    H148166   2.209   1.078   4.555 -1.4735  1.8403 -0.6057
 8917TIP3    H248167   2.296   1.185   4.617  1.0567 -0.7560  0.4298
 8918TIP3   OH248168   2.245   0.696  12.869  0.7816  0.5039  0.1123
 8918TIP3    H148169   2.244   0.758  12.796 -1.5864 -1.2343 -1.4172
 8918TIP3    H248170   2.179   0.729  12.930 -0.0650 -0.1215 -0.4339
 8919TIP3   OH248171   4.391   0.702   0.441  0.1574  0.4216  0.4142
 8919TIP3    H148172   4.409   0.757   0.365  1.4100 -1.5685 -0.7672
 8919TIP3    H248173   4.297   0.711   0.456  0.0446  1.4555 -0.8716
 8920TIP3   OH248174   0.372   6.505  16.198  0.0301  0.6189  0.1759
 8920TIP3    H148175   0.356   6.448  16.273 -0.2493 -0.9666 -1.0661
 8920TIP3    H248176   0.286   6.538  16.173  0.0883  0.9148  0.3559
 8921TIP3   OH248177   4.776   2.229  15.402  0.2047 -0.0388  0.2389
 8921TIP3    H148178   4.857   2.274  15.377  0.0731  0.5953  0.9231
 8921TIP3    H248179   4.804   2.154  15.454  0.5129 -1.7038 -2.2492
 8922TIP3   OH248180   6.472   2.598  12.731  0.7951  0.7056 -0.0899
 8922TIP3    H148181   6.515   2.683  12.742  0.8022  0.7107 -0.1604
 8922TIP3    H248182   6.392   2.606  12.783  1.5758  0.1953  1.2079
 8923TIP3   OH248183   4.014   4.531   4.758 -0.2133 -0.0353  0.4028
 8923TIP3    H148184   3.953   4.522   4.831 -1.7167  1.2398 -0.6642
 8923TIP3    H248185   4.020   4.625   4.742  1.0804 -0.2175 -0.3314
 8924TIP3   OH248186   0.799   6.175  13.718 -0.0549 -0.0473 -0.5248
 8924TIP3    H148187   0.713   6.137  13.701  0.0508 -0.7673  0.5398
 8924TIP3    H248188   0.782   6.269  13.726 -1.0376 -0.3707  1.5008
 8925TIP3   OH248189   2.160   5.144  14.874  0.6065  0.0495 -0.3186
 8925TIP3    H148190   2.117   5.113  14.794 -0.3618 -0.1740  0.2831
 8925TIP3    H248191   2.102   5.115  14.945  2.2500 -1.0877  0.5703
 8926TIP3   OH248192   4.156   0.757  16.800 -0.2216 -0.2510  0.0059
 8926TIP3    H148193   4.240   0.733  16.760  0.4464  0.5462  0.9433
 8926TIP3    H248194   4.143   0.691  16.868  0.3917  0.5049  0.8757
 8927TIP3   OH248195   5.792   4.700  12.295 -1.0477 -0.2463  0.0289
 8927TIP3    H148196   5.783   4.690  12.200  1.1799 -1.2828 -0.0973
 8927TIP3    H248197   5.863   4.641  12.319  0.1655  1.9296  1.9725
 8928TIP3   OH248198   3.018   1.070  14.384  0.0557  0.2170 -0.0041
 8928TIP3    H148199   3.007   1.058  14.479  0.7616  0.0073  0.0508
 8928TIP3    H248200   3.112   1.076  14.371 -0.0809  1.2733 -0.5777
 8929TIP3   OH248201   5.639   4.757  14.058  0.2240  0.0854  0.3366
 8929TIP3    H148202   5.623   4.679  14.004 -0.5815  0.1569  0.4713
 8929TIP3    H248203   5.720   4.736  14.105 -0.8516 -1.3505  1.6085
 8930TIP3   OH248204   6.718   1.794  16.238  0.1374 -0.1099  0.0644
 8930TIP3    H148205   6.673   1.724  16.286 -1.1598  0.7959  0.2059
 8930TIP3    H248206   6.803   1.757  16.216 -0.4108 -1.6277  0.4071
 8931TIP3   OH248207   3.764   2.845  11.948 -0.2880 -0.0334 -0.4402
 8931TIP3    H148208   3.814   2.895  11.883 -0.5394 -0.6483 -1.1018
 8931TIP3    H248209   3.725   2.774  11.899  0.2681 -1.0336  0.5503
 8932TIP3   OH248210   2.906   0.706   4.079 -0.1163 -0.0250  0.1262
 8932TIP3    H148211   2.834   0.669   4.029 -0.2533 -1.8329  1.5989
 8932TIP3    H248212   2.898   0.800   4.067 -2.4537 -0.2311 -0.0802
 8933TIP3   OH248213   3.466   2.344   3.057 -0.0067 -0.4145 -0.0109
 8933TIP3    H148214   3.474   2.437   3.037 -0.5637 -0.6206 -1.2666
 8933TIP3    H248215   3.550   2.306   3.031 -0.2582 -0.4698 -0.7549
 8934TIP3   OH248216   3.780   0.584   4.611  0.2896 -0.4070  0.2708
 8934TIP3    H148217   3.695   0.609   4.577  0.4093  1.6038  1.3450
 8934TIP3    H248218   3.831   0.559   4.534  0.1596  2.7844 -0.9250
 8935TIP3   OH248219   2.059   3.590   3.744  0.4049 -0.0536 -0.0655
 8935TIP3    H148220   2.148   3.560   3.762  0.8497  1.1846 -0.1000
 8935TIP3    H248221   2.060   3.682   3.770 -0.6925  0.1309 -0.6550
 8936TIP3   OH248222   4.923   3.205   2.381  0.1059  0.5276 -0.0955
 8936TIP3    H148223   4.920   3.267   2.454  1.3013 -1.4426  1.6967
 8936TIP3    H248224   4.853   3.142   2.401  0.8294 -0.3561 -0.3085
 8937TIP3   OH248225   5.411   4.141   3.423 -0.0664 -0.0832  0.4210
 8937TIP3    H148226   5.482   4.170   3.367  0.1809 -0.8282  0.3399
 8937TIP3    H248227   5.352   4.094   3.364 -2.0004  2.7644 -0.0435
 8938TIP3   OH248228   1.502   5.637   0.039 -0.1794  0.4659  0.0178
 8938TIP3    H148229   1.461   5.625   0.125 -2.6237  0.6607 -1.0586
 8938TIP3    H248230   1.466   5.567  -0.014  0.8974  0.6734 -1.0064
 8939TIP3   OH248231   3.686   3.692   2.966 -0.3563  0.2735 -0.2407
 8939TIP3    H148232   3.711   3.658   3.052 -0.5248  0.7488 -0.0053
 8939TIP3    H248233   3.642   3.775   2.984 -0.4360  0.3520 -0.7815
 8940TIP3   OH248234   4.468   0.012   2.886 -0.3905 -0.2013  0.6104
 8940TIP3    H148235   4.391   0.012   2.829 -0.7727 -0.1202  1.1228
 8940TIP3    H248236   4.500  -0.078   2.883 -0.1820 -0.1092 -0.0346
 8941TIP3   OH248237   0.619   1.068  15.876 -0.5122 -0.7121 -0.6646
 8941TIP3    H148238   0.670   1.135  15.830 -2.0163 -0.4680 -2.0396
 8941TIP3    H248239   0.555   1.118  15.927 -1.4077 -1.0763 -1.4147
 8942TIP3   OH248240   0.082   1.999   0.703  0.0850 -0.2068 -0.1156
 8942TIP3    H148241   0.092   2.089   0.733  0.6175 -0.1876 -0.3418
 8942TIP3    H248242   0.097   1.946   0.781  2.5666 -0.1979 -0.5563
 8943TIP3   OH248243   6.161   3.240   2.477 -0.0803  0.0303  0.3307
 8943TIP3    H148244   6.116   3.158   2.497 -2.4939  0.8459 -1.3804
 8943TIP3    H248245   6.091   3.306   2.480  1.2438  1.5441 -1.2231
 8944TIP3   OH248246   4.300   1.473   6.701 -0.0882  0.5225 -0.1761
 8944TIP3    H148247   4.249   1.553   6.709 -0.8954 -0.3195  4.4893
 8944TIP3    H248248   4.391   1.500   6.713 -0.4728  0.6382  2.7252
 8945TIP3   OH248249   6.330   2.834   3.280 -0.2450 -0.0806 -0.0744
 8945TIP3    H148250   6.409   2.832   3.226 -1.0461 -1.8960 -1.2498
 8945TIP3    H248251   6.352   2.890   3.355  2.4741 -1.3669  0.1213
 8946TIP3   OH248252   2.106   0.348  14.631  0.2972  0.3914 -0.4520
 8946TIP3    H148253   2.098   0.443  14.620 -0.4547  0.4565  0.6029
 8946TIP3    H248254   2.096   0.313  14.543 -2.2393  1.0957 -0.4759
 8947TIP3   OH248255   2.076   0.479  15.281 -0.0172 -0.1144 -0.6005
 8947TIP3    H148256   2.029   0.541  15.224 -0.6526 -0.7697 -0.8035
 8947TIP3    H248257   2.168   0.498  15.267 -0.1730 -0.1604 -1.7414
 8948TIP3   OH248258   5.907   6.734   3.106 -0.1496  0.0563 -0.5844
 8948TIP3    H148259   5.889   6.677   3.180 -0.5879 -0.6550 -1.2293
 8948TIP3    H248260   5.998   6.716   3.083  0.5964  1.7019  0.9943
 8949TIP3   OH248261   1.513   2.235   0.423  0.0594 -0.0623  0.4329
 8949TIP3    H148262   1.447   2.219   0.490 -0.1973 -0.9020 -0.0204
 8949TIP3    H248263   1.484   2.185   0.347  1.2029 -0.4322  0.2249
 8950TIP3   OH248264   3.210   0.094  12.991 -0.2841  0.0633  0.0530
 8950TIP3    H148265   3.191   0.179  12.953 -2.0815 -0.3160  0.0325
 8950TIP3    H248266   3.155   0.033  12.941  2.4234 -1.4108 -1.2544
 8951TIP3   OH248267   2.096   0.588  14.463  0.0251  0.0890  0.5449
 8951TIP3    H148268   2.089   0.682  14.446  0.7981 -0.0140 -0.3997
 8951TIP3    H248269   2.182   0.565  14.428 -0.1627 -0.9642  0.7886
 8952TIP3   OH248270   3.959   0.624   2.625 -0.2249 -0.1847 -0.3300
 8952TIP3    H148271   3.900   0.623   2.549  0.5992 -0.5071 -0.9672
 8952TIP3    H248272   3.997   0.712   2.625  0.5062 -0.4983 -0.8585
 8953TIP3   OH248273   3.674   1.135  16.833  0.1627 -0.6595  0.0096
 8953TIP3    H148274   3.624   1.114  16.912  0.4756 -0.4098  0.2773
 8953TIP3    H248275   3.609   1.166  16.771  0.1643  1.2985  0.9175
 8954TIP3   OH248276   2.329   0.314   5.668  0.0167  0.3718 -0.2147
 8954TIP3    H148277   2.336   0.351   5.580  0.4292  1.9302  0.4515
 8954TIP3    H248278   2.283   0.381   5.718 -1.5755 -1.1488  0.4099
 8955TIP3   OH248279   1.711   1.309  16.249  0.5988  0.7138  0.6106
 8955TIP3    H148280   1.712   1.213  16.250  1.0295  0.7163  0.2910
 8955TIP3    H248281   1.665   1.333  16.330  1.1490  0.2547  1.0558
 8956TIP3   OH248282   3.385   4.941  15.352 -0.1002 -0.7511 -0.8918
 8956TIP3    H148283   3.393   5.027  15.312  2.2626 -1.5436 -2.2249
 8956TIP3    H248284   3.307   4.903  15.312 -1.8515  1.1395  0.5567
 8957TIP3   OH248285   1.200   2.293  16.089 -0.4620 -0.3562  0.3784
 8957TIP3    H148286   1.254   2.334  16.156 -0.0342 -1.3346  0.6534
 8957TIP3    H248287   1.250   2.303  16.008 -0.4758 -0.1196  0.3994
 8958TIP3   OH248288   6.115   3.004   6.533  0.1528  0.0330  0.3811
 8958TIP3    H148289   6.103   2.918   6.572 -2.0575  0.6060  1.0912
 8958TIP3    H248290   6.096   3.065   6.605  1.7729  1.1228 -0.0858
 8959TIP3   OH248291   4.398   6.735  12.414  0.0715  0.6199  0.1871
 8959TIP3    H148292   4.421   6.806  12.474  0.1938 -0.9094  1.9811
 8959TIP3    H248293   4.428   6.765  12.328  1.0277  2.2989  1.0948
 8960TIP3   OH248294   1.472   6.677  14.146 -0.0462 -0.3798 -0.5965
 8960TIP3    H148295   1.529   6.738  14.193 -0.2520  1.2738 -2.4314
 8960TIP3    H248296   1.389   6.681  14.194 -0.0921  0.8879 -0.7564
 8961TIP3   OH248297   1.482   4.475   0.717  0.4402 -0.6681  0.4883
 8961TIP3    H148298   1.496   4.517   0.802 -0.4534 -0.9727  0.7934
 8961TIP3    H248299   1.518   4.537   0.653  0.9157 -0.3436  1.0760
 8962TIP3   OH248300   6.314   2.581   3.679  0.1895  0.0134  0.7295
 8962TIP3    H148301   6.293   2.671   3.654  0.5568  0.0220  0.4564
 8962TIP3    H248302   6.296   2.577   3.773  1.8506  0.8549  1.0962
 8963TIP3   OH248303   1.063   1.764  11.525 -0.2006 -0.0799 -0.0814
 8963TIP3    H148304   0.980   1.808  11.545 -1.7320 -1.6687 -2.5748
 8963TIP3    H248305   1.081   1.709  11.602 -1.2809  0.5599  0.6352
 8964TIP3   OH248306   4.515   1.689   4.482  0.2560  0.4462  0.2611
 8964TIP3    H148307   4.577   1.690   4.409  0.9450  0.6524  0.8465
 8964TIP3    H248308   4.558   1.638   4.550 -0.1497  0.7294  0.7342
 8965TIP3   OH248309   5.273   0.204   1.750 -0.0874  0.1112  0.1709
 8965TIP3    H148310   5.213   0.158   1.693 -1.6545 -0.1457  1.9797
 8965TIP3    H248311   5.257   0.167   1.837  0.8651  1.8361  1.1142
 8966TIP3   OH248312   6.426   3.869  16.557 -0.4475  0.3395  0.0443
 8966TIP3    H148313   6.486   3.934  16.519 -0.0888  0.0842  0.1632
 8966TIP3    H248314   6.447   3.788  16.509  1.2111 -0.3967  1.9447
 8967TIP3   OH248315   6.115   1.916  15.254  0.7735  0.0896 -0.0401
 8967TIP3    H148316   6.061   1.918  15.332  1.0667 -1.3326  0.2251
 8967TIP3    H248317   6.080   1.843  15.203  1.0030  0.5881 -0.9222
 8968TIP3   OH248318   3.115   6.063   6.275  0.0204  0.2646 -0.9399
 8968TIP3    H148319   3.056   6.136   6.257 -0.8816 -0.4761 -1.0187
 8968TIP3    H248320   3.105   6.047   6.369 -1.9288 -1.5774 -1.4272
 8969TIP3   OH248321   5.186   5.343  13.203 -0.0439  0.0788 -0.1789
 8969TIP3    H148322   5.129   5.360  13.128 -0.4962 -0.5953  0.0133
 8969TIP3    H248323   5.234   5.264  13.179  0.5849  0.4632 -0.2045
 8970TIP3   OH248324   5.604   0.718  16.638 -0.1783  0.3501  0.1881
 8970TIP3    H148325   5.555   0.719  16.721 -2.3577 -1.4385 -1.0378
 8970TIP3    H248326   5.661   0.796  16.643 -0.6385  0.5496  3.1230
 8971TIP3   OH248327   3.180   1.415   2.772  0.3857  0.4513  0.3435
 8971TIP3    H148328   3.124   1.471   2.825 -0.0306 -0.8850  1.3475
 8971TIP3    H248329   3.119   1.362   2.721  0.7726  0.5452 -0.2277
 8972TIP3   OH248330   5.571   2.148   1.373  0.1394  0.6618 -0.3433
 8972TIP3    H148331   5.544   2.067   1.417 -0.7578  0.8130 -0.6116
 8972TIP3    H248332   5.647   2.122   1.320 -0.2012 -0.0244 -0.4962
 8973TIP3   OH248333   2.459   1.598   3.023 -0.3262  0.0705  0.1662
 8973TIP3    H148334   2.372   1.637   3.010 -0.0051  0.8810  0.4128
 8973TIP3    H248335   2.481   1.618   3.114 -0.3809 -1.1586  0.4606
 8974TIP3   OH248336   3.010   1.391   0.006 -0.3600 -0.3242  0.4169
 8974TIP3    H148337   2.923   1.429  -0.003 -0.1738 -0.0872 -0.4052
 8974TIP3    H248338   3.060   1.455   0.056 -0.5377 -0.2709  0.5252
 8975TIP3   OH248339   2.433   2.773   6.344  0.2326  0.2245  0.3079
 8975TIP3    H148340   2.495   2.818   6.401  1.7910 -0.8844 -0.4814
 8975TIP3    H248341   2.400   2.700   6.396  0.3859  0.2043  0.3773
 8976TIP3   OH248342   6.215   4.922   4.008  0.4235  0.0494 -0.0606
 8976TIP3    H148343   6.204   4.845   4.064  0.3990  0.8421  1.0434
 8976TIP3    H248344   6.286   4.898   3.948 -0.5405 -1.3530 -0.6523
 8977TIP3   OH248345   4.642   4.792  15.422 -0.6707  0.1141  0.5217
 8977TIP3    H148346   4.559   4.822  15.386 -1.7126 -0.0168  2.7170
 8977TIP3    H248347   4.700   4.785  15.346 -2.3600  1.1591 -0.9122
 8978TIP3   OH248348   4.658   3.110  12.322 -0.4728  0.7901 -0.1244
 8978TIP3    H148349   4.638   3.145  12.235  0.5097  0.1814 -0.6122
 8978TIP3    H248350   4.695   3.183  12.370 -2.4266  1.5315  0.2915
 8979TIP3   OH248351   5.061   3.341   1.624 -0.3870 -0.1830  0.3567
 8979TIP3    H148352   5.109   3.278   1.570  1.6150  0.4262  1.3815
 8979TIP3    H248353   5.037   3.411   1.563  1.5518  0.3257  0.1371
 8980TIP3   OH248354   4.306   1.543  11.960 -0.2228 -0.4577 -0.5177
 8980TIP3    H148355   4.374   1.490  12.004 -1.0726 -0.2966  1.0003
 8980TIP3    H248356   4.311   1.515  11.868  1.0183 -1.3888 -0.1905
 8981TIP3   OH248357   0.906   6.003  11.334  0.2696 -0.1325  0.0133
 8981TIP3    H148358   0.892   5.949  11.257 -1.3444  0.7615 -0.3339
 8981TIP3    H248359   0.824   6.052  11.345  0.6873  0.1887  1.9339
 8982TIP3   OH248360   3.390   0.838  11.122  0.3250  0.2209 -0.2941
 8982TIP3    H148361   3.305   0.855  11.162  0.3775 -0.6484  0.2116
 8982TIP3    H248362   3.385   0.747  11.093  0.5817  0.6012 -1.5578
 8983TIP3   OH248363   1.970   5.993  11.969 -0.0038 -0.7773  0.7557
 8983TIP3    H148364   2.042   5.938  11.940 -0.5870 -1.1717  0.0270
 8983TIP3    H248365   2.012   6.066  12.014  0.7975 -1.5485  1.2705
 8984TIP3   OH248366   0.363   4.228  12.759 -0.1164  0.0280  0.3130
 8984TIP3    H148367   0.413   4.217  12.840  0.3769 -0.3106 -0.0353
 8984TIP3    H248368   0.300   4.156  12.760  1.6598 -1.6003 -0.8934
 8985TIP3   OH248369   2.746   2.570   2.548 -0.0606 -0.3182 -0.1675
 8985TIP3    H148370   2.660   2.554   2.587  1.2601 -1.3838  2.5011
 8985TIP3    H248371   2.784   2.482   2.539  0.8999  0.1708 -0.9131
 8986TIP3   OH248372   4.187   4.664   2.650  0.2114 -0.4038  0.0215
 8986TIP3    H148373   4.164   4.573   2.631 -0.6450 -0.7940  2.6251
 8986TIP3    H248374   4.280   4.670   2.631 -0.1612 -1.2287 -2.2156
 8987TIP3   OH248375   6.648   4.375  12.447 -0.2513 -0.0568 -0.0145
 8987TIP3    H148376   6.628   4.315  12.519 -1.0485  0.6698  0.3803
 8987TIP3    H248377   6.695   4.322  12.383  1.0235 -0.5769  1.3126
 8988TIP3   OH248378   4.249   6.037  13.842  0.0721  0.5772 -0.0371
 8988TIP3    H148379   4.202   6.086  13.774  0.6681  1.2014  0.0008
 8988TIP3    H248380   4.205   5.952  13.845  1.2143 -0.1498 -2.5202
 8989TIP3   OH248381   1.829   2.120   3.945  0.9145 -0.4965 -0.0998
 8989TIP3    H148382   1.763   2.143   3.879  1.9687  1.9936 -0.3238
 8989TIP3    H248383   1.786   2.138   4.029  1.3957  1.4811 -0.2521
 8990TIP3   OH248384   5.529   0.961   4.960 -0.2566  0.7005 -0.2914
 8990TIP3    H148385   5.616   1.001   4.961 -1.0685  2.5874 -1.3328
 8990TIP3    H248386   5.478   1.013   5.022 -0.8792  0.2123 -0.3904
 8991TIP3   OH248387   4.818   1.839  16.723  0.2956  0.8265 -0.1899
 8991TIP3    H148388   4.730   1.802  16.713  0.3568  0.5596  0.2221
 8991TIP3    H248389   4.817   1.878  16.811  0.5708  0.8839 -0.2124
 8992TIP3   OH248390   5.299   6.110  14.481  0.1978  0.2262  0.2657
 8992TIP3    H148391   5.348   6.032  14.507 -0.2857 -0.3506 -0.5532
 8992TIP3    H248392   5.366   6.175  14.459  0.5937 -0.3538 -0.2267
 8993TIP3   OH248393   3.260   4.251  14.381 -0.3241  0.2339  0.4579
 8993TIP3    H148394   3.283   4.194  14.454 -1.4496 -0.1381  0.5354
 8993TIP3    H248395   3.273   4.340  14.414  0.3111  0.0441  0.7193
 8994TIP3   OH248396   6.283   5.941  12.555  0.0029 -0.0639 -0.2360
 8994TIP3    H148397   6.203   5.990  12.573  0.5232  0.3420  1.0480
 8994TIP3    H248398   6.353   6.001  12.579  0.6487 -1.5566  1.7933
 8995TIP3   OH248399   3.469   4.082   1.109  0.3514 -0.6233 -0.6393
 8995TIP3    H148400   3.492   4.079   1.016  2.5147 -0.5011 -0.1439
 8995TIP3    H248401   3.553   4.097   1.154 -0.9333  1.5096  1.1850
 8996TIP3   OH248402   3.153   3.557  11.944  0.0706 -0.0969  0.1229
 8996TIP3    H148403   3.082   3.619  11.957  0.1573 -0.1481  0.8835
 8996TIP3    H248404   3.170   3.522  12.031  2.5751  1.5937  0.3512
 8997TIP3   OH248405   3.689   0.758  16.234  0.1151  0.1821 -0.2950
 8997TIP3    H148406   3.733   0.799  16.160  1.5993  1.9160  1.4876
 8997TIP3    H248407   3.760   0.730  16.292 -1.0190 -1.0987  0.5195
 8998TIP3   OH248408   2.979   0.667   0.219  0.8698  0.4259  0.1503
 8998TIP3    H148409   3.008   0.588   0.172  0.0719  1.2903 -1.8384
 8998TIP3    H248410   2.985   0.643   0.312 -0.1529 -2.2753 -0.4372
 8999TIP3   OH248411   5.515   3.327  15.816 -0.7030  0.3543  0.0329
 8999TIP3    H148412   5.592   3.287  15.776 -3.1246 -1.5445 -2.9124
 8999TIP3    H248413   5.488   3.265  15.884  1.0283  1.6430  1.9766
 9000TIP3   OH248414   1.976   4.893   0.815  0.1098  0.1643  0.1194
 9000TIP3    H148415   2.021   4.966   0.774 -0.7216  0.9449  0.5847
 9000TIP3    H248416   1.933   4.847   0.743  1.5803 -0.5447 -0.3143
 9001TIP3   OH248417   6.701   5.728  13.620  0.7363  0.4108  0.6640
 9001TIP3    H148418   6.688   5.765  13.532 -0.1582 -1.2423  0.0785
 9001TIP3    H248419   6.613   5.723  13.657  1.0441  0.4794  1.4165
 9002TIP3   OH248420   0.564   5.654  13.901 -0.4571 -0.8506  0.2666
 9002TIP3    H148421   0.569   5.611  13.987  1.0265  0.4212  0.8406
 9002TIP3    H248422   0.525   5.739  13.920  1.2509  0.0318 -0.0585
 9003TIP3   OH248423   3.943   5.855   0.647 -0.1843 -0.3478 -0.1144
 9003TIP3    H148424   4.023   5.902   0.626 -0.3203  0.2106  0.5825
 9003TIP3    H248425   3.954   5.769   0.606  1.3065 -0.7045  0.9841
 9004TIP3   OH248426   1.331   2.709   6.745  0.4589  0.0716 -0.0194
 9004TIP3    H148427   1.409   2.713   6.690 -0.5304 -0.2846 -1.4815
 9004TIP3    H248428   1.276   2.642   6.704 -0.9616  0.8724  0.5348
 9005TIP3   OH248429   6.324   3.926  13.980  0.3518 -0.1157 -0.0291
 9005TIP3    H148430   6.294   3.990  13.916 -2.1180 -0.1049  1.0869
 9005TIP3    H248431   6.349   3.977  14.056  1.1192 -0.2905 -0.1587
 9006TIP3   OH248432   0.242   4.070  15.766 -0.0438  0.1441  0.4290
 9006TIP3    H148433   0.189   4.116  15.701  0.7523  0.3465 -0.0746
 9006TIP3    H248434   0.178   4.023  15.820 -0.8370  1.4901  0.6837
 9007TIP3   OH248435   6.725   4.634  11.065 -0.0874  0.1889  0.4212
 9007TIP3    H148436   6.638   4.628  11.105  0.4294 -0.3310  1.4971
 9007TIP3    H248437   6.721   4.711  11.009 -1.3244  0.0203  0.2652
 9008TIP3   OH248438   4.910   5.609   3.661  0.2771  0.6280  0.5563
 9008TIP3    H148439   4.960   5.615   3.580  0.9518  1.7236  1.0502
 9008TIP3    H248440   4.834   5.555   3.638 -0.1337  1.8816 -1.0901
 9009TIP3   OH248441   0.391   4.671   1.415  0.1862  0.4481 -0.3005
 9009TIP3    H148442   0.344   4.604   1.465  1.3329 -1.1057 -1.2318
 9009TIP3    H248443   0.328   4.701   1.349 -0.8079  1.3613  1.0434
 9010TIP3   OH248444   5.991   3.858   0.266  0.4059  0.3296 -0.6732
 9010TIP3    H148445   5.958   3.786   0.213  0.2451  0.4405 -0.7210
 9010TIP3    H248446   5.918   3.882   0.323  0.3430  0.7010 -0.9123
 9011TIP3   OH248447   4.499   2.837   0.753  0.4871  0.1993 -0.4338
 9011TIP3    H148448   4.432   2.906   0.749 -1.0300 -1.2622 -0.9772
 9011TIP3    H248449   4.454   2.758   0.723  1.6465 -1.4505  1.9817
 9012TIP3   OH248450   5.889   0.134  15.357 -0.0710 -0.1797  0.2437
 9012TIP3    H148451   5.840   0.157  15.436  0.8039  0.8476  0.5122
 9012TIP3    H248452   5.968   0.092  15.389  0.1808  0.0315 -0.0964
 9013TIP3   OH248453   1.106   3.751  16.770  0.4395 -0.5432  0.3039
 9013TIP3    H148454   1.085   3.668  16.813 -0.3031 -0.2669  0.4699
 9013TIP3    H248455   1.095   3.734  16.677 -0.6430 -0.3609  0.3983
 9014TIP3   OH248456   2.109   0.674   5.537  0.0888  0.0644 -0.4116
 9014TIP3    H148457   2.142   0.682   5.448  0.4302  0.9484 -0.2140
 9014TIP3    H248458   2.025   0.629   5.528 -0.5115  1.3535 -1.3126
 9015TIP3   OH248459   5.381   0.356  16.190 -0.4301 -0.1846  0.0181
 9015TIP3    H148460   5.351   0.322  16.274 -0.3539 -0.5030 -0.0827
 9015TIP3    H248461   5.310   0.413  16.160 -0.8773 -0.8380 -0.1619
 9016TIP3   OH248462   0.545   0.581   0.357 -0.0296 -0.0472 -0.6085
 9016TIP3    H148463   0.589   0.647   0.410 -0.5319 -0.0033 -0.2455
 9016TIP3    H248464   0.477   0.546   0.414 -0.5862  0.0150 -1.2338
 9017TIP3   OH248465   2.588   0.489  15.951 -0.6559 -0.6761 -0.1242
 9017TIP3    H148466   2.590   0.398  15.981  0.6542  0.1922  2.6201
 9017TIP3    H248467   2.680   0.512  15.938 -0.9753  0.2393 -0.8662
 9018TIP3   OH248468   5.067   1.566  16.873 -0.1834 -0.5314  0.0259
 9018TIP3    H148469   5.149   1.613  16.858 -1.4832  1.9869  0.5574
 9018TIP3    H248470   5.006   1.601  16.807 -0.9587 -2.1326 -0.1568
 9019TIP3   OH248471   0.584   2.882   0.884  0.5664  0.4942 -0.0614
 9019TIP3    H148472   0.674   2.868   0.913  0.3369 -0.7337  0.1104
 9019TIP3    H248473   0.532   2.827   0.942  0.0203 -1.3587 -2.1987
 9020TIP3   OH248474   0.997   1.790  14.773  0.1921 -0.2546 -0.0524
 9020TIP3    H148475   0.946   1.843  14.712  0.7476  2.2588  1.6188
 9020TIP3    H248476   1.084   1.784  14.733  0.2965  0.5863  0.0518
 9021TIP3   OH248477   4.146   2.754  16.005  0.1249  0.2194  0.6953
 9021TIP3    H148478   4.120   2.789  16.089  0.7881  0.0264  0.9869
 9021TIP3    H248479   4.069   2.764  15.949 -0.3926  0.1318  1.3877
 9022TIP3   OH248480   5.063   0.591   5.377 -0.7409 -0.3172  0.3830
 9022TIP3    H148481   4.980   0.552   5.405 -0.6593 -0.3805  0.5349
 9022TIP3    H248482   5.100   0.628   5.457 -0.9694  0.3540  0.1832
 9023TIP3   OH248483   5.335   3.106  15.525 -0.1168 -0.2587  0.1276
 9023TIP3    H148484   5.251   3.064  15.505 -0.5764  0.9470 -0.5402
 9023TIP3    H248485   5.373   3.126  15.439  0.3327  0.2200  0.4311
 9024TIP3   OH248486   2.589   0.121  12.029 -0.5014  0.2685  0.0725
 9024TIP3    H148487   2.569   0.189  11.965 -0.4176  0.8882  0.6936
 9024TIP3    H248488   2.545   0.043  11.996  0.1549  0.3934 -1.1261
 9025TIP3   OH248489   3.521   2.270  14.059  0.3244 -0.0733 -0.6142
 9025TIP3    H148490   3.582   2.225  14.000 -1.5470 -1.4221 -1.5668
 9025TIP3    H248491   3.434   2.253  14.022 -0.8405 -0.2608  2.0656
 9026TIP3   OH248492   5.085   0.003  11.380 -0.5292  0.2189  0.6459
 9026TIP3    H148493   5.025   0.063  11.423 -1.6275  0.6429 -1.4426
 9026TIP3    H248494   5.102   0.042  11.294 -0.5726 -1.9885 -0.4104
 9027TIP3   OH248495   1.510   4.639  11.534  0.2781  0.3530 -0.6425
 9027TIP3    H148496   1.591   4.626  11.486  0.2836  0.9081 -0.7850
 9027TIP3    H248497   1.527   4.714  11.591 -0.6093  1.4033 -1.7452
 9028TIP3   OH248498   1.866   2.006   5.538  0.1961  0.3482 -0.2349
 9028TIP3    H148499   1.900   2.094   5.557 -0.8867  0.5150  1.0357
 9028TIP3    H248500   1.926   1.947   5.584  0.3969  0.4758 -0.3322
 9029TIP3   OH248501   2.484   1.037   1.253  0.2012  0.0872  0.2221
 9029TIP3    H148502   2.446   1.123   1.240  1.0987  0.4514 -0.0235
 9029TIP3    H248503   2.458   0.987   1.176 -0.3382  0.1214  0.3774
 9030TIP3   OH248504   1.140   6.432   0.210  0.2916  0.0806  0.2764
 9030TIP3    H148505   1.165   6.508   0.263  0.0840  0.3549 -0.0207
 9030TIP3    H248506   1.065   6.461   0.159 -0.5289 -0.6914  1.0307
 9031TIP3   OH248507   5.780   5.512  10.629  0.1757 -0.0390 -0.4485
 9031TIP3    H148508   5.721   5.514  10.554 -0.0504  2.1630 -0.2592
 9031TIP3    H248509   5.796   5.419  10.645 -2.9019 -0.6814 -0.7473
 9032TIP3   OH248510   0.173   2.146   4.484  0.1054  0.3395 -0.3082
 9032TIP3    H148511   0.192   2.233   4.520  1.7267  0.6803 -1.8990
 9032TIP3    H248512   0.234   2.087   4.530 -0.6187  0.1324  0.3850
 9033TIP3   OH248513   6.122   3.986   2.028 -0.1179  0.4140  0.8550
 9033TIP3    H148514   6.105   4.010   1.937  4.3534 -1.5895 -0.7006
 9033TIP3    H248515   6.061   3.914   2.046 -1.8605  1.6199 -0.1050
 9034TIP3   OH248516   4.859   1.122   0.684 -0.3512  0.6828 -0.3070
 9034TIP3    H148517   4.800   1.184   0.642  0.0894  0.3713 -1.3920
 9034TIP3    H248518   4.940   1.128   0.634 -0.5103 -1.2161 -0.8069
 9035TIP3   OH248519   4.027   1.469  14.143 -0.0413 -0.3489 -0.1495
 9035TIP3    H148520   3.958   1.464  14.210 -0.5613 -1.6924 -0.7690
 9035TIP3    H248521   4.108   1.449  14.190 -0.1769  0.4589  0.4292
 9036TIP3   OH248522   2.196   1.252  15.577 -0.6355 -0.0866 -0.3566
 9036TIP3    H148523   2.101   1.265  15.568 -0.8329  0.2500  1.9337
 9036TIP3    H248524   2.227   1.334  15.616 -0.0252 -1.6598  2.6152
 9037TIP3   OH248525   0.332   0.654  16.875  0.4666  0.6261  0.2131
 9037TIP3    H148526   0.382   0.683  16.951 -0.3659  0.3118  0.8894
 9037TIP3    H248527   0.312   0.734  16.827 -1.0922  1.1060  1.6203
 9038TIP3   OH248528   4.502   0.729   5.545  0.6848  0.0679  0.2531
 9038TIP3    H148529   4.521   0.695   5.458 -0.5450 -0.3011  0.1124
 9038TIP3    H248530   4.519   0.655   5.604  1.0145  0.1610  0.2773
 9039TIP3   OH248531   2.262   2.516  14.044 -0.0518 -0.0802  0.3984
 9039TIP3    H148532   2.333   2.520  14.108  0.3961  1.3155 -0.1586
 9039TIP3    H248533   2.184   2.496  14.096  0.7493 -1.6856  1.0029
 9040TIP3   OH248534   1.888   1.737  10.785  0.0574 -0.3109 -0.3126
 9040TIP3    H148535   1.885   1.654  10.832  0.0532 -0.0470  0.1536
 9040TIP3    H248536   1.859   1.715  10.696  0.0997 -0.8149 -0.2060
 9041TIP3   OH248537   2.177   5.720   3.990 -0.2521  0.2845 -0.3509
 9041TIP3    H148538   2.205   5.777   3.919  0.0664  0.8520  0.2249
 9041TIP3    H248539   2.085   5.702   3.971 -1.6689  4.6170  1.7797
 9042TIP3   OH248540   3.297   6.046   6.706 -0.3453 -0.5349  0.4212
 9042TIP3    H148541   3.320   6.095   6.627 -1.0784 -0.9200 -0.0391
 9042TIP3    H248542   3.377   6.045   6.759  0.2274 -0.5105 -0.4444
 9043TIP3   OH248543   4.368   4.200  11.675 -0.2633 -0.2035  0.5922
 9043TIP3    H148544   4.276   4.182  11.692 -0.2369  0.0830  1.0221
 9043TIP3    H248545   4.368   4.286  11.633 -0.2525 -0.5155 -0.0518
 9044TIP3   OH248546   5.953   5.340   4.531  0.4092 -0.3139 -0.1297
 9044TIP3    H148547   5.911   5.407   4.584  0.6741 -0.8714  0.7954
 9044TIP3    H248548   6.032   5.382   4.496 -0.2308  0.3290 -0.8161
 9045TIP3   OH248549   3.895   2.259  11.773  0.1875  0.1150  0.4096
 9045TIP3    H148550   3.915   2.188  11.834 -0.2004 -0.2350  0.1340
 9045TIP3    H248551   3.912   2.339  11.822  3.1899 -0.1532 -0.1130
 9046TIP3   OH248552   4.552   1.837  15.737 -1.1111  0.2760 -0.1625
 9046TIP3    H148553   4.574   1.928  15.754 -1.3977  0.1696  0.8047
 9046TIP3    H248554   4.476   1.819  15.793 -0.6676 -0.7342  0.1307
 9047TIP3   OH248555   1.614   5.868  12.586 -0.2816  0.3820  0.5090
 9047TIP3    H148556   1.566   5.910  12.658 -0.9079  0.2049  0.1943
 9047TIP3    H248557   1.586   5.916  12.508 -0.7453 -0.4095  0.1895
 9048TIP3   OH248558   3.917   5.370   2.183 -0.4230  0.6542  0.2489
 9048TIP3    H148559   3.878   5.453   2.212 -0.8505  0.5350  0.0135
 9048TIP3    H248560   3.843   5.312   2.170 -0.3024  0.8880 -1.6890
 9049TIP3   OH248561   1.969   3.968  13.891 -0.0792  0.6202 -0.3207
 9049TIP3    H148562   1.907   3.978  13.819 -0.5207  1.2520  0.1474
 9049TIP3    H248563   2.004   3.879  13.880 -3.1883 -0.8624  1.0642
 9050TIP3   OH248564   3.541   3.939   3.025  0.0932 -0.4734 -0.0940
 9050TIP3    H148565   3.447   3.924   3.021 -0.2738  2.0358 -1.3987
 9050TIP3    H248566   3.558   3.966   3.115 -0.3216 -1.4573  0.2887
 9051TIP3   OH248567   0.152   2.481   3.929 -0.0536  0.2312  0.4300
 9051TIP3    H148568   0.181   2.415   3.867 -0.0687  2.1013 -1.6418
 9051TIP3    H248569   0.233   2.520   3.962 -0.0677  0.3071  0.3759
 9052TIP3   OH248570   4.603   0.473   5.964 -0.5567 -0.0244 -0.2768
 9052TIP3    H148571   4.662   0.425   6.021 -3.4430 -1.2681  1.7376
 9052TIP3    H248572   4.553   0.530   6.023 -0.5498  1.9173 -2.0739
 9053TIP3   OH248573   1.656   4.623  13.053  0.2808  0.1228  0.7858
 9053TIP3    H148574   1.748   4.636  13.031  0.2523  1.4101  1.3681
 9053TIP3    H248575   1.608   4.669  12.984  0.1019  0.4807  1.1483
 9054TIP3   OH248576   1.155   1.337  13.703 -0.0555 -0.0298  0.3613
 9054TIP3    H148577   1.217   1.400  13.741 -1.1011  0.2215  1.6975
 9054TIP3    H248578   1.206   1.257  13.693  0.5539  0.2395  1.2312
 9055TIP3   OH248579   1.179   5.803  12.439 -0.0850 -0.2076 -0.3975
 9055TIP3    H148580   1.245   5.738  12.463  0.0908  0.6038  1.3519
 9055TIP3    H248581   1.198   5.823  12.347  0.4858 -1.8793 -0.6556
 9056TIP3   OH248582   0.268   4.423  13.573  0.7205  0.1177 -0.0812
 9056TIP3    H148583   0.183   4.467  13.580  0.3994 -0.2051 -1.6253
 9056TIP3    H248584   0.266   4.383  13.486  2.6559  0.5137 -0.3205
 9057TIP3   OH248585   2.668   4.756   1.336 -0.6472 -0.2640 -0.0291
 9057TIP3    H148586   2.591   4.705   1.360 -0.5778 -0.0284  0.7271
 9057TIP3    H248587   2.636   4.818   1.270 -0.1684 -2.9452 -2.8685
 9058TIP3   OH248588   5.293   1.164  12.183 -0.4935  0.2647 -0.4939
 9058TIP3    H148589   5.378   1.166  12.140 -1.0588 -2.4303 -1.8916
 9058TIP3    H248590   5.263   1.074  12.172 -3.3075  1.0279  0.4337
 9059TIP3   OH248591   0.536   3.343   2.395 -0.1124 -0.6082  0.0962
 9059TIP3    H148592   0.577   3.307   2.474  1.2862  0.5685 -0.0676
 9059TIP3    H248593   0.459   3.288   2.381  0.4296 -1.7506  1.4421
 9060TIP3   OH248594   3.885   0.183   4.673  0.6693  0.1586  0.2221
 9060TIP3    H148595   3.864   0.125   4.746  0.7280 -0.8507 -0.5436
 9060TIP3    H248596   3.801   0.198   4.630  0.5946  0.9558  0.6317
 9061TIP3   OH248597   4.395   3.539   1.724  0.5494  0.1298 -0.1495
 9061TIP3    H148598   4.478   3.574   1.694 -0.9668  1.8954 -2.4583
 9061TIP3    H248599   4.339   3.616   1.736 -1.4634 -1.1646 -0.9084
 9062TIP3   OH248600   0.327   1.138  11.217 -0.1439 -0.1349 -0.0240
 9062TIP3    H148601   0.418   1.151  11.244  1.0963 -3.4874 -2.2414
 9062TIP3    H248602   0.314   1.200  11.145  0.4015  0.3781  0.3233
 9063TIP3   OH248603   2.286   2.643   3.957 -0.0420 -0.1105 -0.0917
 9063TIP3    H148604   2.261   2.682   4.041  3.0194  1.9442 -0.0497
 9063TIP3    H248605   2.267   2.711   3.892  0.8745 -0.3516 -0.6224
 9064TIP3   OH248606   2.489   2.082   0.324 -0.3445 -0.2512 -0.3194
 9064TIP3    H148607   2.419   2.092   0.388 -1.1317 -1.3020 -0.9930
 9064TIP3    H248608   2.467   2.001   0.277  0.7025  0.0261 -1.3116
 9065TIP3   OH248609   5.856   5.133   0.899  0.2895 -0.2827 -0.7424
 9065TIP3    H148610   5.768   5.102   0.921  0.2995  0.6589  0.6725
 9065TIP3    H248611   5.867   5.213   0.950  1.5789  0.1732 -1.7131
 9066TIP3   OH248612   3.297   2.552   0.558  0.0740  0.0624  0.3532
 9066TIP3    H148613   3.226   2.604   0.596 -0.9915 -0.9238 -0.2634
 9066TIP3    H248614   3.253   2.476   0.520  1.2627  0.3671 -1.6755
 9067TIP3   OH248615   5.859   4.180   2.135 -0.2241  0.4332  0.3230
 9067TIP3    H148616   5.800   4.156   2.207  0.0392  0.0591  0.4106
 9067TIP3    H248617   5.946   4.183   2.175 -0.1684  0.8995  0.1725
 9068TIP3   OH248618   0.665   0.191  12.654  0.6833 -0.0091 -0.5307
 9068TIP3    H148619   0.607   0.180  12.579 -0.9396 -1.5071  0.8786
 9068TIP3    H248620   0.633   0.269  12.699  0.7410  0.0518 -0.5944
 9069TIP3   OH248621   5.958   5.551   3.609 -0.0162  0.0600  0.5462
 9069TIP3    H148622   5.894   5.485   3.583 -0.3183  1.4546 -2.4842
 9069TIP3    H248623   5.920   5.634   3.581  1.6720  1.2371  1.6360
 9070TIP3   OH248624   2.940   5.824   4.076 -0.0508 -0.5268 -0.1230
 9070TIP3    H148625   2.874   5.840   4.144  1.8927 -0.0782  1.7174
 9070TIP3    H248626   2.982   5.742   4.103  0.4829 -0.5451 -1.0120
 9071TIP3   OH248627   0.347   2.576  12.125  0.1764 -0.0826  0.1255
 9071TIP3    H148628   0.414   2.638  12.153  1.5716 -1.5859  0.1890
 9071TIP3    H248629   0.343   2.585  12.030  1.6679 -1.1614 -0.0511
 9072TIP3   OH248630   0.123   4.107   4.728 -0.1594 -0.3380  0.1796
 9072TIP3    H148631   0.073   4.047   4.672 -3.0955  0.6660  1.6029
 9072TIP3    H248632   0.169   4.164   4.667  1.1436 -2.7721 -1.1885
 9073TIP3   OH248633   3.278   2.389   1.561  0.2778  0.4605  0.5457
 9073TIP3    H148634   3.207   2.443   1.525  0.9592 -0.4196 -2.2245
 9073TIP3    H248635   3.237   2.304   1.578  0.1139  0.6766  1.2533
 9074TIP3   OH248636   3.861   2.628   4.425  0.0455  0.1512 -0.7652
 9074TIP3    H148637   3.815   2.712   4.425  0.2902  0.2938 -1.7697
 9074TIP3    H248638   3.912   2.629   4.506 -0.0728  0.8993 -0.6922
 9075TIP3   OH248639   4.348   3.839   1.059  0.5259 -0.4063 -0.0539
 9075TIP3    H148640   4.389   3.756   1.083 -0.2588 -1.0554 -0.9320
 9075TIP3    H248641   4.267   3.842   1.111  0.4751 -0.2553 -0.1397
 9076TIP3   OH248642   2.131   5.060   1.139  0.1593  0.1272 -0.3393
 9076TIP3    H148643   2.078   5.132   1.104 -0.9258 -0.6475 -0.3192
 9076TIP3    H248644   2.068   4.989   1.152  0.1762  0.7909  4.5050
 9077TIP3   OH248645   5.681   4.699  14.607  0.4026 -0.3794 -0.1752
 9077TIP3    H148646   5.625   4.666  14.537 -0.9265  0.4297  0.4992
 9077TIP3    H248647   5.768   4.704  14.567 -0.4038  0.4188 -1.8923
 9078TIP3   OH248648   1.451   2.263   2.786 -0.2484 -0.1662 -0.4691
 9078TIP3    H148649   1.356   2.261   2.772 -0.4204 -1.4825  0.7318
 9078TIP3    H248650   1.486   2.203   2.721 -0.3146 -0.3304 -0.3526
 9079TIP3   OH248651   0.103   4.428  14.723 -0.4500 -0.3591 -0.4268
 9079TIP3    H148652   0.180   4.478  14.748 -0.2823 -0.7078 -0.2322
 9079TIP3    H248653   0.055   4.484  14.663  0.5714 -0.6207 -1.5077
 9080TIP3   OH248654   4.879   6.376  14.226  0.2904 -0.4801  0.2579
 9080TIP3    H148655   4.806   6.438  14.227 -0.6533 -1.5806  1.6215
 9080TIP3    H248656   4.953   6.425  14.259 -0.2121  0.2026  0.3802
 9081TIP3   OH248657   4.536   6.146  12.222 -0.2232 -0.6776 -0.4863
 9081TIP3    H148658   4.616   6.095  12.235  0.5091  0.3819 -0.8090
 9081TIP3    H248659   4.497   6.153  12.309  1.6011  1.3723  0.1910
 9082TIP3   OH248660   5.546   1.921   5.817 -0.3411  0.2759  0.5459
 9082TIP3    H148661   5.529   2.004   5.861 -0.1552 -0.6138  2.3549
 9082TIP3    H248662   5.641   1.920   5.805 -0.5778  1.3588 -1.6356
 9083TIP3   OH248663   0.381   1.730  14.465 -0.1624  0.8905 -0.5449
 9083TIP3    H148664   0.296   1.764  14.437  0.1747  1.6285 -0.7005
 9083TIP3    H248665   0.436   1.738  14.387  0.6567  2.5172  0.1905
 9084TIP3   OH248666   4.275   6.296   2.442  0.2736 -0.0439 -0.1370
 9084TIP3    H148667   4.309   6.216   2.482  1.1168  0.0307 -0.6790
 9084TIP3    H248668   4.230   6.266   2.363 -0.2696 -0.0705  0.1793
 9085TIP3   OH248669   2.784   1.653   1.409  0.1669  1.4849 -0.4276
 9085TIP3    H148670   2.770   1.729   1.353 -0.6928  1.2029 -0.5944
 9085TIP3    H248671   2.879   1.643   1.412  0.2115  1.3610 -2.0183
 9086TIP3   OH248672   4.741   4.858   5.556  0.0542 -0.1967  0.1557
 9086TIP3    H148673   4.806   4.805   5.510  0.1146 -1.1120  1.2943
 9086TIP3    H248674   4.789   4.902   5.625  0.4215  2.9968 -2.0125
 9087TIP3   OH248675   5.162   4.169   2.322 -0.5458  0.3045 -0.3870
 9087TIP3    H148676   5.103   4.227   2.370  0.6196  0.1106  1.3349
 9087TIP3    H248677   5.152   4.084   2.365  0.1809  0.0225 -0.7631
 9088TIP3   OH248678   6.354   1.760  14.765  0.5222  0.1033  0.2722
 9088TIP3    H148679   6.391   1.728  14.848 -0.1870  0.4878  0.7360
 9088TIP3    H248680   6.330   1.851  14.783  1.5366  0.5817 -0.7317
 9089TIP3   OH248681   0.420   3.227   3.700 -0.2136  0.0719 -0.4374
 9089TIP3    H148682   0.379   3.164   3.641 -2.2622 -1.7778  2.8223
 9089TIP3    H248683   0.363   3.303   3.697 -1.0137 -0.4948  0.0519
 9090TIP3   OH248684   0.728   5.418   1.727 -0.3413 -0.2768 -0.0052
 9090TIP3    H148685   0.671   5.345   1.752  0.1641 -0.4674  0.5879
 9090TIP3    H248686   0.764   5.450   1.809  0.3095 -0.0736 -0.3684
 9091TIP3   OH248687   3.910   0.738   2.209 -0.7982 -0.1714  0.0282
 9091TIP3    H148688   3.940   0.672   2.146  2.1478 -0.2312  1.3970
 9091TIP3    H248689   3.870   0.687   2.279  0.0355 -0.4350  0.3259
 9092TIP3   OH248690   6.316   2.961  12.808  0.1715  0.1252 -0.8637
 9092TIP3    H148691   6.343   2.927  12.723  0.0897 -1.7675 -0.1719
 9092TIP3    H248692   6.294   2.882  12.859  0.1095  1.2314  0.8601
 9093TIP3   OH248693   6.567   2.173  14.227  0.2163  0.2982  0.3413
 9093TIP3    H148694   6.637   2.208  14.171  0.7723 -0.6961  0.4162
 9093TIP3    H248695   6.589   2.204  14.315  1.2525 -1.0580  0.5669
 9094TIP3   OH248696   2.281   6.232  11.168  0.2854 -0.3774  0.5225
 9094TIP3    H148697   2.277   6.136  11.168 -0.8883 -0.3343  2.0282
 9094TIP3    H248698   2.367   6.252  11.205  0.6808 -0.8550 -0.1373
 9095TIP3   OH248699   6.470   4.354   4.754 -0.2029 -0.2157  0.3268
 9095TIP3    H148700   6.469   4.445   4.785  3.4750  0.9060 -2.4990
 9095TIP3    H248701   6.560   4.324   4.770 -0.1532 -1.8922 -2.6796
 9096TIP3   OH248702   5.643   4.199  12.075 -0.0186 -0.4145  0.2244
 9096TIP3    H148703   5.598   4.197  11.991 -0.4470 -0.9060  0.4579
 9096TIP3    H248704   5.665   4.107  12.092  1.3675 -0.1368 -0.0442
 9097TIP3   OH248705   4.392   1.767   3.567  0.5417  0.1950  0.1325
 9097TIP3    H148706   4.456   1.813   3.620  0.6806 -0.5986  0.6573
 9097TIP3    H248707   4.425   1.774   3.478  0.5466  1.1325  0.2045
 9098TIP3   OH248708   5.612   3.316   2.865 -0.1906  0.1411 -0.1399
 9098TIP3    H148709   5.582   3.284   2.780  1.0009 -2.4522  0.3503
 9098TIP3    H248710   5.532   3.343   2.910 -0.8885  1.0015 -1.8501
 9099TIP3   OH248711   5.364   3.031  13.248  0.0959 -0.4243  0.0092
 9099TIP3    H148712   5.327   3.080  13.174  0.2709 -0.1330  0.1147
 9099TIP3    H248713   5.338   2.940  13.231 -0.0865 -0.3225 -0.2737
 9100TIP3   OH248714   2.909   4.347  11.233  0.4709 -0.4164 -0.0081
 9100TIP3    H148715   2.960   4.323  11.155  1.1030  0.4002  0.1426
 9100TIP3    H248716   2.970   4.336  11.306  0.2167 -0.1192  0.2513
 9101TIP3   OH248717   1.726   1.966   1.398 -0.1503 -0.0001 -0.1822
 9101TIP3    H148718   1.671   2.000   1.328  1.0818 -1.1184 -1.7352
 9101TIP3    H248719   1.753   1.879   1.368  2.6286  0.5905  0.3891
 9102TIP3   OH248720   5.520   3.472   4.646 -0.1512  0.0405 -0.0458
 9102TIP3    H148721   5.561   3.537   4.703 -0.2055 -1.5583  1.8854
 9102TIP3    H248722   5.547   3.497   4.557  1.5231  1.4550  0.8320
 9103TIP3   OH248723   2.687   3.273  12.116  0.0365  0.1475 -0.3698
 9103TIP3    H148724   2.650   3.362  12.122  0.9277  0.5875 -1.3330
 9103TIP3    H248725   2.778   3.283  12.145 -0.2213 -0.7082  0.7822
 9104TIP3   OH248726   5.911   5.195  14.883 -0.0679  0.0560 -0.2757
 9104TIP3    H148727   5.834   5.246  14.857 -0.2747 -1.1108 -2.0638
 9104TIP3    H248728   5.895   5.108  14.846  2.4538 -0.0067 -1.2873
 9105TIP3   OH248729   3.730   1.653   2.096  0.2783  1.1557 -0.2650
 9105TIP3    H148730   3.751   1.747   2.096 -0.5590  1.3505 -0.3331
 9105TIP3    H248731   3.664   1.644   2.165 -0.5816  0.8423 -1.1116
 9106TIP3   OH248732   1.726   1.358  11.571  0.6588 -0.4084 -0.7503
 9106TIP3    H148733   1.711   1.429  11.509  0.1490  0.2569  0.1213
 9106TIP3    H248734   1.763   1.401  11.648  0.1720 -1.0531 -0.1511
 9107TIP3   OH248735   4.443   4.968   4.000  0.6642 -0.6908  0.6200
 9107TIP3    H148736   4.444   5.012   4.085  0.2708 -1.3927  0.9964
 9107TIP3    H248737   4.359   4.993   3.962  1.6636  1.1978 -0.4192
 9108TIP3   OH248738   3.897   3.697  12.464 -0.2765 -0.3980  0.5188
 9108TIP3    H148739   3.871   3.754  12.392  1.4149  0.5750  0.6429
 9108TIP3    H248740   3.954   3.632  12.424 -1.0856 -1.1760  0.6201
 9109TIP3   OH248741   5.138   1.890   5.600  0.3069  0.2334 -0.1737
 9109TIP3    H148742   5.170   1.961   5.656  0.5989  0.1098 -0.1799
 9109TIP3    H248743   5.218   1.849   5.567  0.1367  0.0068 -0.3010
 9110TIP3   OH248744   6.206   0.247   1.543  0.2276  0.0722 -0.2506
 9110TIP3    H148745   6.149   0.324   1.536  1.4943  0.9244 -1.3693
 9110TIP3    H248746   6.146   0.173   1.544 -1.0015  1.0589  0.6663
 9111TIP3   OH248747   0.189   4.803  10.898 -0.2680 -0.1291 -0.2164
 9111TIP3    H148748   0.194   4.760  10.813 -0.2426 -0.7457  0.0926
 9111TIP3    H248749   0.097   4.826  10.908 -0.0202  1.2522 -1.0424
 9112TIP3   OH248750   2.945   3.978   3.613  0.1074 -0.5831 -0.9527
 9112TIP3    H148751   3.037   4.005   3.621  0.1516 -1.0246  0.0831
 9112TIP3    H248752   2.900   4.055   3.580  0.9562 -0.5526 -2.0894
 9113TIP3   OH248753   5.787   3.873  16.200  0.1394  0.2664 -0.1241
 9113TIP3    H148754   5.827   3.870  16.113  0.0832 -2.2394 -0.0898
 9113TIP3    H248755   5.824   3.798  16.246 -0.8316  0.8061  1.5936
 9114TIP3   OH248756   1.047   4.340  10.822 -0.3817  0.2227 -0.4117
 9114TIP3    H148757   1.111   4.272  10.802 -1.9620 -1.3621 -0.1488
 9114TIP3    H248758   0.963   4.296  10.817 -1.3761  1.9709  0.5897
 9115TIP3   OH248759   0.816   2.625   0.769 -0.1650 -0.1811  0.6722
 9115TIP3    H148760   0.819   2.537   0.731 -0.7320 -0.2915  0.8795
 9115TIP3    H248761   0.906   2.641   0.799  0.5958  0.3992 -1.7930
 9116TIP3   OH248762   5.677   3.666  17.046  0.2295  0.0234  0.7311
 9116TIP3    H148763   5.688   3.588  16.991  0.1136  0.0931  0.6092
 9116TIP3    H248764   5.590   3.656  17.085  0.2092  0.1000  0.7039
 9117TIP3   OH248765   5.171   3.096   5.660 -0.0305  0.5902  1.0632
 9117TIP3    H148766   5.195   3.089   5.752  0.9911 -0.5450  0.7304
 9117TIP3    H248767   5.083   3.134   5.660 -0.0341  0.5821  2.4990
 9118TIP3   OH248768   2.065   3.582  13.455  0.0678 -0.4967 -0.3665
 9118TIP3    H148769   2.141   3.533  13.486  1.1217  1.5694  0.4394
 9118TIP3    H248770   1.989   3.533  13.488  1.0571 -2.1509 -0.5105
 9119TIP3   OH248771   4.019   6.547   4.415 -0.0766  0.0722  0.0110
 9119TIP3    H148772   3.959   6.551   4.489 -0.8832  1.3780 -0.6794
 9119TIP3    H248773   3.970   6.501   4.347  0.1250  0.1398 -0.1813
 9120TIP3   OH248774   1.564   4.476   4.966 -0.0552  0.3015  0.4086
 9120TIP3    H148775   1.530   4.410   5.026 -1.6742  0.2055 -0.5684
 9120TIP3    H248776   1.584   4.427   4.886  0.2325  0.7323  0.2175
 9121TIP3   OH248777   0.459   2.781  13.833 -0.2741 -0.2924 -0.7381
 9121TIP3    H148778   0.452   2.733  13.750  0.0510 -1.8829  0.1263
 9121TIP3    H248779   0.371   2.779  13.870 -0.0797 -0.9973 -0.2956
 9122TIP3   OH248780   0.896   4.945  11.654 -0.0495  0.4412  0.2353
 9122TIP3    H148781   0.941   4.932  11.738 -0.3078  1.9927  0.6296
 9122TIP3    H248782   0.954   4.904  11.590  1.0730  0.8721  0.9469
 9123TIP3   OH248783   4.074   6.599  16.738  0.5978  0.3746 -0.2096
 9123TIP3    H148784   3.981   6.617  16.725  0.3973 -1.7560 -2.0498
 9123TIP3    H248785   4.091   6.623  16.829 -2.1454 -0.8933  0.6815
 9124TIP3   OH248786   5.280   2.011  11.063 -0.6540  0.4869  0.5721
 9124TIP3    H148787   5.187   1.990  11.056 -0.2968 -1.2934  0.9849
 9124TIP3    H248788   5.284   2.105  11.046 -2.5932  0.7046  1.1361
 9125TIP3   OH248789   4.514   5.487   2.278 -0.6529 -0.1905  0.9078
 9125TIP3    H148790   4.524   5.544   2.353 -3.3811  0.2475  0.9982
 9125TIP3    H248791   4.520   5.545   2.202  0.5213 -0.3981  0.8319
 9126TIP3   OH248792   0.368   0.398  16.800 -0.5310  0.2655 -0.0556
 9126TIP3    H148793   0.355   0.481  16.847 -2.4829  0.8569 -1.5590
 9126TIP3    H248794   0.436   0.353  16.850 -1.9021  1.2376  2.8548
 9127TIP3   OH248795   0.309   5.233   3.896  0.2795  0.2528  0.5405
 9127TIP3    H148796   0.357   5.313   3.916 -0.3595  0.5787  0.7515
 9127TIP3    H248797   0.219   5.251   3.923 -0.8066  0.9930 -3.2890
 9128TIP3   OH248798   4.405   1.273  14.052  0.2832  0.0833 -0.4878
 9128TIP3    H148799   4.496   1.305  14.051  0.7307 -1.2064 -1.9216
 9128TIP3    H248800   4.395   1.225  13.970 -1.1648 -1.2829  0.4533
 9129TIP3   OH248801   2.798   4.160  13.823  0.1654  0.7476 -0.1281
 9129TIP3    H148802   2.842   4.196  13.745  1.4173 -0.2720  0.0936
 9129TIP3    H248803   2.732   4.225  13.845  1.6640  2.3833 -0.3926
 9130TIP3   OH248804   6.766   4.664  14.589  0.6728  0.1234 -0.0157
 9130TIP3    H148805   6.767   4.656  14.493  0.8044  1.3811 -0.1273
 9130TIP3    H248806   6.850   4.704  14.610  0.1998  0.8277  0.5351
 9131TIP3   OH248807   0.070   3.108   2.183  0.5022  0.5683 -0.3616
 9131TIP3    H148808   0.126   3.148   2.116  2.0879 -0.1544  0.5103
 9131TIP3    H248809   0.042   3.182   2.237  2.5942  0.6631  0.6340
 9132TIP3   OH248810   0.617   0.307  13.196  0.2063 -0.5711  0.4384
 9132TIP3    H148811   0.538   0.253  13.190  0.2978 -0.6510 -0.1000
 9132TIP3    H248812   0.642   0.303  13.289  0.3301 -1.6288  0.3697
 9133TIP3   OH248813   0.466   1.401  11.612  0.5962 -0.4264 -0.4442
 9133TIP3    H148814   0.448   1.325  11.558  0.4485 -0.5223 -0.2618
 9133TIP3    H248815   0.536   1.373  11.672  0.1632 -0.5900 -0.0111
 9134TIP3   OH248816   2.858   3.702   0.027 -0.1130 -0.3907  0.6260
 9134TIP3    H148817   2.923   3.737  -0.034  0.8410 -0.2394  1.7149
 9134TIP3    H248818   2.853   3.609   0.006  0.4153 -0.3911  0.5088
 9135TIP3   OH248819   5.153   0.330  11.617  0.4134 -0.1122 -0.5858
 9135TIP3    H148820   5.154   0.336  11.521  1.6005 -1.1306 -0.6600
 9135TIP3    H248821   5.107   0.248  11.635  0.0139  0.1789 -0.2779
 9136TIP3   OH248822   4.916   0.359  14.922  0.0960  0.2757 -0.3202
 9136TIP3    H148823   4.940   0.286  14.864  0.4722  0.5939 -0.5684
 9136TIP3    H248824   4.829   0.337  14.954  1.7824 -2.3413  2.8321
 9137TIP3   OH248825   5.452   6.286   3.680 -0.0479 -0.2652  0.1241
 9137TIP3    H148826   5.506   6.258   3.755  0.0044  1.1487  0.6441
 9137TIP3    H248827   5.367   6.306   3.718 -0.8274 -2.0933 -0.6364
 9138TIP3   OH248828   0.792   5.759   2.576  0.1578  0.2207  0.2187
 9138TIP3    H148829   0.832   5.820   2.514 -1.2229  0.8706 -0.0547
 9138TIP3    H248830   0.786   5.808   2.658 -2.0316  0.8988 -0.3073
 9139TIP3   OH248831   4.273   3.586  15.371 -0.3069 -0.4323  0.1883
 9139TIP3    H148832   4.325   3.539  15.306  1.0557  0.8345  0.3273
 9139TIP3    H248833   4.197   3.530  15.387  0.8979 -2.1969 -0.2055
 9140TIP3   OH248834   3.137   0.042  17.125  0.1690  0.0580  0.3857
 9140TIP3    H148835   3.095   0.125  17.145 -0.1393  0.2041 -0.8427
 9140TIP3    H248836   3.069  -0.010  17.081  0.9705 -0.0516 -0.7542
 9141TIP3   OH248837   3.365   3.704   4.123 -0.6211 -0.0893 -0.1810
 9141TIP3    H148838   3.296   3.769   4.133 -0.3669  0.5798 -2.5431
 9141TIP3    H248839   3.355   3.671   4.034  2.0784  0.0464 -0.5932
 9142TIP3   OH248840   5.411   0.927   5.220 -0.2769 -0.5632  0.2281
 9142TIP3    H148841   5.504   0.939   5.237 -0.2395 -1.2324  0.5086
 9142TIP3    H248842   5.369   1.003   5.260  0.2998  0.6589 -1.4387
 9143TIP3   OH248843   2.864   1.920   3.289 -0.4926 -0.9165 -0.1005
 9143TIP3    H148844   2.835   2.004   3.324 -0.1494 -1.3170  1.1559
 9143TIP3    H248845   2.896   1.941   3.201  1.6021  0.6237  0.9992
 9144TIP3   OH248846   0.483   6.261  16.012 -0.3306  0.6119 -0.1377
 9144TIP3    H148847   0.438   6.335  16.054 -1.1691 -0.3291  0.6792
 9144TIP3    H248848   0.510   6.205  16.086  1.9651  1.0158 -0.6320
 9145TIP3   OH248849   4.473   4.902   2.912 -0.3924  0.0350  0.3670
 9145TIP3    H148850   4.535   4.971   2.936  0.2310 -0.9195  1.6235
 9145TIP3    H248851   4.518   4.821   2.936 -1.0623 -0.8193 -1.1926
 9146TIP3   OH248852   4.281   5.254   3.108  0.1586  0.4532 -0.2313
 9146TIP3    H148853   4.213   5.229   3.046 -0.4360 -0.7201  0.8738
 9146TIP3    H248854   4.350   5.293   3.054 -0.8557  0.5184 -1.4870
 9147TIP3   OH248855   6.566   6.107  10.390 -0.4078  0.2449  0.3708
 9147TIP3    H148856   6.509   6.112  10.467 -0.1253  0.4032  0.5719
 9147TIP3    H248857   6.520   6.156  10.323 -0.1513  1.0284  0.7603
 9148TIP3   OH248858   6.666   3.200   2.766 -0.2285  0.2038  0.5076
 9148TIP3    H148859   6.618   3.132   2.813 -2.6921  1.2113 -0.4635
 9148TIP3    H248860   6.646   3.281   2.814  1.7660  0.4372  0.9908
 9149TIP3   OH248861   3.485   2.197   4.623  0.3693 -0.0803  0.2129
 9149TIP3    H148862   3.553   2.240   4.676 -0.2675  0.5372  0.5314
 9149TIP3    H248863   3.494   2.104   4.642  0.9397  0.0254  0.4704
 9150TIP3   OH248864   5.869   1.017  13.858 -0.4669  0.0162 -0.4613
 9150TIP3    H148865   5.906   1.073  13.926 -0.4573  0.0396 -0.4854
 9150TIP3    H248866   5.843   1.077  13.789 -0.1773 -0.0364 -0.6173
 9151TIP3   OH248867   2.893   5.348   2.079 -0.5337  0.1512 -0.3040
 9151TIP3    H148868   2.920   5.356   2.170 -0.6447 -0.7734 -0.1845
 9151TIP3    H248869   2.931   5.424   2.035 -0.7926  0.7962  0.5856
 9152TIP3   OH248870   0.200   6.509   2.620  0.1175  0.1653 -0.5413
 9152TIP3    H148871   0.206   6.595   2.661 -1.1384  0.1631 -0.3243
 9152TIP3    H248872   0.268   6.509   2.554  2.0649  0.2415  1.4092
 9153TIP3   OH248873   5.922   5.973  11.210 -0.4874 -0.4394 -0.0596
 9153TIP3    H148874   5.880   6.050  11.246 -1.8090 -1.2225  0.1007
 9153TIP3    H248875   5.955   6.001  11.125 -0.1751  0.5319  0.3755
 9154TIP3   OH248876   3.910   4.827   1.929  0.3198 -0.0182  0.3050
 9154TIP3    H148877   3.901   4.739   1.893  0.9073 -1.0094  2.5347
 9154TIP3    H248878   3.867   4.884   1.864 -1.6154 -2.1124 -0.3038
 9155TIP3   OH248879   4.844   3.907   5.100  0.5970 -0.2033  0.0985
 9155TIP3    H148880   4.930   3.875   5.128  1.2542  1.4406  0.0221
 9155TIP3    H248881   4.788   3.895   5.177  0.6719 -2.0171 -0.1007
 9156TIP3   OH248882   0.232   5.218   2.956  0.2660 -0.0234  0.3447
 9156TIP3    H148883   0.310   5.261   2.991  1.1639 -0.9222 -0.5320
 9156TIP3    H248884   0.184   5.189   3.034  0.4808  1.0787  0.9048
 9157TIP3   OH248885   5.866   5.485   4.019  0.0001 -0.6574  0.1629
 9157TIP3    H148886   5.930   5.553   3.999 -0.0525 -0.7072 -0.1706
 9157TIP3    H248887   5.836   5.454   3.934  0.7161 -1.7638  0.3184
 9158TIP3   OH248888   1.353   2.709  15.933 -0.0374  0.5743 -0.0387
 9158TIP3    H148889   1.286   2.662  15.983  0.7660  1.3988  1.8546
 9158TIP3    H248890   1.307   2.785  15.897 -0.5920  0.0386 -0.4731
 9159TIP3   OH248891   2.088   6.577   0.645 -0.5332  0.4815  0.2835
 9159TIP3    H148892   2.023   6.528   0.695 -0.3207  0.7618  0.8340
 9159TIP3    H248893   2.141   6.622   0.711 -1.2678  2.1537 -0.2319
 9160TIP3   OH248894   5.938   6.450   4.547  0.2106 -0.2346 -0.2231
 9160TIP3    H148895   5.950   6.457   4.642 -1.0717  0.0251 -0.0656
 9160TIP3    H248896   5.843   6.454   4.535  0.4478  1.6600 -1.6762
 9161TIP3   OH248897   3.662   6.064   1.715  0.3833  0.3422  0.1665
 9161TIP3    H148898   3.706   6.101   1.791  0.2415  0.8768 -0.0076
 9161TIP3    H248899   3.729   6.060   1.647  0.2211  0.9841 -0.0419
 9162TIP3   OH248900   2.247   3.985   3.618  0.4915 -0.3858  0.0496
 9162TIP3    H148901   2.269   4.006   3.708  1.0605  1.1792 -0.4338
 9162TIP3    H248902   2.263   3.891   3.611  0.0471 -0.5971  1.6737
 9163TIP3   OH248903   1.205   5.590   3.735  0.3278  0.4115  0.1955
 9163TIP3    H148904   1.150   5.568   3.660  0.2882  1.4912 -0.0972
 9163TIP3    H248905   1.241   5.506   3.764  1.1397  0.1115 -1.6424
 9164TIP3   OH248906   1.930   0.612  11.791  0.2762 -0.2715  0.0785
 9164TIP3    H148907   1.871   0.657  11.731  2.2266  0.5155 -1.3042
 9164TIP3    H248908   1.874   0.549  11.837 -1.2331 -1.0002 -2.6525
 9165TIP3   OH248909   0.656   0.725  12.302  0.7403 -0.2031  0.0018
 9165TIP3    H148910   0.718   0.658  12.272 -0.3374 -1.4508  0.4870
 9165TIP3    H248911   0.603   0.680  12.368 -0.3969  0.9597 -0.0979
 9166TIP3   OH248912   1.449   6.637  14.599  0.1909  0.0521  0.3376
 9166TIP3    H148913   1.422   6.667  14.686 -0.1295 -0.1587  0.3099
 9166TIP3    H248914   1.367   6.631  14.549  0.2399 -1.0446  0.3947
 9167TIP3   OH248915   0.676   3.378   2.144 -0.1162 -0.2918  0.4805
 9167TIP3    H148916   0.627   3.390   2.225 -0.8628 -0.1556  0.0212
 9167TIP3    H248917   0.647   3.449   2.088  0.7599 -0.0992  0.2643
 9168TIP3   OH248918   0.068   5.123   4.933 -0.1519  0.9865  0.2465
 9168TIP3    H148919  -0.006   5.077   4.973  0.8517  0.2835  1.2940
 9168TIP3    H248920   0.075   5.205   4.982 -1.1584  1.7280 -0.8191
 9169TIP3   OH248921   0.327   6.738   4.421 -0.0798  0.3771 -0.3773
 9169TIP3    H148922   0.383   6.795   4.474  1.2739 -0.5835 -0.7493
 9169TIP3    H248923   0.361   6.650   4.436 -3.2177 -0.5671  1.5294
 9170TIP3   OH248924   1.082   0.136   4.187  0.0078  0.2989 -0.4252
 9170TIP3    H148925   1.053   0.138   4.278 -1.6062 -1.1487 -0.8872
 9170TIP3    H248926   1.178   0.136   4.193 -0.0609 -1.1585  1.3367
 9171TIP3   OH248927   6.629   2.301   1.270 -0.3384 -0.2157  0.3834
 9171TIP3    H148928   6.546   2.344   1.251 -1.1682 -2.2843 -0.8186
 9171TIP3    H248929   6.688   2.331   1.200 -1.2184 -1.8346 -1.0811
 9172TIP3   OH248930   4.475   0.713  15.533  0.4278  0.2772 -0.5858
 9172TIP3    H148931   4.571   0.715  15.527  0.3324 -0.0101 -2.5131
 9172TIP3    H248932   4.457   0.682  15.622  2.1551 -2.4410 -1.1094
 9173TIP3   OH248933   1.393   1.944   3.872 -0.1233 -0.0760 -0.0794
 9173TIP3    H148934   1.359   1.932   3.783  2.8787 -1.8915 -1.0519
 9173TIP3    H248935   1.487   1.927   3.864  0.2224 -0.1496  3.4368
 9174TIP3   OH248936   1.722   3.220   1.562  0.2523  0.0992 -0.4519
 9174TIP3    H148937   1.776   3.155   1.608 -0.9663 -1.0304 -0.5885
 9174TIP3    H248938   1.745   3.208   1.470 -0.0412 -0.2108 -0.4862
 9175TIP3   OH248939   0.146   6.031  15.830  0.1416  0.2992 -0.2268
 9175TIP3    H148940   0.184   6.108  15.789  1.1707 -0.1672 -0.1696
 9175TIP3    H248941   0.180   5.957  15.780  0.8174 -0.2291  0.9806
 9176TIP3   OH248942   4.285   3.345  11.840 -0.2860 -0.1600  0.2066
 9176TIP3    H148943   4.214   3.380  11.894 -0.6003 -2.3766  1.2993
 9176TIP3    H248944   4.340   3.296  11.902 -0.1910 -2.0384 -1.3286
 9177TIP3   OH248945   0.172   4.375   2.933  0.1491  0.0548  0.3605
 9177TIP3    H148946   0.115   4.299   2.915  3.7924 -2.6042 -0.6499
 9177TIP3    H248947   0.160   4.432   2.857  0.0278 -1.2394 -0.6087
 9178TIP3   OH248948   1.777   2.425  16.862  0.2434 -0.5025  0.7777
 9178TIP3    H148949   1.821   2.379  16.934  2.3280 -0.1307 -0.2075
 9178TIP3    H248950   1.840   2.421  16.790  0.2277  3.3645  0.4673
 9179TIP3   OH248951   6.089   5.994  13.561  0.2275  0.3040  0.1833
 9179TIP3    H148952   6.098   5.944  13.642 -3.3456 -3.0536 -1.3218
 9179TIP3    H248953   6.151   5.953  13.501 -1.2167 -0.9582 -0.4475
 9180TIP3   OH248954   5.926   0.599   3.850  0.2031  0.0717 -0.3140
 9180TIP3    H148955   5.967   0.678   3.816 -1.6076  1.6179  0.9896
 9180TIP3    H248956   5.919   0.614   3.944 -0.6338 -1.4393 -0.1119
 9181TIP3   OH248957   2.670   2.048  15.236  0.0357 -0.2780  0.4100
 9181TIP3    H148958   2.732   1.994  15.187 -0.2762  0.7874 -1.2143
 9181TIP3    H248959   2.587   2.001  15.231 -0.2297  0.3180 -0.9758
 9182TIP3   OH248960   5.263   5.295  15.421  0.5618 -0.3314  0.2681
 9182TIP3    H148961   5.305   5.216  15.387 -0.2403 -0.9895  0.7816
 9182TIP3    H248962   5.174   5.292  15.386  0.4955  0.2846  0.3812
 9183TIP3   OH248963   6.240   4.740   1.864  0.5003  0.3039  0.5138
 9183TIP3    H148964   6.210   4.669   1.921  0.1227 -0.2227 -0.3363
 9183TIP3    H248965   6.210   4.820   1.908 -1.6941 -0.1808 -0.0408
 9184TIP3   OH248966   1.043   6.591   3.061  0.2973  0.4712 -0.6923
 9184TIP3    H148967   1.109   6.629   3.004 -1.0856  0.5167 -2.2843
 9184TIP3    H248968   1.071   6.615   3.150  1.4111  2.0531 -1.4536
 9185TIP3   OH248969   4.328   5.708  15.429 -0.9546 -0.8247 -0.1843
 9185TIP3    H148970   4.265   5.649  15.387 -0.3830 -1.4326 -0.2090
 9185TIP3    H248971   4.332   5.677  15.520  0.3996 -1.7246 -0.5425
 9186TIP3   OH248972   3.359   3.892  13.320 -0.2231  0.2511 -0.5855
 9186TIP3    H148973   3.379   3.986  13.314 -1.5914  0.4687 -2.1232
 9186TIP3    H248974   3.421   3.850  13.261 -1.4553  0.5063 -2.1132
 9187TIP3   OH248975   6.537   0.170  16.586 -0.0615  0.1359 -0.2395
 9187TIP3    H148976   6.450   0.200  16.559  0.0417  0.1448 -0.5547
 9187TIP3    H248977   6.568   0.116  16.513 -0.2716 -0.7996  0.3453
 9188TIP3   OH248978   6.450   4.047   3.315 -0.2197 -0.0426  0.0797
 9188TIP3    H148979   6.375   4.085   3.360  0.0428 -0.8396  1.2213
 9188TIP3    H248980   6.413   3.974   3.264 -0.2906 -0.1420  0.2725
 9189TIP3   OH248981   3.363   5.614  15.822 -0.1756 -0.5073  0.1674
 9189TIP3    H148982   3.343   5.707  15.814  1.6439 -0.2453 -1.6233
 9189TIP3    H248983   3.375   5.583  15.732  3.3635 -1.4950  0.8678
 9190TIP3   OH248984   0.189   3.738  12.121 -0.3530  0.2081 -0.1898
 9190TIP3    H148985   0.140   3.761  12.042 -1.8171 -2.1022 -0.0014
 9190TIP3    H248986   0.260   3.681  12.089 -0.0555  0.4720 -0.0029
 9191TIP3   OH248987   4.415   4.384   0.600  0.4741 -0.1322 -0.2153
 9191TIP3    H148988   4.374   4.368   0.685  0.8184  1.1273  0.1940
 9191TIP3    H248989   4.437   4.477   0.601  1.4650 -0.3503 -1.2604
 9192TIP3   OH248990   2.171   2.145   6.638  0.0756  0.4792 -0.9006
 9192TIP3    H148991   2.095   2.166   6.692 -0.5879  0.3908 -1.7960
 9192TIP3    H248992   2.217   2.228   6.628  0.5826  0.3632  0.3785
 9193TIP3   OH248993   4.774   3.720   4.241  0.0012  0.0703  0.3180
 9193TIP3    H148994   4.846   3.735   4.302  0.0909 -0.5833  0.3775
 9193TIP3    H248995   4.811   3.666   4.172 -0.4500 -0.3553  0.4027
 9194TIP3   OH248996   4.584   6.762   1.669  0.1692  0.1840  0.4655
 9194TIP3    H148997   4.527   6.833   1.638 -2.4151 -3.1123 -2.8733
 9194TIP3    H248998   4.672   6.790   1.644 -0.4122  3.5323  1.9409
 9195TIP3   OH248999   5.929   4.554   5.082  0.4044 -0.1417 -0.5051
 9195TIP3    H149000   5.872   4.493   5.128  0.1886  1.2958  1.1871
 9195TIP3    H249001   5.885   4.639   5.088  1.4521  0.4986 -1.4569
 9196TIP3   OH249002   5.916   0.366  16.186  0.0508 -0.5523 -0.6794
 9196TIP3    H149003   5.828   0.395  16.211  0.3158 -0.6683  0.4131
 9196TIP3    H249004   5.934   0.411  16.103 -0.7768 -0.0239 -0.5753
 9197TIP3   OH249005   3.484   0.694  17.110 -0.2628  0.3741 -0.2637
 9197TIP3    H149006   3.566   0.712  17.157  0.0630  0.4190 -0.8401
 9197TIP3    H249007   3.508   0.627  17.046 -0.8537 -0.1579  0.0794
 9198TIP3   OH249008   2.340   6.713   4.241 -0.7978 -0.3507 -0.7181
 9198TIP3    H149009   2.252   6.732   4.209 -1.8733 -0.9106  1.7775
 9198TIP3    H249010   2.351   6.619   4.226 -1.6397 -0.7923  1.2011
 9199TIP3   OH249011   1.646   3.612  14.096  0.1598  0.3243  0.2493
 9199TIP3    H149012   1.676   3.702  14.087  0.0329  0.5885  2.2161
 9199TIP3    H249013   1.721   3.566  14.133  0.1182 -0.3198 -0.4560
 9200TIP3   OH249014   2.075   1.095  10.984  0.1359 -0.2232 -0.9835
 9200TIP3    H149015   1.981   1.079  10.991  0.2529 -0.4203  0.3156
 9200TIP3    H249016   2.090   1.112  10.891 -1.0222 -1.1643 -1.3469
 9201TIP3   OH249017   4.057   4.356  16.169  0.1540  0.0511  0.3869
 9201TIP3    H149018   4.102   4.314  16.242 -1.0725 -0.3409  0.9275
 9201TIP3    H249019   4.011   4.430  16.209 -1.2572 -0.6958  0.1752
 9202TIP3   OH249020   4.963   6.526  16.400  0.3111 -0.4466  0.2302
 9202TIP3    H149021   4.915   6.602  16.432 -0.0812 -0.3928 -0.4892
 9202TIP3    H249022   5.055   6.546  16.420  0.6894  2.0120 -3.4942
 9203TIP3   OH249023   4.311   2.236   0.526 -0.3573  0.3096 -0.3910
 9203TIP3    H149024   4.247   2.190   0.579 -0.2948  0.0673 -0.5251
 9203TIP3    H249025   4.363   2.167   0.485 -1.9017  0.3961 -2.6376
 9204TIP3   OH249026   6.349   4.641   4.264 -0.0052 -0.1341 -0.1338
 9204TIP3    H149027   6.414   4.685   4.209 -0.6823 -0.8026 -1.4992
 9204TIP3    H249028   6.393   4.629   4.348  0.6226  2.0189 -0.1255
 9205TIP3   OH249029   3.210   3.205  15.295  0.2172 -0.2849  0.0771
 9205TIP3    H149030   3.264   3.283  15.309  1.1590 -0.8325 -0.4964
 9205TIP3    H249031   3.251   3.138  15.350 -0.3040 -0.5149  0.1870
 9206TIP3   OH249032   3.880   4.263  14.627 -0.1384 -0.2830  0.3252
 9206TIP3    H149033   3.793   4.282  14.663 -0.1181  0.4419  0.0014
 9206TIP3    H249034   3.939   4.320  14.677 -0.0333  0.2914 -0.4489
 9207TIP3   OH249035   1.428   1.251  12.964  0.4065  0.3676 -0.5173
 9207TIP3    H149036   1.353   1.193  12.973  0.3220  0.4479 -0.6889
 9207TIP3    H249037   1.398   1.318  12.902 -0.1575  1.6818  1.1551
 9208TIP3   OH249038   5.898   4.748   0.014 -0.1274  0.1335 -0.5645
 9208TIP3    H149039   5.989   4.746  -0.017  0.2515  0.0918  0.5238
 9208TIP3    H249040   5.891   4.831   0.062 -0.0774 -0.7746  1.0619
 9209TIP3   OH249041   3.272   6.590  16.549 -0.3595 -0.2985  0.4144
 9209TIP3    H149042   3.214   6.662  16.524  0.7586  0.4480 -0.0523
 9209TIP3    H249043   3.225   6.511  16.521 -0.5094  0.3734 -1.2973
 9210TIP3   OH249044   2.020   4.563  10.776  0.0014 -0.3694  0.1718
 9210TIP3    H149045   2.089   4.510  10.817 -1.7655 -0.6265  2.9071
 9210TIP3    H249046   1.938   4.522  10.803 -1.3055  1.4632 -0.8868
 9211TIP3   OH249047   6.517   0.955   2.097  0.1365 -0.1655  0.5919
 9211TIP3    H149048   6.515   0.859   2.094  1.3589 -0.2010  0.4763
 9211TIP3    H249049   6.535   0.975   2.188  1.4445 -0.1006  0.3351
 9212TIP3   OH249050   0.310   1.742   4.273  0.4836 -0.0095 -0.0114
 9212TIP3    H149051   0.342   1.688   4.344  2.8253 -0.3854 -1.3068
 9212TIP3    H249052   0.236   1.693   4.237 -1.1183  0.4767  2.4755
 9213TIP3   OH249053   5.068   1.084  11.491 -0.4628 -0.1971 -0.1746
 9213TIP3    H149054   5.049   1.164  11.540 -0.1569  0.1809 -0.6678
 9213TIP3    H249055   5.017   1.016  11.535  0.9245 -0.1549  1.5583
 9214TIP3   OH249056   2.462   1.736  13.828 -0.3986  0.0660 -0.4641
 9214TIP3    H149057   2.485   1.825  13.802 -0.5156  0.2699  0.1106
 9214TIP3    H249058   2.536   1.682  13.801 -1.2093  0.0150 -2.6538
 9215TIP3   OH249059   3.045   3.591  12.993  0.2390  0.1348 -0.5267
 9215TIP3    H149060   3.010   3.513  12.949 -0.9333  0.8779 -0.9476
 9215TIP3    H249061   3.123   3.614  12.942  0.2580 -0.4223 -0.7525
 9216TIP3   OH249062   1.756   4.347  15.289 -0.1198  0.1902  0.3799
 9216TIP3    H149063   1.673   4.326  15.332 -0.2053  0.1400  0.1926
 9216TIP3    H249064   1.780   4.267  15.242  0.6807 -0.2043  1.4547
 9217TIP3   OH249065   1.715   1.235  14.890 -0.1374 -0.3420 -0.2845
 9217TIP3    H149066   1.804   1.233  14.924  0.2730 -0.6192 -1.3292
 9217TIP3    H249067   1.726   1.257  14.797 -1.1869  0.0424 -0.3218
 9218TIP3   OH249068   4.655   3.347   1.366 -0.7295 -0.3697 -0.0171
 9218TIP3    H149069   4.619   3.435   1.371 -0.4263 -0.2205 -0.4203
 9218TIP3    H249070   4.581   3.289   1.384 -1.2294 -0.0725 -1.1407
 9219TIP3   OH249071   1.737   5.052   5.235  0.1973 -0.0864 -0.3833
 9219TIP3    H149072   1.789   5.081   5.310  1.7554 -3.4042 -0.0968
 9219TIP3    H249073   1.669   4.996   5.274  1.7344 -2.8010 -1.4563
 9220TIP3   OH249074   3.677   6.049  16.673 -0.3211 -0.4175 -0.1464
 9220TIP3    H149075   3.757   6.023  16.718 -0.9721 -2.6643 -0.2673
 9220TIP3    H249076   3.707   6.086  16.590  0.6158 -0.7829  0.0293
 9221TIP3   OH249077   3.854   6.035   4.393  0.7806  0.7581  0.5261
 9221TIP3    H149078   3.897   6.074   4.470  0.0854 -0.4787  1.5671
 9221TIP3    H249079   3.771   6.003   4.427 -0.0895  1.3297 -1.0465
 9222TIP3   OH249080   0.041   2.176  15.027  0.1263 -0.3074 -0.1029
 9222TIP3    H149081   0.058   2.187  14.933 -2.7226  1.5907 -0.4465
 9222TIP3    H249082   0.113   2.223  15.070  0.2793  0.6137 -1.3567
 9223TIP3   OH249083   3.982   3.995  11.445 -0.2802  0.0080  0.1819
 9223TIP3    H149084   3.960   3.902  11.443  1.9981 -0.5590  0.7817
 9223TIP3    H249085   3.996   4.019  11.353 -0.3319 -0.3699  0.0738
 9224TIP3   OH249086   6.638   1.478  14.760  0.2610 -0.4412  0.0347
 9224TIP3    H149087   6.617   1.504  14.850  0.0789 -0.6057  0.0407
 9224TIP3    H249088   6.661   1.385  14.768  2.4691  0.1095  0.2675
 9225TIP3   OH249089   1.641   3.308  12.546 -0.0755  0.2682  0.5530
 9225TIP3    H149090   1.724   3.337  12.582 -0.4857  1.8925  0.2472
 9225TIP3    H249091   1.665   3.246  12.477  0.9147  1.3677 -0.1009
 9226TIP3   OH249092   0.425   4.346  13.856 -0.1408  0.5250 -0.5838
 9226TIP3    H149093   0.435   4.435  13.891 -1.1758  0.5818 -0.4113
 9226TIP3    H249094   0.388   4.359  13.768 -3.7130  0.1785  0.7719
 9227TIP3   OH249095   6.272   3.516  15.070 -0.5734 -0.2338 -0.4341
 9227TIP3    H149096   6.335   3.539  15.139 -0.3730 -1.2898 -0.2580
 9227TIP3    H249097   6.274   3.590  15.010 -2.1966  1.6337  1.6977
 9228TIP3   OH249098   5.097   6.385   2.889 -0.0847  0.0030 -0.3623
 9228TIP3    H149099   5.109   6.420   2.978 -2.1205 -0.8354  0.2495
 9228TIP3    H249100   5.182   6.400   2.847 -0.0858  3.4188  0.6641
 9229TIP3   OH249101   4.503   3.692  15.761 -0.3067 -0.1429  0.0868
 9229TIP3    H149102   4.567   3.703  15.691  0.5865  0.9422  1.0448
 9229TIP3    H249103   4.419   3.713  15.721 -0.0158 -1.1516 -1.0697
 9230TIP3   OH249104   6.540   3.443  12.271  0.1135 -0.0130  0.1915
 9230TIP3    H149105   6.625   3.409  12.298  0.9120  1.3046 -0.6009
 9230TIP3    H249106   6.495   3.368  12.233  2.7791  0.2385 -3.7919
 9231TIP3   OH249107   1.905   4.553  12.349 -0.7614  0.2074 -0.7482
 9231TIP3    H149108   1.866   4.617  12.409 -2.0383  0.2554 -1.6248
 9231TIP3    H249109   1.851   4.557  12.271 -1.0508 -2.1702 -0.7043
 9232TIP3   OH249110   2.026   3.596   0.323 -0.3860 -0.1886 -0.8101
 9232TIP3    H149111   2.094   3.651   0.286  1.5659 -0.5222  2.1846
 9232TIP3    H249112   2.067   3.510   0.333 -1.5318 -0.6383  0.1515
 9233TIP3   OH249113   1.994   0.047   2.375  0.4069 -0.2429 -0.8289
 9233TIP3    H149114   2.062   0.054   2.308  0.9045 -0.7075 -0.3826
 9233TIP3    H249115   2.039   0.067   2.457 -0.2495  0.5541 -0.6580
 9234TIP3   OH249116   4.732   2.361  11.320 -0.1111  0.2148 -0.6305
 9234TIP3    H149117   4.781   2.306  11.381  0.5875 -0.9080 -2.1596
 9234TIP3    H249118   4.764   2.336  11.234 -2.3745  0.4697 -1.5874
 9235TIP3   OH249119   5.445   3.689  11.769 -0.4758 -0.9375  0.3558
 9235TIP3    H149120   5.514   3.623  11.762 -1.0345 -1.5851  0.8403
 9235TIP3    H249121   5.383   3.652  11.833 -1.2134 -0.3188  0.0073
 9236TIP3   OH249122   4.371   0.329   2.734  0.4719  0.2355  0.4349
 9236TIP3    H149123   4.396   0.264   2.669 -0.3845  0.0059  0.3228
 9236TIP3    H249124   4.305   0.383   2.689 -0.9222 -0.5838  1.4457
 9237TIP3   OH249125   6.003   3.677   1.769  0.0619 -0.3212 -0.3427
 9237TIP3    H149126   6.060   3.601   1.783  0.1589  0.0568  1.3378
 9237TIP3    H249127   5.937   3.670   1.837 -0.4601  0.6192 -0.7486
 9238TIP3   OH249128   1.466   4.458  16.187  0.0597 -0.0955  0.2074
 9238TIP3    H149129   1.432   4.532  16.137  0.4627  0.9860  1.5238
 9238TIP3    H249130   1.388   4.418  16.226  0.0710  1.2421  1.6583
 9239TIP3   OH249131   5.052   3.307  15.188  0.2293  0.4467 -0.2294
 9239TIP3    H149132   5.104   3.255  15.128  1.2707  1.3853 -0.1595
 9239TIP3    H249133   5.116   3.356  15.240 -0.6841  0.6425  0.7416
 9240TIP3   OH249134   6.338   2.809   5.396  0.1302 -0.0335  0.2654
 9240TIP3    H149135   6.424   2.845   5.373 -0.2587  1.7004  1.3926
 9240TIP3    H249136   6.348   2.715   5.387  2.3995  0.0773  1.1525
 9241TIP3   OH249137   1.574   3.849   1.244  0.1964  0.1074  0.4541
 9241TIP3    H149138   1.548   3.825   1.333 -1.2557  0.2448  0.0769
 9241TIP3    H249139   1.513   3.918   1.218  0.8727  0.3670 -0.5021
 9242TIP3   OH249140   3.244   0.909  13.913 -0.0673 -0.0268 -0.2609
 9242TIP3    H149141   3.288   0.939  13.993  0.4644 -0.8431 -0.2362
 9242TIP3    H249142   3.152   0.901  13.938  0.3707 -2.0997  0.8289
 9243TIP3   OH249143   6.777   5.939   2.736  0.6157  0.3967 -0.1404
 9243TIP3    H149144   6.845   5.896   2.788  0.6571  0.1189 -0.4258
 9243TIP3    H249145   6.732   5.867   2.691 -0.6030  0.4639  0.9295
 9244TIP3   OH249146   5.154   0.925   1.842 -0.0419 -0.3212  0.9685
 9244TIP3    H149147   5.145   0.833   1.866 -2.0866 -0.4541 -0.2172
 9244TIP3    H249148   5.177   0.924   1.750  0.0093  0.3466  0.9728
 9245TIP3   OH249149   5.921   6.116  16.947 -0.3140 -0.4785  0.7073
 9245TIP3    H149150   5.924   6.198  16.996 -1.7270 -0.4890  0.8536
 9245TIP3    H249151   5.978   6.056  16.995  2.3492  0.9928 -0.5264
 9246TIP3   OH249152   4.137   6.678   0.059 -0.1305 -0.0826 -0.6629
 9246TIP3    H149153   4.080   6.749   0.030  0.0023  0.0213 -0.6637
 9246TIP3    H249154   4.076   6.612   0.094 -0.2133  0.2768 -0.1214
 9247TIP3   OH249155   3.522   5.656  13.178 -0.1286  0.0820  0.0663
 9247TIP3    H149156   3.427   5.650  13.186 -0.0682 -0.7399  0.2305
 9247TIP3    H249157   3.548   5.575  13.134  0.4153  0.6802 -0.7256
 9248TIP3   OH249158   6.089   4.482  14.150 -0.3477 -0.1698  0.0862
 9248TIP3    H149159   6.014   4.470  14.092 -1.6795  0.7386  1.5658
 9248TIP3    H249160   6.132   4.561  14.117 -0.7124 -0.0373 -0.0758
 9249TIP3   OH249161   1.655   1.512  13.054 -0.2940  0.1506 -0.0782
 9249TIP3    H149162   1.608   1.593  13.069 -0.4235  0.0586  0.0162
 9249TIP3    H249163   1.728   1.536  12.997  0.0429  0.4613  0.4729
 9250TIP3   OH249164   1.327   2.878   3.272  0.3652  0.7791 -0.3567
 9250TIP3    H149165   1.357   2.892   3.362 -3.1804  0.9132  0.8715
 9250TIP3    H249166   1.366   2.950   3.222  0.8169  1.8152  1.4671
 9251TIP3   OH249167   0.606   0.577   0.739  0.5204 -0.2218  0.3357
 9251TIP3    H149168   0.632   0.487   0.760  1.1826 -0.3353 -0.8750
 9251TIP3    H249169   0.689   0.624   0.732  0.1576  0.5731  1.3209
 9252TIP3   OH249170   2.936   5.969  14.451  0.2714  0.7417  0.1322
 9252TIP3    H149171   2.912   5.894  14.506 -1.0439  1.0568  0.0168
 9252TIP3    H249172   3.031   5.966  14.447  0.2083 -1.5293 -0.7127
 9253TIP3   OH249173   4.071   2.076  14.574  0.0574 -0.5901 -0.2549
 9253TIP3    H149174   4.110   2.092  14.660 -1.8504  2.6311  0.0956
 9253TIP3    H249175   3.978   2.095  14.586 -0.1933  0.2248 -3.0591
 9254TIP3   OH249176   4.638   6.768   5.645  0.2342  0.2656  0.0103
 9254TIP3    H149177   4.550   6.805   5.642 -0.5593 -1.6708 -0.9200
 9254TIP3    H249178   4.663   6.773   5.737 -0.4334  1.7364  0.1265
 9255TIP3   OH249179   3.771   2.998   4.912  0.2088  0.4940  0.3580
 9255TIP3    H149180   3.678   2.983   4.899  0.0605  0.6952  1.1605
 9255TIP3    H249181   3.778   3.028   5.002  0.9666  1.2069  0.0701
 9256TIP3   OH249182   0.779   2.193  13.826  0.3243  0.0033  0.3309
 9256TIP3    H149183   0.699   2.230  13.789  0.4850  0.7647  0.7487
 9256TIP3    H249184   0.849   2.230  13.771  0.5129  0.6226  0.9872
 9257TIP3   OH249185   1.418   4.031   4.672  0.0820  0.1258 -0.6109
 9257TIP3    H149186   1.476   4.057   4.744 -0.8861 -0.1680  0.2976
 9257TIP3    H249187   1.341   3.993   4.716  0.1978 -1.5924 -1.8293
 9258TIP3   OH249188   5.785   3.749  13.542  0.3071  0.6027 -0.3499
 9258TIP3    H149189   5.791   3.654  13.531 -0.9479  0.5259 -0.4032
 9258TIP3    H249190   5.718   3.761  13.609  1.2445  1.4186  0.4443
 9259TIP3   OH249191   1.858   4.265  12.143 -0.9468  0.2538  0.5325
 9259TIP3    H149192   1.781   4.255  12.199 -0.8794  0.8090  0.7229
 9259TIP3    H249193   1.828   4.322  12.072 -0.1195  2.2161  1.7252
 9260TIP3   OH249194   5.406   5.491  16.261 -0.1723  0.0038 -0.3296
 9260TIP3    H149195   5.444   5.568  16.302 -0.5320  0.7617 -1.4058
 9260TIP3    H249196   5.317   5.486  16.296 -0.1196  0.0260 -0.1918
 9261TIP3   OH249197   0.517   3.026   3.426  0.3743  0.9773  0.3232
 9261TIP3    H149198   0.539   2.933   3.428  1.0635  1.1066 -0.7923
 9261TIP3    H249199   0.587   3.069   3.475  0.8668  1.0579 -0.4464
 9262TIP3   OH249200   0.753   1.054   2.582  0.3417  0.4350  0.0090
 9262TIP3    H149201   0.773   1.018   2.495 -0.3949  0.2889 -0.1015
 9262TIP3    H249202   0.838   1.056   2.627  0.6641  0.1563 -0.5815
 9263TIP3   OH249203   0.271   3.188   5.438 -0.7429  0.4009 -0.0688
 9263TIP3    H149204   0.187   3.201   5.394 -1.0697  2.3938  1.0886
 9263TIP3    H249205   0.319   3.269   5.423  0.2216  0.0325  0.9306
 9264TIP3   OH249206   3.220   5.387  14.644 -0.3168  0.1414 -0.1490
 9264TIP3    H149207   3.261   5.373  14.729  0.5281  2.1816 -0.2105
 9264TIP3    H249208   3.292   5.400  14.584 -0.9180 -1.1549 -1.1901
 9265TIP3   OH249209   5.313   4.098   2.099 -0.2099  0.3715  0.5277
 9265TIP3    H149210   5.376   4.122   2.167  0.4975 -0.2974  0.1105
 9265TIP3    H249211   5.228   4.112   2.140  0.1766 -1.8988  2.2448
 9266TIP3   OH249212   1.244   5.972  13.948 -0.1977 -0.8375  0.0757
 9266TIP3    H149213   1.293   5.998  13.869  0.4788 -2.2042  0.0176
 9266TIP3    H249214   1.213   6.054  13.985 -0.4306 -0.1563 -1.5588
 9267TIP3   OH249215   2.341   5.410  12.754  0.1418 -0.1128  0.3284
 9267TIP3    H149216   2.384   5.342  12.806  0.7629 -0.5135 -0.6928
 9267TIP3    H249217   2.257   5.372  12.730  0.0764 -0.1324  0.5845
 9268TIP3   OH249218   3.203   3.675   1.700  0.4716 -0.4450  0.5122
 9268TIP3    H149219   3.184   3.747   1.640  1.1521 -0.4886  0.2417
 9268TIP3    H249220   3.193   3.713   1.787  1.0450  0.0345  0.3708
 9269TIP3   OH249221   4.707   2.556  12.422  0.3457 -0.2167  0.1495
 9269TIP3    H149222   4.656   2.625  12.379  0.9401  0.7661  0.9789
 9269TIP3    H249223   4.713   2.585  12.513  1.3948 -0.8922  0.2999
 9270TIP3   OH249224   1.840   4.227   0.714  0.0313  0.0523  0.2035
 9270TIP3    H149225   1.878   4.149   0.754 -2.4069 -0.5228  1.4847
 9270TIP3    H249226   1.754   4.236   0.755 -0.0517  2.9666 -0.5047
 9271TIP3   OH249227   6.237   5.383   4.470 -0.1654  0.2266 -0.4586
 9271TIP3    H149228   6.294   5.458   4.451  1.6554 -1.4588 -1.8288
 9271TIP3    H249229   6.276   5.341   4.546  0.4300 -0.9027 -1.3715
 9272TIP3   OH249230   4.922   3.856  14.055  0.7923  0.1195 -0.0757
 9272TIP3    H149231   4.878   3.797  13.994  0.4507  1.2877 -0.9828
 9272TIP3    H249232   4.955   3.799  14.125 -2.5779 -0.7540  0.9055
 9273TIP3   OH249233   4.283   2.157   1.994 -0.0919 -0.5989  0.2612
 9273TIP3    H149234   4.275   2.122   1.905  1.6312 -1.1267  0.3025
 9273TIP3    H249235   4.197   2.142   2.033 -1.1877  0.5922 -1.6412
 9274TIP3   OH249236   0.419   2.825  14.532 -0.5771 -0.2802  0.1597
 9274TIP3    H149237   0.423   2.877  14.452  1.2892  1.1393  1.1322
 9274TIP3    H249238   0.379   2.884  14.597  3.4806  0.7937  1.8234
 9275TIP3   OH249239   4.522   0.179  16.076  0.0728  0.2167  0.2988
 9275TIP3    H149240   4.516   0.182  16.172  0.9304 -0.4519  0.3803
 9275TIP3    H249241   4.499   0.089  16.054  1.8400 -0.1769  0.0281
 9276TIP3   OH249242   1.076   6.660   4.565  0.1110  0.2467 -0.0366
 9276TIP3    H149243   0.999   6.629   4.613 -0.0338  0.4466 -0.1382
 9276TIP3    H249244   1.111   6.581   4.523 -0.8947  0.3968 -1.1936
 9277TIP3   OH249245   3.760   0.904   0.953  0.5418  0.4217 -0.3181
 9277TIP3    H149246   3.823   0.933   0.887  0.6657  0.4692 -0.1782
 9277TIP3    H249247   3.765   0.969   1.022  0.6028  0.2310 -0.1417
 9278TIP3   OH249248   0.229   5.982   4.005 -0.4234  0.6344 -1.0700
 9278TIP3    H149249   0.136   5.970   4.020 -0.2854  0.2057 -0.5270
 9278TIP3    H249250   0.245   5.944   3.919 -0.4123 -1.0331 -0.3453
 9279TIP3   OH249251   0.197   4.582  16.226  0.1413 -0.3423 -0.1211
 9279TIP3    H149252   0.182   4.489  16.236 -0.2583 -0.4260 -1.4172
 9279TIP3    H249253   0.292   4.591  16.219  0.3119 -0.4520  1.7994
 9280TIP3   OH249254   1.905   5.688   5.818  0.7631 -0.2214  0.3244
 9280TIP3    H149255   1.916   5.658   5.908  1.2485 -1.0269  0.0050
 9280TIP3    H249256   1.917   5.609   5.765  0.7880  0.3052 -0.4631
 9281TIP3   OH249257   0.577   0.673  15.389  0.4277 -0.5226  0.1718
 9281TIP3    H149258   0.582   0.646  15.481  0.2999 -2.9128 -0.4743
 9281TIP3    H249259   0.584   0.591  15.340 -0.6037  0.6028 -1.9246
 9282TIP3   OH249260   2.302   6.765  16.840 -0.1866 -0.2083 -0.2898
 9282TIP3    H149261   2.225   6.712  16.819 -0.5856  0.2261  0.0566
 9282TIP3    H249262   2.267   6.839  16.891  0.5891 -0.5321  0.7300
 9283TIP3   OH249263   0.123   5.859   0.039 -0.1089 -1.0512 -0.5894
 9283TIP3    H149264   0.166   5.831   0.119 -0.6146  0.3460  0.1955
 9283TIP3    H249265   0.102   5.778  -0.008  2.7196 -1.7708 -0.6639
 9284TIP3   OH249266   2.215   5.746  15.349 -0.1523  0.0927  0.2892
 9284TIP3    H149267   2.287   5.687  15.327 -0.2151  0.2789 -0.4149
 9284TIP3    H249268   2.164   5.698  15.414  0.1597 -0.3658  0.1961
 9285TIP3   OH249269   2.342   0.127  15.269 -0.3993  0.1663  0.2565
 9285TIP3    H149270   2.251   0.157  15.270 -0.7605 -0.8949  2.5395
 9285TIP3    H249271   2.336   0.032  15.265  0.6163  0.0832  0.5782
 9286TIP3   OH249272   1.601   4.930  17.050 -0.3173  0.3157  0.2147
 9286TIP3    H149273   1.665   4.873  17.094 -0.2757  0.2806  0.1105
 9286TIP3    H249274   1.521   4.921  17.101 -0.3463  0.0641  0.1273
 9287TIP3   OH249275   3.613   2.354   3.744 -0.3060 -0.1658  0.0799
 9287TIP3    H149276   3.638   2.440   3.778 -0.6800  0.8312 -2.0979
 9287TIP3    H249277   3.585   2.370   3.654  0.4416 -2.6872 -0.6609
 9288TIP3   OH249278   4.098   2.385   5.818 -0.9430  0.1782 -0.3150
 9288TIP3    H149279   4.023   2.340   5.780 -0.1064 -0.5578 -1.1221
 9288TIP3    H249280   4.163   2.316   5.832 -0.6061  0.7225  0.8696
 9289TIP3   OH249281   2.044   1.543   0.613 -0.9269 -0.5464 -0.3155
 9289TIP3    H149282   1.979   1.478   0.588 -0.6156  0.1379 -3.0710
 9289TIP3    H249283   2.073   1.581   0.530  2.4636 -0.3428  0.8790
 9290TIP3   OH249284   6.362   4.032  14.249  0.2579 -0.1114  0.7718
 9290TIP3    H149285   6.333   3.964  14.310  1.5981  0.9819  2.7197
 9290TIP3    H249286   6.289   4.094  14.245 -0.8536 -1.4842 -0.7873
 9291TIP3   OH249287   4.285   2.305  14.445 -0.0031  0.0283  0.3921
 9291TIP3    H149288   4.295   2.210  14.442 -1.1527 -0.1892  2.3519
 9291TIP3    H249289   4.369   2.337  14.480 -0.2493 -0.4388  1.4494
 9292TIP3   OH249290   6.412   5.902  14.222 -0.2825 -0.3180 -0.5992
 9292TIP3    H149291   6.488   5.915  14.279 -0.1730  1.3451 -1.1116
 9292TIP3    H249292   6.349   5.968  14.250 -0.9696 -0.7340 -1.1532
 9293TIP3   OH249293   3.829   5.639   0.956 -0.3291 -0.1279 -0.4636
 9293TIP3    H149294   3.904   5.697   0.944 -1.1406  1.0047 -0.1186
 9293TIP3    H249295   3.754   5.698   0.963 -1.2468 -1.2483 -0.7432
 9294TIP3   OH249296   0.143   5.610  12.597  0.0654 -1.0815  0.0527
 9294TIP3    H149297   0.052   5.581  12.588  0.3994 -2.1783  0.2096
 9294TIP3    H249298   0.169   5.582  12.684  0.3670 -0.2083  0.2532
 9295TIP3   OH249299   5.255   2.587  16.382  0.2819  0.1760  0.5964
 9295TIP3    H149300   5.212   2.557  16.462 -0.9736  2.2425  0.7305
 9295TIP3    H249301   5.235   2.519  16.317 -0.4875 -0.4564  1.4848
 9296TIP3   OH249302   1.375   3.865  11.501 -0.1233 -0.0363 -0.2262
 9296TIP3    H149303   1.298   3.824  11.462  0.8432 -0.8801 -1.2332
 9296TIP3    H249304   1.397   3.937  11.442 -1.7992  2.0031  1.5172
 9297TIP3   OH249305   3.646   1.373  14.518  0.0612 -0.0931  0.4293
 9297TIP3    H149306   3.666   1.328  14.601 -1.0756 -1.3123  0.0708
 9297TIP3    H249307   3.558   1.344  14.497 -0.4075  1.7648 -0.2233
 9298TIP3   OH249308   2.554   5.320  13.216 -0.2154  0.8676  0.5868
 9298TIP3    H149309   2.636   5.320  13.265  0.4211 -0.8255 -0.4546
 9298TIP3    H249310   2.569   5.381  13.144  0.5422 -0.2595 -0.2346
 9299TIP3   OH249311   1.223   2.934   5.570  0.0113 -0.2109 -0.0502
 9299TIP3    H149312   1.162   2.879   5.522 -0.5297  0.4888 -0.1747
 9299TIP3    H249313   1.179   2.951   5.654 -0.9523  2.0958 -0.9942
 9300TIP3   OH249314   5.283   1.701  15.601 -0.4840 -0.4444  0.3919
 9300TIP3    H149315   5.377   1.686  15.591 -0.3333 -0.3895  1.5549
 9300TIP3    H249316   5.278   1.772  15.666 -1.3278 -0.6284  0.5316
 9301TIP3   OH249317   2.077   4.781  14.802  0.1026  0.1957 -0.1226
 9301TIP3    H149318   2.093   4.697  14.760 -0.0963 -0.0607  0.3125
 9301TIP3    H249319   1.982   4.790  14.802  0.1870  1.3752 -2.0379
 9302TIP3   OH249320   1.301   4.394   3.405 -0.3526 -0.5176 -0.2020
 9302TIP3    H149321   1.326   4.485   3.420 -0.5006 -0.3023 -1.2668
 9302TIP3    H249322   1.273   4.363   3.491  0.8462  0.0807  0.4152
 9303TIP3   OH249323   3.563   0.357  17.216  0.2045 -0.2169 -0.3304
 9303TIP3    H149324   3.554   0.265  17.242 -1.4353 -0.0450 -0.2094
 9303TIP3    H249325   3.636   0.357  17.154  1.2380 -1.3466  0.8309
 9304TIP3   OH249326   2.518   4.401   4.487 -0.3233  0.5208 -0.2119
 9304TIP3    H149327   2.463   4.336   4.445  0.3920 -1.3067  1.6066
 9304TIP3    H249328   2.456   4.459   4.532 -0.8098 -1.3802  1.6356
 9305TIP3   OH249329   6.754   5.717   5.872 -0.7008  0.0892 -0.0481
 9305TIP3    H149330   6.830   5.697   5.925  0.2016  0.1034 -1.3052
 9305TIP3    H249331   6.679   5.697   5.928  0.1938 -2.7767  0.2337
 9306TIP3   OH249332   6.142   6.599   1.083 -0.5694 -0.5327 -0.5677
 9306TIP3    H149333   6.132   6.506   1.065  0.4113 -0.5971 -0.8052
 9306TIP3    H249334   6.134   6.606   1.178 -0.3437 -0.9014 -0.5206
 9307TIP3   OH249335   2.908   5.544   5.399  0.6224 -0.9473  0.0400
 9307TIP3    H149336   2.948   5.483   5.461  1.5141  0.3414  0.7601
 9307TIP3    H249337   2.950   5.524   5.315  0.3392 -1.8421  0.1078
 9308TIP3   OH249338   1.959   0.223  10.949  0.2360  0.8500  0.0634
 9308TIP3    H149339   2.007   0.296  10.988  1.4544  0.3634 -0.5100
 9308TIP3    H249340   1.882   0.264  10.908 -0.1981  1.5495  1.5522
 9309TIP3   OH249341   5.857   3.390   1.762 -0.2936 -0.0324 -0.6198
 9309TIP3    H149342   5.799   3.319   1.737  1.5856 -1.3001 -1.5197
 9309TIP3    H249343   5.941   3.347   1.780  0.6960  1.8742 -0.5767
 9310TIP3   OH249344   0.657   3.262  17.075  0.0915 -0.5124  0.1103
 9310TIP3    H149345   0.648   3.358  17.075 -0.2579 -0.5370  1.2954
 9310TIP3    H249346   0.651   3.238  17.167  0.5793 -1.6491 -0.1536
 9311TIP3   OH249347   3.908   4.623   1.734  0.5976  0.0032 -0.3638
 9311TIP3    H149348   3.977   4.666   1.682  1.9735 -0.8904  0.6893
 9311TIP3    H249349   3.942   4.535   1.751 -0.9560 -0.5645 -0.0908
 9312TIP3   OH249350   4.906   6.692   0.070 -0.4315  0.1438 -0.1284
 9312TIP3    H149351   4.824   6.712   0.024  0.0259 -0.0099 -1.0212
 9312TIP3    H249352   4.878   6.663   0.156 -1.4581 -2.4727 -1.2887
 9313TIP3   OH249353   1.971   6.114   5.189 -0.0660 -0.2146 -0.0371
 9313TIP3    H149354   2.019   6.075   5.116 -1.1627 -0.0097 -0.8820
 9313TIP3    H249355   1.953   6.041   5.249  0.1208 -0.5355 -0.3742
 9314TIP3   OH249356   1.852   1.347   2.899  0.1458 -0.3230 -0.2221
 9314TIP3    H149357   1.861   1.313   2.810  3.0277 -0.8640  0.2285
 9314TIP3    H249358   1.888   1.435   2.895  0.6307 -0.4873  0.5019
 9315TIP3   OH249359   3.155   0.104   0.987 -0.2160  0.0953  0.1319
 9315TIP3    H149360   3.085   0.167   0.971  0.0269  0.0807 -0.9750
 9315TIP3    H249361   3.118   0.019   0.966  0.6007  0.2361 -1.9410
 9316TIP3   OH249362   5.396   5.491  15.297  0.2242 -0.2089 -0.2807
 9316TIP3    H149363   5.353   5.432  15.359  1.5022 -0.9180 -0.0429
 9316TIP3    H249364   5.448   5.433  15.242  3.1868  0.8116  1.2935
 9317TIP3   OH249365   1.736   4.589  15.547 -0.6140 -0.3055  0.3373
 9317TIP3    H149366   1.832   4.580  15.548 -0.5801 -0.0510 -0.3549
 9317TIP3    H249367   1.707   4.533  15.475 -0.8642  0.6493 -0.3282
 9318TIP3   OH249368   0.117   6.643   0.641 -0.8398 -0.2424  0.1974
 9318TIP3    H149369   0.025   6.650   0.666 -0.4495 -0.9921  1.8681
 9318TIP3    H249370   0.165   6.685   0.712  0.2252 -1.5364  0.2687
 9319TIP3   OH249371   4.009   1.516  10.974  0.5267  0.0842 -0.1468
 9319TIP3    H149372   3.947   1.580  10.940 -0.2409 -0.3409  0.4399
 9319TIP3    H249373   4.093   1.541  10.935 -0.2477 -0.1502 -2.0248
 9320TIP3   OH249374   1.186   1.009  15.388  0.1002  0.4999  0.1963
 9320TIP3    H149375   1.172   0.980  15.298 -0.7914  0.1610  0.4368
 9320TIP3    H249376   1.259   0.956  15.419 -2.4788 -2.7290  1.1447
 9321TIP3   OH249377   3.528   3.025  12.551  0.4799  0.2377  0.2162
 9321TIP3    H149378   3.516   3.082  12.475  1.0848 -1.1383 -0.9331
 9321TIP3    H249379   3.442   2.985  12.566  0.3379  0.5812  0.3119
 9322TIP3   OH249380   0.771   1.320  17.027  0.1236 -0.4194 -0.1074
 9322TIP3    H149381   0.828   1.384  16.983 -1.6600  0.5908 -0.9878
 9322TIP3    H249382   0.830   1.273  17.086  1.9446  0.3781 -1.2353
 9323TIP3   OH249383   0.232   0.402   4.175 -0.2739  0.5931  0.2330
 9323TIP3    H149384   0.196   0.348   4.105  2.0363 -0.3723 -0.2534
 9323TIP3    H249385   0.257   0.340   4.243  1.4413  1.1213  0.1089
 9324TIP3   OH249386   4.613   4.688  16.008 -0.5100 -0.1668  0.1886
 9324TIP3    H149387   4.705   4.662  16.011 -0.5477 -0.4326 -0.7936
 9324TIP3    H249388   4.576   4.636  15.936 -1.2338  0.5478  0.0402
 9325TIP3   OH249389   1.985   5.674   5.319 -0.1735 -0.0353 -0.5274
 9325TIP3    H149390   2.071   5.706   5.291 -0.2267 -0.4343 -1.1675
 9325TIP3    H249391   1.932   5.752   5.331  0.0098  0.1713 -1.0432
 9326TIP3   OH249392   1.777   2.333  15.718 -0.1916 -0.3406  0.1606
 9326TIP3    H149393   1.753   2.255  15.668  3.1892 -1.1842 -0.2672
 9326TIP3    H249394   1.798   2.300  15.805  1.1720  0.0750  0.0044
 9327TIP3   OH249395   1.730   6.461  11.159 -0.0505 -0.4332 -0.3816
 9327TIP3    H149396   1.642   6.462  11.119 -0.1558 -2.2195 -0.1968
 9327TIP3    H249397   1.784   6.507  11.095 -1.1146  0.7204 -0.4887
 9328TIP3   OH249398   2.758   0.968  13.269 -0.0868  0.2301  0.2079
 9328TIP3    H149399   2.666   0.979  13.294  0.5324  0.1690  2.6057
 9328TIP3    H249400   2.792   0.904  13.332  1.2897 -0.7136 -1.4564
 9329TIP3   OH249401   5.024   6.209   3.183  0.5163 -0.0280 -0.2048
 9329TIP3    H149402   5.061   6.216   3.095  0.5349 -0.6283 -0.2483
 9329TIP3    H249403   5.092   6.165   3.234  0.7110  0.7792  0.2376
 9330TIP3   OH249404   3.812   5.867  10.614  0.6649  0.4316 -0.1063
 9330TIP3    H149405   3.850   5.847  10.528  0.2603  3.4950 -1.0684
 9330TIP3    H249406   3.887   5.890  10.669  0.8899 -1.1507  0.2518
 9331TIP3   OH249407   3.283   1.455   6.424 -0.2904  0.7910 -0.2309
 9331TIP3    H149408   3.313   1.518   6.359  0.8180  0.3363 -0.1814
 9331TIP3    H249409   3.284   1.503   6.507  0.8988  0.6122 -0.1380
 9332TIP3   OH249410   1.582   4.207  12.272  0.0702 -0.3029  0.1078
 9332TIP3    H149411   1.558   4.118  12.299 -1.8062  0.2840  0.3814
 9332TIP3    H249412   1.513   4.233  12.212  1.5180  0.3491 -1.3087
 9333TIP3   OH249413   2.828   3.976  11.649  0.2897 -0.1199 -0.2544
 9333TIP3    H149414   2.781   4.011  11.573  0.6653 -1.6168 -1.1981
 9333TIP3    H249415   2.760   3.966  11.717  0.2760  2.8671  0.2121
 9334TIP3   OH249416   5.612   4.787   4.255  0.7385  0.3788 -0.5059
 9334TIP3    H149417   5.594   4.738   4.175  2.5610  1.5090 -1.6640
 9334TIP3    H249418   5.596   4.724   4.326  0.0686 -0.9441 -1.7939
 9335TIP3   OH249419   1.664   4.627  12.719 -0.9684  0.1915  0.0975
 9335TIP3    H149420   1.612   4.565  12.769  1.0718 -1.8396 -0.2613
 9335TIP3    H249421   1.636   4.614  12.628  0.1308 -0.8696 -0.0900
 9336TIP3   OH249422   2.563   1.879  17.219  0.0123 -0.2034 -0.8115
 9336TIP3    H149423   2.615   1.840  17.149 -0.1700 -1.3688 -0.2974
 9336TIP3    H249424   2.538   1.806  17.274  1.1485  0.8288  1.1400
 9337TIP3   OH249425   4.384   6.471  15.910 -0.2516  0.1157 -0.2111
 9337TIP3    H149426   4.413   6.401  15.969  0.5045  1.5704  1.1905
 9337TIP3    H249427   4.422   6.447  15.825  0.6933 -0.7550  0.4338
 9338TIP3   OH249428   5.837   0.804   5.982 -0.1022  0.1518  0.7243
 9338TIP3    H149429   5.762   0.751   5.955  1.1029 -1.0785 -0.2741
 9338TIP3    H249430   5.812   0.841   6.066 -0.3727 -3.2372  2.2034
 9339TIP3   OH249431   2.740   1.791  13.828 -0.2540 -0.1301 -0.0147
 9339TIP3    H149432   2.754   1.781  13.923 -0.9470  0.4381  0.1505
 9339TIP3    H249433   2.817   1.839  13.798 -0.5927  0.7218  0.4602
 9340TIP3   OH249434   3.278   4.821  12.923 -0.0377 -0.3603 -0.2221
 9340TIP3    H149435   3.302   4.740  12.968 -0.5090  0.1254  0.9087
 9340TIP3    H249436   3.356   4.842  12.871  0.7532 -0.5998  0.8328
 9341TIP3   OH249437   1.093   3.311   2.665 -0.3113 -0.3175  0.1377
 9341TIP3    H149438   1.147   3.389   2.654 -0.3798 -0.1372  0.9957
 9341TIP3    H249439   1.069   3.313   2.758 -2.2517 -0.0953 -0.3574
 9342TIP3   OH249440   3.674   2.918   6.737  0.3207  0.4002 -0.4946
 9342TIP3    H149441   3.728   2.947   6.663  1.5645  1.7233  0.8766
 9342TIP3    H249442   3.592   2.967   6.728  1.3957  2.4252  0.3224
 9343TIP3   OH249443   3.890   0.583  13.763 -0.0241 -0.2410  0.4826
 9343TIP3    H149444   3.940   0.664  13.766 -0.7812  0.2405  0.2940
 9343TIP3    H249445   3.928   0.529  13.832 -0.6650  0.9652  1.8137
 9344TIP3   OH249446   3.041   3.065  16.024  0.0510 -0.3635 -0.4268
 9344TIP3    H149447   3.048   3.154  16.061  1.3895 -1.1934  1.3800
 9344TIP3    H249448   3.022   3.009  16.099  0.5082 -1.7868 -1.3518
 9345TIP3   OH249449   4.106   5.022   0.423  0.2408  0.3310  0.1796
 9345TIP3    H149450   4.127   5.072   0.501 -3.6557  0.4428  1.2443
 9345TIP3    H249451   4.052   5.080   0.370  0.8828 -0.5795 -1.5265
 9346TIP3   OH249452   5.081   2.070  11.405  0.7198  0.1509  0.2727
 9346TIP3    H149453   5.048   2.008  11.340  1.6928 -2.4584  2.2080
 9346TIP3    H249454   5.167   2.036  11.430  1.7973  2.9160  0.5888
 9347TIP3   OH249455   5.124   5.125   5.487  0.4722 -0.6092 -0.3285
 9347TIP3    H149456   5.213   5.124   5.452  0.3815 -0.2076 -0.5671
 9347TIP3    H249457   5.067   5.117   5.410  0.3323 -3.1090 -0.0307
 9348TIP3   OH249458   1.628   3.200  12.297 -0.6107 -0.3376  0.6869
 9348TIP3    H149459   1.691   3.257  12.252  0.1029 -1.6231  0.0520
 9348TIP3    H249460   1.575   3.163  12.226 -1.4232 -0.0715  1.1406
 9349TIP3   OH249461   1.541   4.591  12.448  0.2166  0.2773 -0.8407
 9349TIP3    H149462   1.450   4.621  12.442 -0.0682 -0.3063  0.4145
 9349TIP3    H249463   1.542   4.509  12.399 -0.5300 -0.9951  1.2131
 9350TIP3   OH249464   4.552   6.247  13.483 -0.3566 -0.1467  0.8569
 9350TIP3    H149465   4.610   6.309  13.439 -0.7238  0.3480  1.0589
 9350TIP3    H249466   4.468   6.257  13.438 -0.2475 -0.9574  0.4756
 9351TIP3   OH249467   3.710   5.932   0.787  0.1798  0.0883 -0.0216
 9351TIP3    H149468   3.799   5.922   0.754 -0.2879 -0.2274 -1.2478
 9351TIP3    H249469   3.690   6.025   0.773 -0.1162 -0.1034 -0.9203
 9352TIP3   OH249470   5.946   1.134  13.609 -0.3771 -0.7850  0.7612
 9352TIP3    H149471   6.028   1.184  13.607  0.2589 -1.7981  1.3242
 9352TIP3    H249472   5.936   1.102  13.519 -0.6113  0.0535  0.4816
 9353TIP3   OH249473   2.950   1.970  13.268  0.4028 -0.0903  0.1503
 9353TIP3    H149474   2.868   1.957  13.221 -0.5406  2.7520  0.9108
 9353TIP3    H249475   2.934   1.932  13.354 -0.0336  0.1794  0.1929
 9354TIP3   OH249476   3.095   4.263  14.163  0.4995  0.2784  0.4524
 9354TIP3    H149477   3.020   4.244  14.219 -0.3334 -0.2703 -0.8213
 9354TIP3    H249478   3.168   4.276  14.224 -0.5762  0.5783  1.6897
 9355TIP3   OH249479   6.342   2.231   2.603 -0.0072 -0.2555  0.4485
 9355TIP3    H149480   6.380   2.294   2.664  1.2565 -1.5867  1.0433
 9355TIP3    H249481   6.296   2.169   2.658 -1.8838  0.5327 -0.1845
 9356TIP3   OH249482   2.956   5.345  14.507 -0.6389 -0.1357  0.2900
 9356TIP3    H149483   3.040   5.344  14.553 -0.0298  0.4199 -0.7776
 9356TIP3    H249484   2.915   5.261  14.529  0.3985 -0.6045  0.4601
 9357TIP3   OH249485   4.774   5.317   3.674  0.0553  0.1552  0.5479
 9357TIP3    H149486   4.801   5.225   3.683  2.0846  0.7783  1.0547
 9357TIP3    H249487   4.754   5.344   3.764 -0.8775  0.1272  0.3556
 9358TIP3   OH249488   4.505   4.079  15.812 -0.4607 -0.2101  0.4629
 9358TIP3    H149489   4.593   4.115  15.799  0.0646 -1.5019  0.3966
 9358TIP3    H249490   4.451   4.123  15.747  0.2945  0.0335 -0.0047
 9359TIP3   OH249491   4.873   0.029   3.762 -0.0323  0.3095  0.4549
 9359TIP3    H149492   4.838  -0.037   3.822  0.5686  0.5058  1.0323
 9359TIP3    H249493   4.968   0.017   3.767  0.0111 -0.0996 -0.9428
 9360TIP3   OH249494   6.483   1.502   5.452 -0.4620  0.2044  0.4644
 9360TIP3    H149495   6.493   1.422   5.401  0.4464  1.2265 -0.9968
 9360TIP3    H249496   6.569   1.515   5.493 -0.6544  0.3489  0.8309
 9361TIP3   OH249497   0.657   3.483  13.456  0.4453  0.0479  0.6012
 9361TIP3    H149498   0.574   3.531  13.459  0.8075  0.7621 -0.1910
 9361TIP3    H249499   0.717   3.543  13.410  0.8471 -1.2577 -0.6370
 9362TIP3   OH249500   3.220   4.065   3.572 -0.4328  0.1588  0.0665
 9362TIP3    H149501   3.235   4.059   3.666 -0.8783  2.1453  0.2923
 9362TIP3    H249502   3.287   4.126   3.540 -0.2690 -0.5122 -0.9064
 9363TIP3   OH249503   6.771   1.365   1.764  0.0482 -0.5854  0.2774
 9363TIP3    H149504   6.716   1.338   1.837  0.2672 -2.0088 -0.0675
 9363TIP3    H249505   6.855   1.388   1.804  0.0496 -1.0017  0.5191
 9364TIP3   OH249506   3.337   0.865   3.850  0.2443  0.2470  0.5094
 9364TIP3    H149507   3.309   0.876   3.760 -0.1880 -2.0136  0.3344
 9364TIP3    H249508   3.299   0.939   3.897  0.7051  1.5933 -1.1946
 9365TIP3   OH249509   1.805   6.743   1.062 -0.3001 -0.1116  0.1970
 9365TIP3    H149510   1.873   6.735   1.129  0.7801 -0.5576 -0.9352
 9365TIP3    H249511   1.762   6.658   1.062 -0.2143 -0.1553  0.2408
 9366TIP3   OH249512   3.842   4.306  13.327 -0.0067  0.0930 -0.2127
 9366TIP3    H149513   3.933   4.334  13.339 -0.3563  1.4945 -0.7765
 9366TIP3    H249514   3.807   4.367  13.263 -1.8425  0.6423  1.2783
 9367TIP3   OH249515   6.437   4.425  16.575 -0.0501  0.1268  0.3618
 9367TIP3    H149516   6.367   4.446  16.637 -0.9088 -0.2579 -0.4588
 9367TIP3    H249517   6.518   4.445  16.622 -0.7078  0.5078  1.3491
 9368TIP3   OH249518   6.108   0.286  14.214 -0.0516  0.4549 -0.4217
 9368TIP3    H149519   6.165   0.355  14.248 -1.5698  1.3410  0.3552
 9368TIP3    H249520   6.035   0.283  14.275  0.2871 -2.2810 -0.0955
 9369TIP3   OH249521   2.225   4.350  12.909  0.2879 -0.5908 -0.6266
 9369TIP3    H149522   2.165   4.372  12.980  0.8553 -1.4634  0.1322
 9369TIP3    H249523   2.169   4.342  12.832 -0.6050 -1.6594  0.1251
 9370TIP3   OH249524   0.118   4.660  12.117  0.2601  0.1323 -0.1105
 9370TIP3    H149525   0.106   4.741  12.166  0.5942 -0.8706  1.6649
 9370TIP3    H249526   0.177   4.607  12.171 -0.5294 -1.5997 -0.8852
 9371TIP3   OH249527   2.232   2.372  16.021  0.0703  0.5791 -0.0814
 9371TIP3    H149528   2.259   2.444  15.963  2.0394  1.5036  1.9269
 9371TIP3    H249529   2.182   2.416  16.090 -0.5590 -0.2646  0.0019
 9372TIP3   OH249530   1.325   1.686   5.426  0.6791 -0.4605  0.3351
 9372TIP3    H149531   1.318   1.691   5.331  1.4584 -0.4754  0.2731
 9372TIP3    H249532   1.391   1.619   5.442  0.1016 -0.9099  0.9053
 9373TIP3   OH249533   3.598   0.617  13.790  0.4952 -0.5635  0.4758
 9373TIP3    H149534   3.575   0.539  13.841 -0.2574  0.9277  2.4524
 9373TIP3    H249535   3.693   0.618  13.789  0.5110 -1.3110  0.7498
 9374TIP3   OH249536   0.215   4.328  14.472 -0.0659 -0.6113  0.3930
 9374TIP3    H149537   0.198   4.315  14.566 -1.5416  0.5775  0.3105
 9374TIP3    H249538   0.309   4.348  14.467 -0.0231 -0.4528  1.6459
 9375TIP3   OH249539   0.343   2.338   0.509 -0.7137 -0.4245  0.2363
 9375TIP3    H149540   0.436   2.335   0.532 -0.3514 -0.0567 -1.1298
 9375TIP3    H249541   0.329   2.259   0.458 -0.5459  0.7611 -1.7007
 9376TIP3   OH249542   4.250   2.235   2.831  0.0851 -0.6521  0.0656
 9376TIP3    H149543   4.290   2.259   2.748 -0.3226 -1.8323 -0.4940
 9376TIP3    H249544   4.158   2.217   2.809 -0.3173  0.2265  0.9954
 9377TIP3   OH249545   6.320   6.216  14.601 -0.4191  0.6879  0.2888
 9377TIP3    H149546   6.377   6.154  14.646 -0.8814  1.5099  2.0639
 9377TIP3    H249547   6.280   6.267  14.672 -0.6714  2.4557 -1.0954
 9378TIP3   OH249548   0.529   2.626   4.727  0.1325  0.4442 -0.2717
 9378TIP3    H149549   0.507   2.630   4.820 -0.7692  0.5223 -0.4869
 9378TIP3    H249550   0.445   2.614   4.683  0.3659  2.0772 -1.1872
 9379TIP3   OH249551   1.178   3.248   3.040  0.3448 -0.0420 -0.1711
 9379TIP3    H149552   1.088   3.276   3.024 -0.1422 -1.9420 -0.8814
 9379TIP3    H249553   1.231   3.327   3.028 -1.1527  0.9165 -0.4988
 9380TIP3   OH249554   0.807   4.791  13.171  0.0681  0.3076 -0.2704
 9380TIP3    H149555   0.794   4.696  13.176  0.6347  0.1971 -0.7972
 9380TIP3    H249556   0.731   4.823  13.122  0.3175  0.0124 -0.8635
 9381TIP3   OH249557   0.935   3.380   0.218 -0.3647  0.2406  0.1306
 9381TIP3    H149558   0.996   3.396   0.146  0.8390  0.4426  1.1843
 9381TIP3    H249559   0.900   3.467   0.239 -0.8778  0.1508 -0.3534
 9382TIP3   OH249560   4.899   6.476   1.578  0.1559  1.0874  0.0107
 9382TIP3    H149561   4.805   6.463   1.569 -0.3024  3.6675  0.6340
 9382TIP3    H249562   4.925   6.520   1.497  0.6982  1.0522  0.1639
 9383TIP3   OH249563   6.279   5.323   6.165 -0.6298 -0.5411 -0.1359
 9383TIP3    H149564   6.290   5.417   6.181 -0.8549 -0.5051 -0.1872
 9383TIP3    H249565   6.365   5.294   6.134 -0.5474 -0.3605 -0.0802
 9384TIP3   OH249566   1.862   6.770   0.246 -0.1077  0.2554 -0.0211
 9384TIP3    H149567   1.863   6.675   0.254 -1.5560  0.2867  0.8207
 9384TIP3    H249568   1.881   6.803   0.334  2.2689  0.7731 -0.7030
 9385TIP3   OH249569   5.825   6.244  15.065 -0.3748 -0.0686 -0.2729
 9385TIP3    H149570   5.917   6.263  15.081 -0.4815  0.7443 -0.5630
 9385TIP3    H249571   5.822   6.150  15.047  0.5170  0.0440 -1.0893
 9386TIP3   OH249572   1.731   2.416   1.286 -0.4904 -0.3306 -0.2694
 9386TIP3    H149573   1.755   2.492   1.233 -0.4030  1.4776  2.2381
 9386TIP3    H249574   1.640   2.399   1.262 -0.4180  0.3763 -1.0834
 9387TIP3   OH249575   5.387   3.014   0.540  0.1376 -0.0851 -0.0653
 9387TIP3    H149576   5.414   3.074   0.609 -1.2269 -0.1073  0.5068
 9387TIP3    H249577   5.426   3.049   0.460  0.5119  0.7581  0.4814
 9388TIP3   OH249578   6.777   6.248   1.978 -0.5092  0.4463  0.1007
 9388TIP3    H149579   6.691   6.224   1.943 -1.1537  0.0109  1.9223
 9388TIP3    H249580   6.793   6.185   2.048  0.9439  1.0110  0.2921
 9389TIP3   OH249581   0.226   4.534  11.574 -0.6400 -0.2534  0.4507
 9389TIP3    H149582   0.281   4.601  11.616 -0.8335  0.0198  0.2747
 9389TIP3    H249583   0.243   4.546  11.480  1.0236 -1.9153  0.4961
 9390TIP3   OH249584   6.081   4.241  16.641  0.2272 -0.0779  0.1503
 9390TIP3    H149585   6.115   4.220  16.728  0.4755  0.7859  0.2612
 9390TIP3    H249586   6.013   4.306  16.656  0.9364  0.7994 -0.3808
 9391TIP3   OH249587   4.076   3.911  12.600 -0.0433 -0.2365  0.6845
 9391TIP3    H149588   4.041   3.885  12.515  0.9858 -0.7137  0.3965
 9391TIP3    H249589   4.171   3.897  12.592  0.3508  1.9118  1.1031
 9392TIP3   OH249590   1.103   4.342  16.603  0.3811  0.2523 -0.0012
 9392TIP3    H149591   1.050   4.410  16.560 -0.1454  0.2337  0.6025
 9392TIP3    H249592   1.047   4.310  16.674  1.0075 -0.1312  0.3247
 9393TIP3   OH249593   2.516   3.851  14.975 -0.1629 -0.1999 -0.6908
 9393TIP3    H149594   2.436   3.798  14.980 -0.7467  0.7043 -0.3088
 9393TIP3    H249595   2.485   3.941  14.971  0.8473  0.1780 -0.1928
 9394TIP3   OH249596   3.608   5.543   2.929 -0.1158 -0.0795  0.8904
 9394TIP3    H149597   3.666   5.619   2.921 -1.0852  0.4854 -1.0629
 9394TIP3    H249598   3.554   5.562   3.006 -0.0968  1.0427  0.6342
 9395TIP3   OH249599   0.820   2.236  10.571 -0.5447  0.1651  0.4494
 9395TIP3    H149600   0.859   2.270  10.491 -0.6985 -1.5302 -0.3670
 9395TIP3    H249601   0.729   2.266  10.567 -0.9996 -1.3443 -0.8708
 9396TIP3   OH249602   3.603   3.407  10.499  0.0032  0.2326  0.6802
 9396TIP3    H149603   3.563   3.425  10.414  2.6503 -2.5505 -1.2588
 9396TIP3    H249604   3.557   3.330  10.532  1.0870 -0.6377  0.2184
 9397TIP3   OH249605   0.773   6.409   4.346 -0.0766  0.0711 -0.1332
 9397TIP3    H149606   0.714   6.412   4.271 -0.9420  0.1206  0.5450
 9397TIP3    H249607   0.811   6.497   4.350 -1.0874  0.4951  0.3212
 9398TIP3   OH249608   5.381   3.658  16.593  0.4809 -0.8488  0.3437
 9398TIP3    H149609   5.298   3.626  16.629  0.2628  0.5736  1.1436
 9398TIP3    H249610   5.389   3.613  16.509 -1.9482  0.2219 -0.5261
 9399TIP3   OH249611   2.169   5.816  11.914  0.1633  0.2541  0.7491
 9399TIP3    H149612   2.156   5.740  11.971 -1.5579 -0.2956 -0.3335
 9399TIP3    H249613   2.257   5.846  11.935 -0.4257  0.1240  3.7664
 9400TIP3   OH249614   5.294   0.289   3.763  0.1206 -0.0194  0.1255
 9400TIP3    H149615   5.227   0.313   3.698  0.5043  1.9509  0.4360
 9400TIP3    H249616   5.291   0.359   3.828  0.4199 -1.4793  1.7478
 9401TIP3   OH249617   0.908   4.595   2.346 -0.0037  0.3739 -0.4636
 9401TIP3    H149618   0.833   4.549   2.308 -0.4842 -0.5404  1.5232
 9401TIP3    H249619   0.985   4.555   2.304 -0.4500 -1.8266  0.7679
 9402TIP3   OH249620   0.269   5.909   4.808  0.3811  1.0608  0.1268
 9402TIP3    H149621   0.258   6.002   4.787 -1.3275  0.3911 -2.1326
 9402TIP3    H249622   0.363   5.894   4.800  0.3717  2.0159 -2.0875
 9403TIP3   OH249623   5.658   2.161  15.740  0.1247 -0.1435 -0.1817
 9403TIP3    H149624   5.711   2.211  15.801 -0.3072 -1.4600  1.3020
 9403TIP3    H249625   5.653   2.216  15.662 -0.7280  2.3688  1.5575
 9404TIP3   OH249626   4.823   5.649  12.032 -0.8823 -0.0894  0.1443
 9404TIP3    H149627   4.918   5.636  12.041 -0.4861  2.0116 -0.7330
 9404TIP3    H249628   4.787   5.616  12.114  0.6464 -0.6064  0.6339
 9405TIP3   OH249629   0.465   5.058  14.713 -0.1275 -0.1133 -0.1147
 9405TIP3    H149630   0.381   5.103  14.724 -0.3003 -0.5520  0.3685
 9405TIP3    H249631   0.520   5.121  14.666  0.2328  1.3294  2.1591
 9406TIP3   OH249632   5.131   1.788   3.864 -0.6665 -0.3595 -0.7358
 9406TIP3    H149633   5.199   1.752   3.807  0.6266  0.9459 -0.0635
 9406TIP3    H249634   5.179   1.840   3.928 -2.3010  0.4376 -0.1324
 9407TIP3   OH249635   6.398   5.113  15.472 -0.4163 -0.4291  0.2311
 9407TIP3    H149636   6.392   5.020  15.493  1.0384 -0.5446  0.2006
 9407TIP3    H249637   6.492   5.132  15.477 -0.7890  1.2481  1.1608
 9408TIP3   OH249638   5.112   6.632   2.186 -0.2174 -0.2099 -0.1517
 9408TIP3    H149639   5.104   6.621   2.280 -0.4385 -0.3178 -0.1825
 9408TIP3    H249640   5.205   6.618   2.168 -0.5442 -2.4828 -0.2502
 9409TIP3   OH249641   0.779   2.646  10.570 -0.2214 -0.6581 -0.3677
 9409TIP3    H149642   0.816   2.650  10.658 -0.1964  2.1238 -0.4751
 9409TIP3    H249643   0.687   2.625  10.583 -0.5647  1.2218  0.4493
 9410TIP3   OH249644   2.980   5.012   0.896  0.0154  0.2434  0.0455
 9410TIP3    H149645   3.075   4.998   0.896  0.0273  0.3362 -0.4110
 9410TIP3    H249646   2.969   5.098   0.937  0.1112  0.1281  0.3178
 9411TIP3   OH249647   0.331   6.061   5.431 -0.1670  0.0370  0.9790
 9411TIP3    H149648   0.264   6.088   5.493  0.0616 -0.0014  1.2437
 9411TIP3    H249649   0.344   5.968   5.448  1.1671  0.4067  2.0977
 9412TIP3   OH249650   2.067   3.888  14.392 -0.4361 -0.1661 -0.5888
 9412TIP3    H149651   2.077   3.817  14.330  0.5754  0.3413 -1.0188
 9412TIP3    H249652   2.156   3.920  14.407 -0.7612  0.2828  0.4444
 9413TIP3   OH249653   0.155   3.681   4.020 -0.0636 -0.0122  0.1285
 9413TIP3    H149654   0.223   3.629   3.978  0.5112 -0.2770  1.3529
 9413TIP3    H249655   0.073   3.645   3.987  0.4022  0.6335 -1.7365
 9414TIP3   OH249656   4.149   3.412  16.354  0.2607  0.0789  0.6317
 9414TIP3    H149657   4.208   3.377  16.287 -0.6122  0.1576 -0.1828
 9414TIP3    H249658   4.196   3.487  16.389  1.7466 -1.3352  1.7500
 9415TIP3   OH249659   4.046   2.639  16.417  0.4883 -0.1008  0.2043
 9415TIP3    H149660   4.098   2.693  16.358 -0.4379  2.5025  1.7324
 9415TIP3    H249661   4.111   2.587  16.465  1.5013  1.0291  0.0750
 9416TIP3   OH249662   1.963   4.481  17.091 -0.0920 -0.2838  0.1459
 9416TIP3    H149663   2.039   4.513  17.140 -1.8404  1.6463  1.7056
 9416TIP3    H249664   1.993   4.478  17.000  1.6770  1.0139  0.6410
 9417TIP3   OH249665   3.346   4.199  11.416  0.2095  0.4708  0.1993
 9417TIP3    H149666   3.399   4.138  11.468 -1.0682 -0.4677  0.4280
 9417TIP3    H249667   3.407   4.233  11.350  1.4971  0.6353  1.4539
 9418TIP3   OH249668   0.808   3.645  11.347  0.5535  0.4269 -0.3783
 9418TIP3    H149669   0.861   3.657  11.268 -0.9886 -3.5324 -2.1192
 9418TIP3    H249670   0.718   3.650  11.316 -0.1047  0.6108  1.4921
 9419TIP3   OH249671   2.227   4.180   5.710 -0.0188 -0.2369 -0.4066
 9419TIP3    H149672   2.183   4.265   5.720 -0.0565 -0.1915 -0.9325
 9419TIP3    H249673   2.165   4.126   5.662  0.4512 -0.2101 -1.0522
 9420TIP3   OH249674   2.199   2.367  13.357 -0.1652 -0.1034  0.3518
 9420TIP3    H149675   2.202   2.453  13.314 -2.4048 -0.1984 -0.0510
 9420TIP3    H249676   2.234   2.306  13.291  0.2707  0.3123  0.1953
 9421TIP3   OH249677   4.638   3.700  12.119  0.0492 -0.3716  0.0976
 9421TIP3    H149678   4.554   3.688  12.075  0.6396 -1.7422 -0.7203
 9421TIP3    H249679   4.616   3.725  12.208 -1.2648 -2.3817  0.3616
 9422TIP3   OH249680   5.891   0.108  16.781 -0.2420  0.2835  0.7335
 9422TIP3    H149681   5.965   0.051  16.802  0.9989  1.5585 -0.1021
 9422TIP3    H249682   5.822   0.079  16.841  0.4264 -1.9060  0.5233
 9423TIP3   OH249683   3.237   0.498  13.151  0.0665  0.4796  0.4563
 9423TIP3    H149684   3.228   0.589  13.181  0.8476  1.0003 -0.8872
 9423TIP3    H249685   3.320   0.469  13.189  1.7130  1.5577 -2.2001
 9424TIP3   OH249686   4.500   3.663  12.382 -0.1904 -0.2898  0.0857
 9424TIP3    H149687   4.430   3.699  12.327 -0.9759 -1.5867  0.2171
 9424TIP3    H249688   4.469   3.576  12.407  2.2344 -1.6224 -1.3107
 9425TIP3   OH249689   0.862   5.219  14.602  0.0431  0.3601 -0.3536
 9425TIP3    H149690   0.929   5.154  14.581 -0.1813  0.4678 -1.4522
 9425TIP3    H249691   0.881   5.246  14.692  0.2742 -1.0462  0.0291
 9426TIP3   OH249692   6.691   3.314   2.514  0.5589  0.1908 -0.3816
 9426TIP3    H149693   6.597   3.334   2.510  0.7987  1.1189 -1.7721
 9426TIP3    H249694   6.706   3.288   2.604 -0.7892  1.3639  0.2018
 9427TIP3   OH249695   0.742   2.261   5.311 -0.4895 -0.1650 -0.1442
 9427TIP3    H149696   0.737   2.229   5.401 -0.0657 -0.7634 -0.3312
 9427TIP3    H249697   0.757   2.182   5.259 -2.4405 -0.0444 -0.9100
 9428TIP3   OH249698   1.215   2.344   3.258 -0.4538 -0.0566  0.4825
 9428TIP3    H149699   1.194   2.436   3.244 -0.1122  0.0891  0.9208
 9428TIP3    H249700   1.310   2.342   3.266 -0.4001 -0.5539 -0.2928
 9429TIP3   OH249701   1.842   0.466   2.350  0.3380  1.0204  0.2951
 9429TIP3    H149702   1.895   0.430   2.422 -0.5669  1.2847  1.1027
 9429TIP3    H249703   1.772   0.514   2.393  0.3374  2.0137 -0.7790
 9430TIP3   OH249704   0.887   4.751  12.278  0.6687  0.0291 -0.4045
 9430TIP3    H149705   0.867   4.661  12.255 -2.5420  1.2065 -2.4070
 9430TIP3    H249706   0.963   4.774  12.224 -0.6771 -0.3751 -2.4851
 9431TIP3   OH249707   6.027   0.269   0.089  0.2343  0.3850  0.9747
 9431TIP3    H149708   6.023   0.234   0.000 -0.0243 -0.7185  1.4258
 9431TIP3    H249709   5.974   0.210   0.142 -0.1587  1.4068  1.7526
 9432TIP3   OH249710   3.971   6.227  15.360  0.1923  0.1949 -0.0092
 9432TIP3    H149711   4.003   6.137  15.367  2.4739  0.9787 -0.1602
 9432TIP3    H249712   3.884   6.224  15.400  0.9191 -1.7269  1.5329
 9433TIP3   OH249713   3.737   0.202   5.266  0.4819 -0.5139 -0.3640
 9433TIP3    H149714   3.769   0.238   5.184  2.1457 -1.2611 -0.0643
 9433TIP3    H249715   3.670   0.263   5.295  0.6349  0.3161 -1.7397
 9434TIP3   OH249716   1.931   2.047  11.933  0.3970  0.3196 -0.2151
 9434TIP3    H149717   1.882   2.126  11.955 -0.3917 -0.4045  0.6477
 9434TIP3    H249718   1.891   1.978  11.985  1.5220 -0.5271 -0.4424
 9435TIP3   OH249719   4.551   3.024   1.663  0.0602  0.0811  0.1315
 9435TIP3    H149720   4.612   3.098   1.667 -1.3869  1.3140 -0.2468
 9435TIP3    H249721   4.607   2.948   1.650  1.5975  1.0725  0.7665
 9436TIP3   OH249722   4.752   6.687   4.264 -0.4654  0.4831  0.7068
 9436TIP3    H149723   4.719   6.745   4.333 -1.4394  1.2579 -0.4058
 9436TIP3    H249724   4.838   6.660   4.296 -0.2730  2.0232  1.5456
 9437TIP3   OH249725   1.246   0.739  13.967 -0.2347 -0.0610 -0.9480
 9437TIP3    H149726   1.195   0.763  14.045  0.5139  0.5231 -0.6279
 9437TIP3    H249727   1.279   0.651  13.986  1.6764  0.8781  0.3273
 9438TIP3   OH249728   4.775   6.192   3.103  0.1137 -0.0136 -0.7129
 9438TIP3    H149729   4.866   6.188   3.131 -0.1814  2.1377  0.7497
 9438TIP3    H249730   4.776   6.162   3.012  2.3212  0.2016 -0.7885
 9439TIP3   OH249731   0.645   2.411   0.962 -0.2136  0.0328  0.2764
 9439TIP3    H149732   0.661   2.442   0.873  0.4376  0.9935  0.7205
 9439TIP3    H249733   0.716   2.449   1.014  0.3634 -1.8482  0.9213
 9440TIP3   OH249734   0.898   6.582   0.376  0.1737  0.6610 -0.2751
 9440TIP3    H149735   0.856   6.554   0.295 -0.5616  0.2878  0.2242
 9440TIP3    H249736   0.977   6.629   0.348  0.4362 -0.3019 -1.1836
 9441TIP3   OH249737   3.964   0.357  14.679  0.6428  0.6804  0.1406
 9441TIP3    H149738   4.016   0.334  14.602  0.2155  1.3040 -0.3429
 9441TIP3    H249739   3.880   0.312  14.665  0.5878  0.7422  0.2737
 9442TIP3   OH249740   3.358   0.717  14.263  0.3874  0.1842 -0.3297
 9442TIP3    H149741   3.313   0.722  14.348 -2.1207 -0.2694 -1.5818
 9442TIP3    H249742   3.427   0.651  14.277  0.8294  1.0204  1.6862
 9443TIP3   OH249743   1.317   5.016   1.074  0.0336 -0.4307  0.1947
 9443TIP3    H149744   1.277   5.036   1.159  1.6132 -2.3163  1.4127
 9443TIP3    H249745   1.354   5.100   1.045  0.0632  0.0934  1.6770
 9444TIP3   OH249746   3.832   6.438   5.240  0.3016 -0.2349  0.0790
 9444TIP3    H149747   3.853   6.365   5.298 -0.8387  0.7843  1.7942
 9444TIP3    H249748   3.737   6.442   5.239  0.3719  1.7998  0.7163
 9445TIP3   OH249749   3.325   0.474   2.731 -0.1414  0.2605  0.5437
 9445TIP3    H149750   3.246   0.524   2.751 -1.6578 -1.6795 -0.4817
 9445TIP3    H249751   3.335   0.413   2.803 -0.2857 -0.3435  0.0556
 9446TIP3   OH249752   2.951   1.185   2.957 -0.4037  0.3052 -0.2997
 9446TIP3    H149753   2.911   1.100   2.973 -0.9325  0.3663 -1.2007
 9446TIP3    H249754   2.958   1.226   3.043  0.8701 -1.0780  0.2784
 9447TIP3   OH249755   3.584   2.609   5.328  0.5166  0.2974 -0.3644
 9447TIP3    H149756   3.663   2.571   5.289 -1.2128 -0.9976 -2.8167
 9447TIP3    H249757   3.535   2.533   5.360  0.5998  1.1535  1.8077
 9448TIP3   OH249758   0.497   3.725   3.338 -0.3305 -0.2260  0.3441
 9448TIP3    H149759   0.536   3.791   3.394  0.3778 -0.8492  0.5944
 9448TIP3    H249760   0.415   3.763   3.309  0.9615  1.5552 -1.0574
 9449TIP3   OH249761   0.335   3.515  12.788 -0.7334  0.0534 -0.3810
 9449TIP3    H149762   0.275   3.549  12.723 -0.2377  1.9441  0.1135
 9449TIP3    H249763   0.376   3.592  12.826  0.4572 -1.1024  0.7680
 9450TIP3   OH249764   1.183   5.850  12.164 -0.0928  0.2905  0.3463
 9450TIP3    H149765   1.148   5.785  12.103  0.5618 -1.0630  1.3866
 9450TIP3    H249766   1.266   5.878  12.124  0.9316 -1.4749  1.1533
 9451TIP3   OH249767   0.162   3.232   4.001  0.1515  0.4546  0.0817
 9451TIP3    H149768   0.224   3.289   3.954  0.9905  1.0055  1.8249
 9451TIP3    H249769   0.124   3.288   4.068  0.2062 -0.7790  1.1512
 9452TIP3   OH249770   0.541   5.924   3.481  0.0556  0.1717  1.2411
 9452TIP3    H149771   0.586   5.882   3.554  0.6951  1.4119  1.5711
 9452TIP3    H249772   0.553   6.018   3.496 -0.6300  0.4556  0.0646
 9453TIP3   OH249773   3.203   5.262   5.299  0.0321 -0.2239  0.3016
 9453TIP3    H149774   3.142   5.230   5.232  0.3325  1.3248 -0.7314
 9453TIP3    H249775   3.204   5.357   5.287  1.5684 -0.1062  1.2438
 9454TIP3   OH249776   6.192   3.765   1.461 -0.0277 -0.1865  0.4463
 9454TIP3    H149777   6.249   3.811   1.400  0.6742 -1.2587  0.2715
 9454TIP3    H249778   6.140   3.834   1.502  0.8718  0.7344  0.0686
 9455TIP3   OH249779   1.106   6.554  12.683  0.0172 -0.2761  0.0270
 9455TIP3    H149780   1.133   6.643  12.658  0.1493 -0.2620  0.2239
 9455TIP3    H249781   1.022   6.566  12.728 -0.0740 -0.2724 -0.1436
 9456TIP3   OH249782   6.304   6.172   3.346  0.5938 -0.4582  0.5803
 9456TIP3    H149783   6.262   6.255   3.366  0.5041 -0.3652 -0.0025
 9456TIP3    H249784   6.321   6.133   3.432 -1.7157 -1.0251  0.8165
 9457TIP3   OH249785   3.085   4.841  12.544  0.0138 -0.6015 -0.1043
 9457TIP3    H149786   3.044   4.761  12.577 -1.7795  0.8330  1.2564
 9457TIP3    H249787   3.036   4.863  12.465  1.6216 -1.7485 -1.4671
 9458TIP3   OH249788   3.296   5.439   3.820  1.0940 -0.2139 -0.5872
 9458TIP3    H149789   3.301   5.513   3.880  1.6410 -0.0207 -0.8673
 9458TIP3    H249790   3.344   5.468   3.742 -1.0980  0.1963 -1.8141
 9459TIP3   OH249791   2.448   3.286   2.113  0.0715  0.4111  0.1205
 9459TIP3    H149792   2.487   3.241   2.188 -1.6123 -0.1666  0.6672
 9459TIP3    H249793   2.523   3.324   2.066  1.2395 -0.2820  1.3938
 9460TIP3   OH249794   3.842   0.315  13.683 -0.1727  0.0206 -0.7369
 9460TIP3    H149795   3.895   0.377  13.633  2.1611 -0.5497  0.9747
 9460TIP3    H249796   3.843   0.349  13.772  2.7432 -3.4006  0.6475
 9461TIP3   OH249797   5.838   2.793   5.454  0.4029  0.5535  0.2097
 9461TIP3    H149798   5.902   2.723   5.440  0.4251  0.7933 -0.9905
 9461TIP3    H249799   5.767   2.772   5.393 -0.0025  1.0733  0.5048
 9462TIP3   OH249800   5.770   6.635   1.061  0.1595  0.3895 -0.0705
 9462TIP3    H149801   5.805   6.672   1.142 -0.6156  1.3094 -0.1373
 9462TIP3    H249802   5.718   6.706   1.023  1.3089  0.3113 -1.8773
 9463TIP3   OH249803   5.750   6.216  13.218 -0.0639  0.3562 -0.0646
 9463TIP3    H149804   5.731   6.309  13.216 -0.4330  0.2879  0.1788
 9463TIP3    H249805   5.687   6.176  13.157 -0.3112  0.1993  0.2887
 9464TIP3   OH249806   0.060   4.980   2.277  0.6824  0.8962  0.2227
 9464TIP3    H149807   0.022   5.040   2.341  2.5342  0.8841  1.3587
 9464TIP3    H249808   0.149   4.965   2.308  0.2669 -2.4547 -0.0569
 9465TIP3   OH249809   6.655   6.667  15.263  0.0155  0.0605 -0.1924
 9465TIP3    H149810   6.673   6.683  15.170 -0.7354  0.3455 -0.2975
 9465TIP3    H249811   6.713   6.727  15.310  0.8201 -0.5036 -0.4612
 9466TIP3   OH249812   6.406   2.517   6.109  0.1801  0.3831  0.5633
 9466TIP3    H149813   6.408   2.594   6.166 -0.8718  0.5878  0.3330
 9466TIP3    H249814   6.341   2.459   6.150 -1.6898  1.1500 -1.1912
 9467TIP3   OH249815   1.540   0.950   3.984  0.3144 -0.3060  0.0735
 9467TIP3    H149816   1.546   1.025   4.043  2.6104  0.4847 -1.0764
 9467TIP3    H249817   1.617   0.897   4.005  0.4353 -0.6881 -1.2658
 9468TIP3   OH249818   5.882   0.381  11.988  0.4190 -0.2289  0.1550
 9468TIP3    H149819   5.943   0.413  12.054  0.6637  0.8978 -0.6088
 9468TIP3    H249820   5.828   0.316  12.034  1.2493 -0.1880  1.1923
 9469TIP3   OH249821   1.152   0.397  12.062  0.0401 -0.5675 -0.0238
 9469TIP3    H149822   1.092   0.413  11.989  0.9595 -0.8700 -0.8504
 9469TIP3    H249823   1.119   0.317  12.103 -0.4877 -0.3869 -0.0910
 9470TIP3   OH249824   4.062   3.199  15.946  0.2924 -0.0022 -0.3744
 9470TIP3    H149825   4.037   3.225  16.035  0.8120 -0.8825  0.0309
 9470TIP3    H249826   3.992   3.235  15.891  0.5910  1.5903  0.2440
 9471TIP3   OH249827   3.549   1.563   0.066 -0.7580  0.1028  0.1573
 9471TIP3    H149828   3.501   1.570  -0.017 -0.1708 -1.8219 -0.3761
 9471TIP3    H249829   3.621   1.502   0.047 -0.2514  0.1218  1.9271
 9472TIP3   OH249830   5.975   0.694  14.246 -0.2594 -0.4600  0.7178
 9472TIP3    H149831   5.945   0.613  14.286 -0.2155 -0.7882  0.0793
 9472TIP3    H249832   6.005   0.669  14.159  1.7806 -0.1159  1.2998
 9473TIP3   OH249833   6.048   0.258   2.145  0.4175 -0.6300 -0.4371
 9473TIP3    H149834   6.117   0.315   2.177 -2.1980  1.6531  1.4465
 9473TIP3    H249835   6.035   0.283   2.054 -0.2947  1.4663  0.2034
 9474TIP3   OH249836   1.031   1.139   2.604  0.2757 -0.0926 -0.1279
 9474TIP3    H149837   1.076   1.206   2.656 -0.1407 -0.2733  0.4674
 9474TIP3    H249838   1.084   1.131   2.525  0.7627  0.3826  0.1443
 9475TIP3   OH249839   2.448   6.745  10.510 -0.3654  0.1992  0.2535
 9475TIP3    H149840   2.497   6.670  10.544  0.3106 -0.3818 -1.8717
 9475TIP3    H249841   2.516   6.810  10.489 -0.3190 -0.8507 -3.3058
 9476TIP3   OH249842   0.753   4.388  11.942 -0.8763  0.1658 -0.1048
 9476TIP3    H149843   0.745   4.304  11.988 -0.2517  0.1362 -0.0544
 9476TIP3    H249844   0.694   4.446  11.990  0.7738  0.4887  1.5724
 9477TIP3   OH249845   1.979   1.019  15.904  0.1792 -0.2037  0.0033
 9477TIP3    H149846   2.044   1.081  15.935 -0.2262 -0.6725  1.8855
 9477TIP3    H249847   2.030   0.946  15.869  0.6515  0.2032 -0.1568
 9478TIP3   OH249848   1.079   4.829  15.078  0.4358 -0.1384 -0.1726
 9478TIP3    H149849   1.146   4.799  15.017 -0.5203 -2.5538 -0.0954
 9478TIP3    H249850   0.997   4.792  15.044 -0.3911  0.1319  1.4730
 9479TIP3   OH249851   3.032   2.493   5.502 -0.5264 -0.5330 -0.1562
 9479TIP3    H149852   2.936   2.492   5.510 -0.4664 -1.4771  0.4512
 9479TIP3    H249853   3.052   2.582   5.473 -1.5035  0.0156  0.7978
 9480TIP3   OH249854   4.755   4.780  10.906  0.3662  0.6479 -0.1994
 9480TIP3    H149855   4.681   4.813  10.957  0.4101  0.5021 -0.0412
 9480TIP3    H249856   4.719   4.706  10.857  0.4867  0.3632  0.1324
 9481TIP3   OH249857   5.758   4.127   6.207  0.0000 -1.1996 -0.6796
 9481TIP3    H149858   5.812   4.153   6.281 -1.1678 -0.9647  0.0942
 9481TIP3    H249859   5.791   4.180   6.134  0.2187 -0.4075 -0.0102
 9482TIP3   OH249860   3.966   1.848   4.189 -0.6279 -0.0355  0.0892
 9482TIP3    H149861   3.948   1.853   4.282 -0.9268 -0.3163  0.0448
 9482TIP3    H249862   3.917   1.920   4.150  0.6916  1.0172  0.3319
 9483TIP3   OH249863   0.177   6.558   5.566  0.0644  0.2577 -0.1705
 9483TIP3    H149864   0.103   6.499   5.553  0.1696  0.2340 -0.7084
 9483TIP3    H249865   0.254   6.503   5.553  0.1876  0.0805  1.3214
 9484TIP3   OH249866   4.192   0.598  13.726 -0.4368  0.0142  0.3928
 9484TIP3    H149867   4.144   0.681  13.723 -1.2620 -0.4910 -1.2637
 9484TIP3    H249868   4.236   0.593  13.642 -1.4579 -1.8345 -0.0590
 9485TIP3   OH249869   3.950   6.733  14.665 -0.8768 -1.0307  0.2798
 9485TIP3    H149870   3.980   6.804  14.721  0.0436 -1.6114  0.5407
 9485TIP3    H249871   4.028   6.708  14.615 -1.3030 -1.5573 -0.1212
 9486TIP3   OH249872   1.027   0.111   0.758  0.4600 -0.5813  0.4617
 9486TIP3    H149873   1.096   0.138   0.697 -1.8112 -0.8006 -2.2592
 9486TIP3    H249874   0.974   0.049   0.709 -1.8067 -0.2878  2.4624
 9487TIP3   OH249875   2.635   2.659   1.321  0.6363  0.3330 -0.7900
 9487TIP3    H149876   2.548   2.649   1.358  0.8642  0.1116 -0.3095
 9487TIP3    H249877   2.622   2.654   1.226  0.1994 -0.2109 -0.6996
 9488TIP3   OH249878   5.116   5.522   2.218 -0.3118 -0.1248 -0.6016
 9488TIP3    H149879   5.087   5.443   2.172 -2.9473  0.2970  0.2326
 9488TIP3    H249880   5.045   5.540   2.280  0.4449  2.6685 -0.5114
 9489TIP3   OH249881   2.991   2.012   2.168 -0.3263 -0.0547 -0.2356
 9489TIP3    H149882   3.053   1.965   2.113 -0.8996 -0.1315 -0.8236
 9489TIP3    H249883   2.986   2.099   2.130 -0.4176  0.0172 -0.0617
 9490TIP3   OH249884   2.315   1.103  15.323  0.2065  0.0383 -0.5725
 9490TIP3    H149885   2.274   1.189  15.316  0.6238  0.4659  1.8231
 9490TIP3    H249886   2.241   1.042  15.327 -0.1919  0.6509  1.9016
 9491TIP3   OH249887   1.252   2.826  12.065 -0.1229 -0.2702 -0.4206
 9491TIP3    H149888   1.236   2.849  12.157  1.6252  0.2990 -0.2334
 9491TIP3    H249889   1.260   2.911  12.020  0.9339 -0.5225 -0.7284
 9492TIP3   OH249890   4.030   4.343   5.217 -0.0953  0.4682 -0.2971
 9492TIP3    H149891   3.941   4.338   5.183  0.3206  1.9662 -1.6786
 9492TIP3    H249892   4.084   4.362   5.140  1.0056  2.9113  1.0364
 9493TIP3   OH249893   0.524   1.797   5.753 -0.2285  0.5150 -0.8512
 9493TIP3    H149894   0.575   1.740   5.811 -0.5070  1.6542  0.5443
 9493TIP3    H249895   0.453   1.830   5.809  1.0806  3.8040 -1.0448
 9494TIP3   OH249896   5.297   0.079   0.855 -0.1875  0.1065  0.0969
 9494TIP3    H149897   5.211   0.059   0.892 -0.1966  1.0986  0.6030
 9494TIP3    H249898   5.278   0.110   0.766 -0.4277  1.1906  0.5165
 9495TIP3   OH249899   1.968   4.186  14.866 -0.4169  0.5564 -0.0450
 9495TIP3    H149900   2.061   4.167  14.877 -0.6719 -0.6878  0.0073
 9495TIP3    H249901   1.931   4.182  14.954 -0.9786 -1.4972 -0.3454
 9496TIP3   OH249902   6.155   6.100   2.200 -0.6706  0.0388  0.1216
 9496TIP3    H149903   6.095   6.159   2.154 -1.0888 -0.1726  0.3921
 9496TIP3    H249904   6.109   6.015   2.200 -0.7061  0.0619  1.0027
 9497TIP3   OH249905   4.290   2.339  16.775 -0.2995 -0.0624  0.1285
 9497TIP3    H149906   4.277   2.365  16.866 -0.2359 -2.5318  0.8812
 9497TIP3    H249907   4.384   2.350  16.759  0.2437 -2.4935  1.3536
 9498TIP3   OH249908   6.035   1.764   3.079 -0.4337 -0.3269  0.4747
 9498TIP3    H149909   6.046   1.716   3.161 -0.0818  0.7380  1.0590
 9498TIP3    H249910   5.959   1.724   3.037 -1.2079 -0.2293  1.7781
 9499TIP3   OH249911   3.553   4.109   3.758  0.1244 -0.5132 -0.4898
 9499TIP3    H149912   3.593   4.190   3.725 -1.4821  0.4746 -0.0364
 9499TIP3    H249913   3.607   4.086   3.835  0.3648  0.3171 -0.4065
 9500TIP3   OH249914   5.604   1.479  16.903 -0.1086  0.2785  0.1141
 9500TIP3    H149915   5.631   1.420  16.974  3.1693  1.1709 -0.3263
 9500TIP3    H249916   5.539   1.536  16.944  0.1072 -0.6353  1.8205
 9501TIP3   OH249917   1.007   0.117   4.439 -0.1627  0.1192  0.0623
 9501TIP3    H149918   0.951   0.168   4.498 -0.7907  1.2672 -1.5110
 9501TIP3    H249919   1.059   0.062   4.498 -1.8927  0.1011  1.6321
 9502TIP3   OH249920   3.433   6.394  14.664  0.1938 -0.0739  0.2734
 9502TIP3    H149921   3.367   6.461  14.681 -0.2678 -0.6848  0.9321
 9502TIP3    H249922   3.500   6.409  14.731 -0.6770 -1.2474  1.4466
 9503TIP3   OH249923   3.179   1.473   6.103 -0.1453 -0.4100  0.2295
 9503TIP3    H149924   3.118   1.447   6.171 -0.2064 -0.8578  0.0057
 9503TIP3    H249925   3.240   1.532   6.146 -0.9516  0.3233  0.3700
 9504TIP3   OH249926   1.604   4.224  17.124 -0.0343 -1.5081 -0.0899
 9504TIP3    H149927   1.635   4.313  17.138 -1.7113 -0.6964 -1.3100
 9504TIP3    H249928   1.658   4.191  17.052 -0.3560 -0.9583 -0.5886
 9505TIP3   OH249929   1.296   0.848   3.127 -0.0812 -0.2171  0.1095
 9505TIP3    H149930   1.206   0.877   3.115 -0.5544 -0.7533  2.1560
 9505TIP3    H249931   1.292   0.753   3.115  0.3679 -0.1526 -0.5951
 9506TIP3   OH249932   6.183   5.344   4.991 -0.2278  0.4735 -0.1407
 9506TIP3    H149933   6.250   5.379   4.932 -0.6329 -1.0459 -1.5341
 9506TIP3    H249934   6.182   5.250   4.973 -3.1345  0.5471 -0.5685
 9507TIP3   OH249935   1.021   0.773   6.550 -0.4645 -0.1047  0.3888
 9507TIP3    H149936   1.036   0.865   6.527  1.3733 -0.0773  1.6714
 9507TIP3    H249937   0.949   0.776   6.613  0.3206  0.5407  1.2545
 9508TIP3   OH249938   0.670   0.752   4.455  0.3926 -0.7043  0.6240
 9508TIP3    H149939   0.757   0.732   4.489  0.8437  0.5726  0.2541
 9508TIP3    H249940   0.687   0.813   4.383 -0.7973 -0.6295  0.4096
 9509TIP3   OH249941   2.265   1.165   6.610  0.0113 -0.2427  0.4959
 9509TIP3    H149942   2.262   1.141   6.702 -3.0766  0.5097  0.6337
 9509TIP3    H249943   2.273   1.082   6.563  0.3723 -0.7088  1.3854
 9510TIP3   OH249944   3.608   5.863  15.264  0.3600  0.3854  0.6394
 9510TIP3    H149945   3.548   5.851  15.191  0.3369  0.9689  0.5635
 9510TIP3    H249946   3.578   5.943  15.307 -0.1928 -0.4360  1.8218
 9511TIP3   OH249947   6.170   3.358  11.092 -0.3280 -0.3052  0.0162
 9511TIP3    H149948   6.171   3.266  11.067  1.2928 -0.0258 -1.0090
 9511TIP3    H249949   6.123   3.402  11.021  0.9996 -0.0203 -0.6923
 9512TIP3   OH249950   5.264   4.542  13.603  0.5066  0.3595  0.4018
 9512TIP3    H149951   5.307   4.623  13.630 -1.0426  1.5186 -0.4895
 9512TIP3    H249952   5.291   4.530  13.512 -0.4066  0.6801  0.0783
 9513TIP3   OH249953   2.878   0.059  11.019 -0.1237  0.0617 -0.2829
 9513TIP3    H149954   2.871  -0.025  11.065  0.5028  0.5416  0.6997
 9513TIP3    H249955   2.958   0.052  10.967  0.9908  0.7450  1.2858
 9514TIP3   OH249956   2.314   4.205  13.130  0.1311  0.0927 -0.5622
 9514TIP3    H149957   2.269   4.203  13.046  1.5767 -0.3886 -1.3384
 9514TIP3    H249958   2.244   4.216  13.195 -1.0321 -0.0570 -1.7802
 9515TIP3   OH249959   3.343   3.903   4.545  0.3309 -0.1121  0.1455
 9515TIP3    H149960   3.249   3.883   4.542  0.4802 -1.0014  1.3568
 9515TIP3    H249961   3.346   3.999   4.552 -0.4704 -0.0226 -0.6134
 9516TIP3   OH249962   6.250   3.194  10.829 -0.0438 -0.6115 -0.6258
 9516TIP3    H149963   6.214   3.275  10.793 -0.3884 -0.4501  0.0683
 9516TIP3    H249964   6.179   3.159  10.883 -0.1972 -1.8168 -1.6160
 9517TIP3   OH249965   4.623   6.468   1.571 -0.2385  0.2189  0.4202
 9517TIP3    H149966   4.534   6.440   1.551  0.2838  0.2010 -2.1102
 9517TIP3    H249967   4.615   6.562   1.589 -0.5704  0.5869 -1.5076
 9518TIP3   OH249968   3.085   5.656  15.636  0.3671  0.5289  0.3140
 9518TIP3    H149969   2.993   5.631  15.651  0.0059  2.8115  2.3503
 9518TIP3    H249970   3.086   5.751  15.651  2.9763  0.6113 -0.2107
 9519TIP3   OH249971   5.142   3.120  13.606  0.4687  0.2037  0.1036
 9519TIP3    H149972   5.081   3.092  13.538  1.9276 -0.1997 -1.0603
 9519TIP3    H249973   5.159   3.042  13.658  1.9583 -0.3217 -1.1308
 9520TIP3   OH249974   2.506   3.984   2.131  0.0983  0.0812 -1.0368
 9520TIP3    H149975   2.513   3.978   2.036 -1.5139  0.7192 -1.2181
 9520TIP3    H249976   2.419   4.021   2.146  0.0354 -0.7204  0.7081
 9521TIP3   OH249977   2.383   4.516  11.281  0.5543 -0.1833  0.0075
 9521TIP3    H149978   2.304   4.462  11.282  0.7526 -0.4564  1.9344
 9521TIP3    H249979   2.384   4.555  11.193 -1.9521  0.1698  0.1019
 9522TIP3   OH249980   6.162   2.520  15.149 -0.2642 -0.0625  0.8434
 9522TIP3    H149981   6.233   2.477  15.197  0.7067  0.4804 -0.0914
 9522TIP3    H249982   6.083   2.497  15.198  0.6085 -0.2355  2.1979
 9523TIP3   OH249983   3.995   6.063   0.380 -0.1932  0.0012 -0.5163
 9523TIP3    H149984   3.995   6.157   0.359 -0.0853 -0.3949 -2.3600
 9523TIP3    H249985   4.006   6.060   0.475 -0.8214  1.8741 -0.3639
 9524TIP3   OH249986   6.371   1.793  15.391 -0.1774 -0.3550 -0.5244
 9524TIP3    H149987   6.289   1.839  15.371 -0.1116 -0.4148 -0.9380
 9524TIP3    H249988   6.357   1.756  15.478 -0.2398  0.4419 -0.1847
 9525TIP3   OH249989   4.728   4.540  10.766 -0.2015  0.7680  0.4688
 9525TIP3    H149990   4.670   4.471  10.799 -0.1402  0.1100 -0.7714
 9525TIP3    H249991   4.674   4.588  10.703  0.6101  0.0955 -0.7639
 9526TIP3   OH249992   4.748   1.218  14.520 -0.0003  0.1736  0.2651
 9526TIP3    H149993   4.702   1.299  14.497 -1.8918 -1.0118 -0.2342
 9526TIP3    H249994   4.700   1.184  14.595  1.1472 -0.1954  0.8343
 9527TIP3   OH249995   1.047   0.444   0.984  0.2022  0.0800 -0.6636
 9527TIP3    H149996   1.114   0.484   1.040 -0.9025  0.5505  0.3427
 9527TIP3    H249997   1.004   0.380   1.040 -0.7420  0.3698 -1.0487
 9528TIP3   OH249998   4.660   0.462   4.024 -0.2995 -0.5108 -0.4228
 9528TIP3    H149999   4.624   0.550   4.037  1.5075  0.4161 -1.3907
 9528TIP3    H250000   4.617   0.430   3.945  0.4783  0.3170 -1.1959
 9529TIP3   OH250001   5.804   5.086   4.965 -0.0362 -0.6684 -0.2289
 9529TIP3    H150002   5.861   5.025   5.012  0.6594  0.4658  0.4266
 9529TIP3    H250003   5.834   5.082   4.874 -1.0657 -2.5130 -0.4911
 9530TIP3   OH250004   6.131   3.479  12.299 -0.5457 -0.0655 -0.3776
 9530TIP3    H150005   6.202   3.426  12.263  0.0254 -0.4438  1.2322
 9530TIP3    H250006   6.064   3.416  12.325 -0.8680  0.1804 -0.6089
 9531TIP3   OH250007   2.233   2.500   5.401 -0.0046  0.5726 -0.0065
 9531TIP3    H150008   2.158   2.518   5.458  0.9145  0.8195  1.1457
 9531TIP3    H250009   2.306   2.548   5.441  0.2804  2.2021 -2.3695
 9532TIP3   OH250010   3.547   3.320   1.573  0.4816 -0.4134 -0.1397
 9532TIP3    H150011   3.629   3.342   1.618 -0.2008  1.0244  0.4093
 9532TIP3    H250012   3.520   3.237   1.612  1.0578 -0.3007  0.4986
 9533TIP3   OH250013   3.682   2.702  15.593  0.9178  0.2635  0.0318
 9533TIP3    H150014   3.692   2.694  15.498  2.1655  1.3571  0.0644
 9533TIP3    H250015   3.770   2.691  15.628  0.4620 -0.1416  1.0786
 9534TIP3   OH250016   4.840   2.513  14.130  0.2227 -0.1843  1.2135
 9534TIP3    H150017   4.798   2.594  14.158 -1.7714 -0.5057 -0.6770
 9534TIP3    H250018   4.782   2.443  14.161  0.0568 -0.7087 -0.2232
 9535TIP3   OH250019   6.367   5.217   4.683  0.2159  0.0613  0.0689
 9535TIP3    H150020   6.363   5.141   4.741  0.2237 -0.3525 -0.4710
 9535TIP3    H250021   6.438   5.197   4.622  0.3981  0.6244  0.0891
 9536TIP3   OH250022   5.567   3.370  12.190  0.1338 -0.4877 -0.3332
 9536TIP3    H150023   5.483   3.398  12.225  0.6373  0.3729  0.2112
 9536TIP3    H250024   5.628   3.438  12.218  1.6800 -2.8433  2.2706
 9537TIP3   OH250025   3.862   3.963  15.559 -0.2019  0.2038  0.3846
 9537TIP3    H150026   3.825   3.998  15.640 -0.5098 -0.1598  0.4013
 9537TIP3    H250027   3.923   3.895  15.587  2.1453  2.2529  0.4730
 9538TIP3   OH250028   0.060   6.417  17.210  0.1752 -0.1044 -0.0245
 9538TIP3    H150029   0.106   6.455  17.285  0.5586  1.6866 -1.1449
 9538TIP3    H250030   0.121   6.353  17.174  0.4964 -0.0623  0.4441
 9539TIP3   OH250031   6.722   1.211   3.591 -0.0611  0.5744  0.1126
 9539TIP3    H150032   6.672   1.241   3.515 -0.6119 -1.0878 -0.2246
 9539TIP3    H250033   6.735   1.289   3.644 -0.3738  1.6052 -1.3013
 9540TIP3   OH250034   1.735   6.433   4.106  0.6243  0.8577  0.4307
 9540TIP3    H150035   1.669   6.447   4.038  1.1014 -2.3132 -0.7777
 9540TIP3    H250036   1.690   6.450   4.188 -0.7863  1.8988 -0.5422
 9541TIP3   OH250037   6.315   0.091  11.230  0.2260  0.2852 -0.4852
 9541TIP3    H150038   6.269   0.060  11.308 -1.5436 -1.3203 -2.0834
 9541TIP3    H250039   6.391   0.033  11.222  1.4852  1.6773  1.0709
 9542TIP3   OH250040   0.558   3.876  15.928  0.4782 -0.2861 -0.6710
 9542TIP3    H150041   0.548   3.970  15.921 -1.9004 -0.4765 -0.1292
 9542TIP3    H250042   0.530   3.841  15.843 -1.5589 -0.6802  0.1320
 9543TIP3   OH250043   1.133   4.231   1.256  0.2386  0.0240  0.0692
 9543TIP3    H150044   1.106   4.139   1.260 -0.6331  0.3044  1.1499
 9543TIP3    H250045   1.105   4.260   1.170  0.8718 -0.8254 -0.4330
 9544TIP3   OH250046   2.181   4.290  12.603 -0.0487 -0.0822  0.1376
 9544TIP3    H150047   2.164   4.207  12.647 -0.1142 -0.5953 -0.8214
 9544TIP3    H250048   2.215   4.265  12.517 -2.0470  0.8577 -0.9531
 9545TIP3   OH250049   1.807   2.672  16.320  0.0811 -0.4602 -0.3114
 9545TIP3    H150050   1.774   2.645  16.234 -2.1347 -0.6937  0.5789
 9545TIP3    H250051   1.836   2.590  16.361 -0.2844 -0.5497 -0.2354
 9546TIP3   OH250052   6.423   1.337  12.385  0.3033  0.3677 -0.3916
 9546TIP3    H150053   6.444   1.384  12.466  1.9149 -1.1823  0.1207
 9546TIP3    H250054   6.479   1.378  12.319  0.5384  0.2262 -0.2787
 9547TIP3   OH250055   6.609   1.155  13.778  0.3044  0.2532  0.4125
 9547TIP3    H150056   6.562   1.184  13.856  0.2344 -2.5589  1.4996
 9547TIP3    H250057   6.542   1.151  13.709  0.4434  3.0956  0.0930
 9548TIP3   OH250058   2.053   5.548  12.777 -0.1397  0.2202 -0.3533
 9548TIP3    H150059   1.981   5.489  12.753  1.4652 -1.2474 -1.7003
 9548TIP3    H250060   2.035   5.629  12.728 -1.3945  0.2198  0.0922
 9549TIP3   OH250061   3.703   3.808   1.844 -0.0227  0.4067 -0.0758
 9549TIP3    H150062   3.748   3.782   1.764  0.3025  0.3500  0.1265
 9549TIP3    H250063   3.769   3.854   1.896 -0.3515  0.8478 -0.0386
 9550TIP3   OH250064   3.153   3.929   5.268  0.4380  0.4510  0.5361
 9550TIP3    H150065   3.225   3.908   5.326 -0.0557 -0.5702  0.7859
 9550TIP3    H250066   3.188   3.997   5.210  1.3449  0.5144  1.1491
 9551TIP3   OH250067   5.987   2.853   1.543  0.2896  0.1166 -0.0419
 9551TIP3    H150068   5.945   2.919   1.488  1.3480  0.4387 -0.4806
 9551TIP3    H250069   6.024   2.791   1.481 -1.1854 -1.2272  0.3736
 9552TIP3   OH250070   6.358   1.351   3.029 -0.1712 -0.2125  0.1290
 9552TIP3    H150071   6.334   1.422   2.968  0.2875 -0.5423 -0.4390
 9552TIP3    H250072   6.434   1.310   2.989 -0.9447 -1.5626  0.0339
 9553TIP3   OH250073   0.163   6.202   0.248 -0.0484  0.2628  0.2665
 9553TIP3    H150074   0.166   6.189   0.153 -2.0126  2.0862 -0.0689
 9553TIP3    H250075   0.123   6.122   0.281  1.3592 -0.7311 -0.3221
 9554TIP3   OH250076   4.378   3.866  16.539  0.1841 -0.0287  0.1673
 9554TIP3    H150077   4.430   3.912  16.473 -0.3445  1.7483  0.9681
 9554TIP3    H250078   4.423   3.883  16.621 -0.0627 -0.8965  0.4875
 9555TIP3   OH250079   4.272   1.496   1.748  0.2061 -0.5929 -0.0519
 9555TIP3    H150080   4.366   1.477   1.744  0.2665  0.1020 -3.1262
 9555TIP3    H250081   4.267   1.591   1.737 -0.8579 -0.6081  0.2734
 9556TIP3   OH250082   4.400   0.376  14.433  0.4116 -0.6150 -0.0778
 9556TIP3    H150083   4.493   0.384  14.413  0.4972  2.6516  1.3234
 9556TIP3    H250084   4.395   0.378  14.528 -0.9299 -3.6446 -0.0334
 9557TIP3   OH250085   2.380   0.479  15.376  0.2651 -0.2845  0.3373
 9557TIP3    H150086   2.360   0.416  15.446 -0.2642  0.9269  1.3074
 9557TIP3    H250087   2.455   0.528  15.409  0.5526 -0.2757 -0.3232
 9558TIP3   OH250088   4.350   5.555   3.476 -0.0576 -0.8280 -0.3991
 9558TIP3    H150089   4.259   5.537   3.449 -0.7552  1.2370  0.5052
 9558TIP3    H250090   4.353   5.527   3.567 -0.1112  0.1522 -0.0923
 9559TIP3   OH250091   3.560   1.553   1.029  0.1606  0.0388 -0.4712
 9559TIP3    H150092   3.615   1.631   1.024  0.1658  0.1337  0.9976
 9559TIP3    H250093   3.471   1.587   1.029  0.1812  0.1263  1.4047
 9560TIP3   OH250094   1.465   2.908   1.509 -0.3447  0.0572  0.3965
 9560TIP3    H150095   1.474   3.002   1.495  1.0534 -0.2379 -0.9633
 9560TIP3    H250096   1.484   2.895   1.602 -0.8135  1.1402  0.6480
 9561TIP3   OH250097   2.227   5.061   0.758 -0.5300  0.2644  0.5179
 9561TIP3    H150098   2.253   5.110   0.837  0.1680  1.1222 -0.2270
 9561TIP3    H250099   2.310   5.043   0.713 -0.7485 -1.8705  0.9136
 9562TIP3   OH250100   6.398   3.574   0.188  0.3579 -0.1454 -0.3530
 9562TIP3    H150101   6.353   3.633   0.249  2.1331  0.0523  0.8125
 9562TIP3    H250102   6.359   3.488   0.204  2.6886 -0.6475  3.1027
 9563TIP3   OH250103   2.274   3.455   1.318 -0.0296  0.1490 -0.1729
 9563TIP3    H150104   2.241   3.386   1.376  0.8552  0.6783  0.9803
 9563TIP3    H250105   2.307   3.522   1.378  3.2950 -0.4268 -1.2798
 9564TIP3   OH250106   1.066   3.769  15.764  0.3129 -0.1259  0.1819
 9564TIP3    H150107   1.044   3.722  15.845 -1.2850 -0.9672 -0.7216
 9564TIP3    H250108   0.982   3.796  15.728  1.1388  2.5180  0.1059
 9565TIP3   OH250109   1.844   3.897  14.561  0.1469  0.4926 -0.3399
 9565TIP3    H150110   1.758   3.887  14.520  0.5021  0.5952 -1.1256
 9565TIP3    H250111   1.906   3.866  14.494  0.6508 -0.6664  0.6332
 9566TIP3   OH250112   3.322   3.157  16.811 -0.1953 -0.5815 -0.1995
 9566TIP3    H150113   3.366   3.084  16.766  1.8525 -0.5477  1.6396
 9566TIP3    H250114   3.391   3.196  16.865 -2.7134 -1.0347  3.4911
 9567TIP3   OH250115   6.605   4.877   4.467  0.2146 -0.4849  0.2384
 9567TIP3    H150116   6.653   4.959   4.481 -0.4245  0.2007 -1.4300
 9567TIP3    H250117   6.587   4.876   4.373 -0.6575 -2.0645  0.4104
 9568TIP3   OH250118   6.437   3.729  11.970 -0.5796  0.0739 -0.1930
 9568TIP3    H150119   6.455   3.636  11.963 -0.7026  0.2171 -3.0516
 9568TIP3    H250120   6.508   3.771  11.921 -2.0027  1.3063 -1.2543
 9569TIP3   OH250121   4.818   5.451   4.294 -0.0739  0.0933 -0.2263
 9569TIP3    H150122   4.747   5.426   4.353  1.0329 -2.4777  0.0948
 9569TIP3    H250123   4.774   5.488   4.217 -1.6951 -0.1995  0.5528
 9570TIP3   OH250124   0.404   2.481   6.117  0.3635  0.2397  0.3157
 9570TIP3    H150125   0.332   2.479   6.181  1.1966 -2.9173  1.2504
 9570TIP3    H250126   0.364   2.517   6.038 -1.3220  1.8863  1.8669
 9571TIP3   OH250127   1.674   3.881  10.741 -0.0104  0.4473  0.6339
 9571TIP3    H150128   1.689   3.803  10.688 -1.3073 -1.6393  3.2393
 9571TIP3    H250129   1.760   3.901  10.779 -0.0710 -0.8524  1.4641
 9572TIP3   OH250130   0.439   4.281   1.143  0.2398  0.6210 -0.3885
 9572TIP3    H150131   0.412   4.220   1.211  0.2586 -0.7076 -1.5457
 9572TIP3    H250132   0.488   4.227   1.080  0.3299  1.8344 -1.3879
 9573TIP3   OH250133   5.571   0.525   3.099 -0.7349 -0.4569 -0.1570
 9573TIP3    H150134   5.497   0.564   3.145 -0.9596  1.2518 -1.9347
 9573TIP3    H250135   5.601   0.593   3.038  3.2457 -0.5264  1.5524
 9574TIP3   OH250136   1.739   4.379  13.163 -0.8788  0.2115  0.0584
 9574TIP3    H150137   1.720   4.470  13.143  0.8051  0.4236 -0.7089
 9574TIP3    H250138   1.654   4.339  13.179 -1.6282  1.9103  0.3920
 9575TIP3   OH250139   6.192   2.313  11.984 -0.2887  0.0744  0.0259
 9575TIP3    H150140   6.243   2.241  12.023 -0.4013  0.6944  1.3422
 9575TIP3    H250141   6.194   2.295  11.890  1.2998 -0.6160  0.1648
 9576TIP3   OH250142   5.867   4.708  14.182  0.4153  0.0280  0.3544
 9576TIP3    H150143   5.958   4.685  14.160 -0.3408 -1.5517 -1.3298
 9576TIP3    H250144   5.831   4.627  14.219 -0.2498  0.7083  1.1966
 9577TIP3   OH250145   5.301   5.035  14.570 -0.3948 -0.3129  0.7605
 9577TIP3    H150146   5.228   5.047  14.509  2.1644 -0.3497 -2.4140
 9577TIP3    H250147   5.279   4.954  14.617 -1.7331 -1.1171 -1.1798
 9578TIP3   OH250148   3.127   3.008  14.018 -0.0172  0.4796  0.3347
 9578TIP3    H150149   3.073   3.064  13.962 -0.0143 -0.8313 -1.0332
 9578TIP3    H250150   3.067   2.940  14.048  0.6153 -0.3679 -0.3075
 9579TIP3   OH250151   3.393   4.239   3.106  0.4951  0.3093 -0.6413
 9579TIP3    H150152   3.415   4.329   3.126  1.8396 -0.3923  1.1913
 9579TIP3    H250153   3.302   4.230   3.131 -0.2583  1.6745 -2.7497
 9580TIP3   OH250154   3.553   5.081   4.793  0.0174  0.2006  0.2106
 9580TIP3    H150155   3.508   5.138   4.731 -0.9552  1.7300  2.2566
 9580TIP3    H250156   3.617   5.033   4.740 -1.6005  0.5688 -2.1588
 9581TIP3   OH250157   2.857   0.454   6.536 -0.7622 -0.5703 -0.1544
 9581TIP3    H150158   2.937   0.431   6.584 -1.1203 -1.2509  0.1249
 9581TIP3    H250159   2.889   0.494   6.455 -0.1505  0.1598  0.4390
 9582TIP3   OH250160   1.752   5.061  12.188  0.0375 -0.1755  0.1457
 9582TIP3    H150161   1.798   5.136  12.151  0.8248 -0.3333  0.7920
 9582TIP3    H250162   1.755   5.075  12.283 -2.0642  0.2911  0.1566
 9583TIP3   OH250163   1.339   1.861  13.707  0.4145  0.0557 -0.6291
 9583TIP3    H150164   1.298   1.807  13.640  0.4795 -0.0127 -0.6146
 9583TIP3    H250165   1.431   1.835  13.706  0.1327 -1.0162  0.5288
 9584TIP3   OH250166   4.308   1.336  10.961 -0.9748  0.4167 -0.3825
 9584TIP3    H150167   4.271   1.306  10.879 -0.4906 -0.7726 -0.1678
 9584TIP3    H250168   4.322   1.430  10.948  0.3495 -0.0052 -2.1285
 9585TIP3   OH250169   0.828   5.956   1.754  0.2111 -0.0123 -0.2106
 9585TIP3    H150170   0.909   5.949   1.703 -0.1980 -0.3662 -0.8200
 9585TIP3    H250171   0.818   6.050   1.769  2.2267 -0.1345  2.3173
 9586TIP3   OH250172   2.892   0.910  14.836  0.3156  0.5401  1.0100
 9586TIP3    H150173   2.897   0.815  14.852  2.6873  0.1095 -1.8652
 9586TIP3    H250174   2.799   0.930  14.839 -0.2279 -1.9056  1.5871
 9587TIP3   OH250175   0.795   2.963  13.641 -0.1079  0.6416 -1.2693
 9587TIP3    H150176   0.724   2.952  13.578 -1.5006  0.5095  0.2785
 9587TIP3    H250177   0.773   2.901  13.711  2.1124 -0.1762 -1.2648
 9588TIP3   OH250178   6.235   5.649   0.392  0.0301  0.3360  0.0641
 9588TIP3    H150179   6.227   5.683   0.482 -1.7870 -0.7434  0.3522
 9588TIP3    H250180   6.171   5.700   0.342 -0.3767 -0.4090 -0.1817
 9589TIP3   OH250181   2.607   0.190  10.974 -0.6417  1.0224 -0.4872
 9589TIP3    H150182   2.682   0.243  10.946 -1.3908  1.1073 -2.4007
 9589TIP3    H250183   2.644   0.104  10.995  0.3464  1.8077  1.0973
 9590TIP3   OH250184   0.107   5.084  17.225  0.5493  0.0077  0.4624
 9590TIP3    H150185   0.159   5.076  17.304  0.6211 -0.2552  0.3874
 9590TIP3    H250186   0.016   5.085  17.256  0.4965 -2.2084  0.3953
 9591TIP3   OH250187   2.541   0.824  12.959 -0.8337  0.1291  0.3424
 9591TIP3    H150188   2.587   0.905  12.979  1.1590 -1.1337  1.0510
 9591TIP3    H250189   2.559   0.809  12.866  1.8937 -1.3555  1.0561
 9592TIP3   OH250190   5.701   0.468  15.174 -0.5055  0.2128  0.5340
 9592TIP3    H150191   5.659   0.406  15.233 -0.9946 -1.6951 -1.7118
 9592TIP3    H250192   5.773   0.419  15.134  0.3496  1.7194  0.1414
 9593TIP3   OH250193   5.711   2.381  11.521 -0.0153  0.5021 -0.0486
 9593TIP3    H150194   5.784   2.395  11.580 -0.3138  1.1389  0.1735
 9593TIP3    H250195   5.635   2.370  11.578 -0.5362  2.4322 -0.3160
 9594TIP3   OH250196   2.578   0.036  15.473 -0.1741  0.0455  0.0174
 9594TIP3    H150197   2.593   0.030  15.568 -2.4283 -1.7966  0.2949
 9594TIP3    H250198   2.605  -0.049  15.440 -0.8440  0.1449 -0.7876
 9595TIP3   OH250199   5.880   4.936  15.769 -0.4332  0.0423  0.2287
 9595TIP3    H150200   5.869   5.031  15.775 -2.1145 -0.0723 -0.7244
 9595TIP3    H250201   5.844   4.902  15.850 -0.9489  0.1299  0.0332
 9596TIP3   OH250202   3.783   3.758   0.103 -0.6168 -0.4366  0.0279
 9596TIP3    H150203   3.759   3.849   0.119  0.5650  0.0401 -0.9075
 9596TIP3    H250204   3.706   3.721   0.058 -0.7327  0.3318 -0.4156
 9597TIP3   OH250205   1.770   4.923   2.719 -0.6017  0.1826  0.2211
 9597TIP3    H150206   1.774   4.840   2.672 -1.4412  1.3606 -1.9712
 9597TIP3    H250207   1.734   4.901   2.805 -0.3286 -1.7881 -0.1633
 9598TIP3   OH250208   0.245   1.890  10.954  0.4403  0.1042 -0.0292
 9598TIP3    H150209   0.185   1.827  10.914  1.9574 -0.5233 -1.3419
 9598TIP3    H250210   0.283   1.844  11.028  2.5354 -1.0341 -1.7564
 9599TIP3   OH250211   5.256   5.181   2.024  0.3106  0.5547 -0.1964
 9599TIP3    H150212   5.340   5.149   2.055 -0.8478 -1.6990  0.7878
 9599TIP3    H250213   5.207   5.101   2.003 -1.6367  1.8141 -0.5616
 9600TIP3   OH250214   4.170   4.508  11.812 -0.4587 -0.3378  0.1823
 9600TIP3    H150215   4.265   4.499  11.820 -0.0336  3.3653 -0.1986
 9600TIP3    H250216   4.153   4.496  11.718 -0.0121  1.8155 -0.1843
 9601TIP3   OH250217   4.516   3.177  16.612  0.0404 -0.1169  0.1211
 9601TIP3    H150218   4.582   3.210  16.550 -0.1418 -0.7402 -0.4119
 9601TIP3    H250219   4.563   3.111  16.663 -0.0630 -0.2819  0.0053
 9602TIP3   OH250220   1.507   0.967   6.913  0.0495  0.4331  0.5992
 9602TIP3    H150221   1.542   0.955   7.001 -0.1401  0.4795  0.6818
 9602TIP3    H250222   1.580   1.002   6.862  0.5950 -1.0151  0.3613
 9603TIP3   OH250223   3.277   1.272   4.594  0.3090 -0.0455  1.1278
 9603TIP3    H150224   3.219   1.249   4.666 -2.0230 -0.5736 -0.8635
 9603TIP3    H250225   3.219   1.288   4.520  2.5178  2.4262 -0.1584
 9604TIP3   OH250226   4.778   5.611  12.895  0.1810  0.2522 -0.3006
 9604TIP3    H150227   4.797   5.688  12.842  2.6960 -0.4088 -0.4145
 9604TIP3    H250228   4.844   5.613  12.964 -0.9767 -0.7282  0.8474
 9605TIP3   OH250229   1.183   3.314   2.026  0.0228  0.1301  0.2855
 9605TIP3    H150230   1.121   3.355   2.086  1.6664 -2.7388  4.1651
 9605TIP3    H250231   1.133   3.245   1.983 -0.7017  1.0568 -0.3849
 9606TIP3   OH250232   2.793   0.339  11.475 -0.4884 -0.4940 -0.9726
 9606TIP3    H150233   2.699   0.342  11.457 -0.7222 -1.1320  0.0815
 9606TIP3    H250234   2.833   0.315  11.392 -1.2021  0.3970 -1.5770
 9607TIP3   OH250235   0.235   5.624  14.585  0.4886  0.5168  0.2234
 9607TIP3    H150236   0.245   5.549  14.526 -0.5066  0.0723  0.6127
 9607TIP3    H250237   0.202   5.694  14.529  2.6793  1.0794 -0.4218
 9608TIP3   OH250238   2.967   0.562  12.102  0.2966 -0.2763  0.1764
 9608TIP3    H150239   2.979   0.531  12.192  2.6486  0.7353  0.2371
 9608TIP3    H250240   2.937   0.652  12.112  0.5560 -0.1655 -0.0527
 9609TIP3   OH250241   5.390   5.858   5.653 -0.1731 -0.1055 -0.5211
 9609TIP3    H150242   5.336   5.916   5.706  0.5678 -1.4873  1.8408
 9609TIP3    H250243   5.366   5.770   5.682  1.3414 -0.8406 -1.4294
 9610TIP3   OH250244   0.262   1.430   1.803 -0.3282 -0.5390 -0.2154
 9610TIP3    H150245   0.306   1.384   1.732  1.6618 -1.9269  1.8558
 9610TIP3    H250246   0.332   1.474   1.851 -1.8143  1.7043 -0.0019
 9611TIP3   OH250247   6.024   5.845  11.899 -0.3564 -0.1439  0.1624
 9611TIP3    H150248   6.068   5.776  11.850  0.9015  0.0830  0.9604
 9611TIP3    H250249   6.021   5.919  11.839  0.3478 -0.1604  0.1068
 9612TIP3   OH250250   5.728   1.862   4.472  0.1118 -0.2796 -0.2009
 9612TIP3    H150251   5.822   1.874   4.462  0.1634 -0.0643  0.5101
 9612TIP3    H250252   5.696   1.945   4.508 -0.0211 -1.0937  1.5909
 9613TIP3   OH250253   5.649   6.384   1.090 -0.0636  0.1494 -0.0968
 9613TIP3    H150254   5.560   6.419   1.088  0.9645  3.0080  0.8785
 9613TIP3    H250255   5.703   6.455   1.055  1.9790 -1.0157  0.6239
 9614TIP3   OH250256   4.926   1.689   3.638  0.4988  0.2277  0.0685
 9614TIP3    H150257   4.890   1.634   3.568  0.7675  0.8710 -0.5667
 9614TIP3    H250258   4.915   1.779   3.607 -0.2280  0.5655  1.2419
 9615TIP3   OH250259   2.061   2.929  17.079  0.4601  0.1959 -0.4048
 9615TIP3    H150260   2.153   2.955  17.088  0.6926 -1.0934  1.3397
 9615TIP3    H250261   2.065   2.839  17.047 -0.1615 -0.1121  0.3526
 9616TIP3   OH250262   6.450   6.203  13.960 -0.2081 -0.1940  0.5482
 9616TIP3    H150263   6.397   6.235  14.033  0.4308 -3.0873  2.3772
 9616TIP3    H250264   6.532   6.175  13.999  0.4265 -1.1574 -1.3729
 9617TIP3   OH250265   6.543   4.491  15.318 -0.0073  0.6487  0.1321
 9617TIP3    H150266   6.499   4.538  15.389  1.1476  0.5411  0.9310
 9617TIP3    H250267   6.636   4.512  15.329  0.0447  1.7075 -2.1683
 9618TIP3   OH250268   0.281   1.411   2.174 -0.2167 -0.4481 -0.4937
 9618TIP3    H150269   0.203   1.392   2.226 -0.3273  0.0537 -0.4746
 9618TIP3    H250270   0.278   1.506   2.159 -1.2460 -0.8488 -3.1262
 9619TIP3   OH250271   4.053   0.764   5.387  0.5571 -0.0252 -0.0428
 9619TIP3    H150272   4.133   0.712   5.394  0.1621 -0.6491 -0.0811
 9619TIP3    H250273   4.010   0.730   5.308 -1.6364 -2.3831  2.0297
 9620TIP3   OH250274   2.357   2.991  15.011  0.4995  0.1719 -0.3872
 9620TIP3    H150275   2.391   3.024  15.094 -0.5030  0.9875 -0.2981
 9620TIP3    H250276   2.383   3.056  14.946 -0.5042  0.5964 -0.3811
 9621TIP3   OH250277   6.505   3.138   2.205  0.3229  0.1239 -0.2748
 9621TIP3    H150278   6.543   3.184   2.280 -1.0816  1.6676 -0.4774
 9621TIP3    H250279   6.412   3.130   2.226  0.3641 -1.7094 -0.7318
 9622TIP3   OH250280   0.397   5.125   0.479 -0.6341 -0.1580  0.1199
 9622TIP3    H150281   0.489   5.100   0.483 -0.7037 -0.4257  0.0653
 9622TIP3    H250282   0.396   5.218   0.502 -0.4769 -0.4419  1.3059
 9623TIP3   OH250283   0.525   4.627  15.751 -0.0399  0.4560  0.0397
 9623TIP3    H150284   0.582   4.689  15.706  0.8388 -1.2428 -1.2672
 9623TIP3    H250285   0.567   4.612  15.835  1.6149 -0.9748 -1.0136
 9624TIP3   OH250286   0.482   3.096   1.859  0.0910  0.2272 -0.1394
 9624TIP3    H150287   0.561   3.140   1.892  0.7190 -2.2433  1.8205
 9624TIP3    H250288   0.415   3.117   1.924 -0.3609  0.6513 -0.7402
 9625TIP3   OH250289   6.088   0.060   3.433 -0.9842 -0.2697  0.1914
 9625TIP3    H150290   6.050  -0.020   3.470  0.7101 -1.3451 -0.2964
 9625TIP3    H250291   6.087   0.046   3.338 -2.7511  1.2745 -0.0347
 9626TIP3   OH250292   4.126   5.843  12.261 -0.4948 -0.2315 -0.4360
 9626TIP3    H150293   4.215   5.828  12.230 -1.4539 -3.7950 -1.6528
 9626TIP3    H250294   4.094   5.914  12.206  0.9319 -0.2497 -1.3209
 9627TIP3   OH250295   6.426   1.856   4.719  0.0888  0.1057  0.2756
 9627TIP3    H150296   6.480   1.889   4.647 -2.4178  0.5252 -1.4730
 9627TIP3    H250297   6.386   1.934   4.757  0.1247 -0.2569  1.0639
 9628TIP3   OH250298   1.384   4.156   2.605  0.0328 -0.1220  0.1265
 9628TIP3    H150299   1.311   4.198   2.650  0.0885 -0.7846  0.8380
 9628TIP3    H250300   1.368   4.175   2.512 -2.1421 -1.9312  0.0810
 9629TIP3   OH250301   5.677   6.460   4.607  0.5870 -0.0453 -0.4622
 9629TIP3    H150302   5.647   6.387   4.554 -1.4425  0.2104  0.3082
 9629TIP3    H250303   5.611   6.470   4.675  0.6877  2.6656 -0.6978
 9630TIP3   OH250304   4.931   0.591  15.124  0.2260 -0.5452  0.0865
 9630TIP3    H150305   4.992   0.579  15.197  2.5388 -0.3278 -1.7557
 9630TIP3    H250306   4.923   0.504  15.085  0.2412 -0.3344 -0.3813
 9631TIP3   OH250307   2.352   4.731   3.963  0.4001 -0.3409  0.0202
 9631TIP3    H150308   2.399   4.681   3.896 -0.3375 -0.8752 -0.0970
 9631TIP3    H250309   2.302   4.796   3.914 -0.0457 -0.6536  0.0584
 9632TIP3   OH250310   4.619   3.887   4.083 -0.7206  0.1301  0.6055
 9632TIP3    H150311   4.660   3.830   4.148 -2.3082 -0.9002  0.7525
 9632TIP3    H250312   4.583   3.827   4.018  0.0980  1.1174 -0.7790
 9633TIP3   OH250313   0.340   0.149  15.906 -0.3152 -0.8350 -0.3275
 9633TIP3    H150314   0.304   0.231  15.873 -1.9401 -1.4042  0.0077
 9633TIP3    H250315   0.423   0.174  15.947 -0.4874  0.5346 -0.8057
 9634TIP3   OH250316   2.451   4.487   5.338 -0.2940  0.1196 -0.0435
 9634TIP3    H150317   2.394   4.417   5.304 -0.8191  0.7910 -0.5619
 9634TIP3    H250318   2.467   4.543   5.262 -1.6430  1.7543  0.8465
 9635TIP3   OH250319   0.857   4.406  12.867  0.5404  0.2904 -0.4071
 9635TIP3    H150320   0.773   4.395  12.823  0.2146  0.2840  0.1989
 9635TIP3    H250321   0.917   4.432  12.798 -0.4952  2.6808 -0.4421
 9636TIP3   OH250322   3.494   1.149  17.035  0.1537  0.0872  0.1317
 9636TIP3    H150323   3.530   1.149  17.124 -0.2417 -0.5148  0.2956
 9636TIP3    H250324   3.462   1.060  17.022  0.2311  0.1676 -0.6268
 9637TIP3   OH250325   2.420   5.117  14.149  0.2418  0.1680  0.0666
 9637TIP3    H150326   2.351   5.095  14.087 -0.2975  3.7414 -0.6959
 9637TIP3    H250327   2.496   5.066  14.121 -0.7250 -0.1640 -1.9880
 9638TIP3   OH250328   1.071   5.668  12.866  0.4847 -0.4226 -0.0491
 9638TIP3    H150329   1.041   5.713  12.787  0.0436 -0.4940  0.0730
 9638TIP3    H250330   0.990   5.638  12.908  0.5734  1.4978  1.5517
 9639TIP3   OH250331   5.359   5.458  11.811  0.0206 -0.3509  0.3193
 9639TIP3    H150332   5.454   5.466  11.804 -0.2199  1.7550 -0.7991
 9639TIP3    H250333   5.339   5.374  11.768  1.1765  0.1635 -1.2544
 9640TIP3   OH250334   3.069   1.471   1.230  0.8551  0.1858 -0.5147
 9640TIP3    H150335   3.013   1.512   1.165 -1.1436 -1.4154  0.1542
 9640TIP3    H250336   3.083   1.540   1.296  0.9784  1.0739 -1.4580
 9641TIP3   OH250337   4.869   5.126   0.927 -0.2983  0.0814 -0.2452
 9641TIP3    H150338   4.846   5.205   0.977 -1.2112  0.6149 -1.4684
 9641TIP3    H250339   4.931   5.079   0.982 -0.8236  0.9665  1.1123
 9642TIP3   OH250340   4.943   4.755   2.035 -0.1415 -0.7390  0.8301
 9642TIP3    H150341   4.872   4.805   1.996 -0.1620 -1.5560 -0.1850
 9642TIP3    H250342   4.968   4.691   1.968  2.6160  0.5628  0.5485
 9643TIP3   OH250343   3.939   1.191  16.876 -0.0269 -0.0907 -0.3037
 9643TIP3    H150344   3.848   1.205  16.848  0.0541  0.7883 -0.1350
 9643TIP3    H250345   3.975   1.279  16.884  0.5331 -0.4116  0.6615
 9644TIP3   OH250346   5.845   4.419   2.722 -0.2905 -0.3816 -0.1057
 9644TIP3    H150347   5.925   4.397   2.769 -0.5821 -0.2945  0.4271
 9644TIP3    H250348   5.781   4.438   2.790 -0.7427 -0.3646 -0.5327
 9645TIP3   OH250349   4.855   3.149  14.602  0.4927  0.0820 -0.3304
 9645TIP3    H150350   4.803   3.147  14.683  2.7758  3.3563  1.3538
 9645TIP3    H250351   4.864   3.058  14.577 -2.9791 -0.8028  1.3151
 9646TIP3   OH250352   6.626   5.949   4.819 -0.2023  0.0380  0.4071
 9646TIP3    H150353   6.677   6.008   4.764 -1.4642 -0.1570 -0.9693
 9646TIP3    H250354   6.610   5.999   4.899  0.7119  0.7069  0.1832
 9647TIP3   OH250355   0.020   4.178   5.750 -0.4429 -0.1103 -0.4550
 9647TIP3    H150356   0.023   4.097   5.700 -0.7266  0.6132 -1.6672
 9647TIP3    H250357  -0.004   4.245   5.686  0.5564  1.0581  0.3671
 9648TIP3   OH250358   5.416   5.071  12.858 -0.0036 -0.2320 -0.0649
 9648TIP3    H150359   5.503   5.057  12.819 -0.5174 -0.3410 -1.2041
 9648TIP3    H250360   5.355   5.047  12.788 -0.9487  0.1794  0.6146
 9649TIP3   OH250361   4.281   2.751  13.774  0.5117  0.2427 -0.3972
 9649TIP3    H150362   4.342   2.679  13.761  0.2048 -0.0134 -0.4405
 9649TIP3    H250363   4.209   2.732  13.714  1.9799  2.3887 -2.9172
 9650TIP3   OH250364   6.135   5.532  13.552  0.1891  0.3402  0.2846
 9650TIP3    H150365   6.120   5.470  13.480 -0.8155  0.0560  0.7297
 9650TIP3    H250366   6.148   5.477  13.629  1.7784  0.6324  0.2426
 9651TIP3   OH250367   4.220   5.122  14.135  0.6527  0.0751 -0.5751
 9651TIP3    H150368   4.270   5.177  14.076  0.9557  0.6820  0.2302
 9651TIP3    H250369   4.135   5.110  14.092  0.7350  0.8252 -0.9428
 9652TIP3   OH250370   3.291   0.129  14.051  0.1333  0.6296  0.3704
 9652TIP3    H150371   3.281   0.096  14.141  0.0615 -0.1563  0.0762
 9652TIP3    H250372   3.248   0.215  14.053 -3.4369 -1.0647  0.0893
 9653TIP3   OH250373   0.105   2.788  15.513 -0.0824 -0.3977  0.2877
 9653TIP3    H150374   0.192   2.819  15.539  1.2012 -0.3679 -3.7414
 9653TIP3    H250375   0.113   2.693  15.507 -0.1841 -0.3545 -0.5775
 9654TIP3   OH250376   1.871   0.951  17.228  0.0156  0.1564  0.1468
 9654TIP3    H150377   1.922   1.025  17.195  0.6170 -0.0009  0.7152
 9654TIP3    H250378   1.931   0.905  17.288 -1.8200  1.7942  3.3623
 9655TIP3   OH250379   2.031   3.280   1.128  0.1700  0.5259 -0.0269
 9655TIP3    H150380   2.012   3.339   1.055  1.9248  0.5896 -0.4635
 9655TIP3    H250381   2.124   3.259   1.118 -0.1721 -1.5073  0.7147
 9656TIP3   OH250382   5.475   3.083  12.322 -0.3700 -0.0569 -0.1483
 9656TIP3    H150383   5.465   3.177  12.338  1.3326  0.2172 -0.5948
 9656TIP3    H250384   5.388   3.046  12.338 -1.6401  1.9138 -2.1797
 9657TIP3   OH250385   1.856   2.158   4.524 -0.0751 -0.1842 -0.3157
 9657TIP3    H150386   1.860   2.124   4.435  0.4058 -1.3505  0.1319
 9657TIP3    H250387   1.867   2.080   4.579  1.4525  0.7460  0.7363
 9658TIP3   OH250388   5.400   2.337   0.062  0.0207 -0.2664  0.3109
 9658TIP3    H150389   5.352   2.391   0.124 -1.0143 -0.7259 -0.0847
 9658TIP3    H250390   5.358   2.251   0.066  0.8611 -0.7062  0.0207
 9659TIP3   OH250391   4.738   3.435  11.114 -0.5198  0.6955 -0.4766
 9659TIP3    H150392   4.756   3.526  11.138  0.3158 -0.1428  2.2157
 9659TIP3    H250393   4.823   3.393  11.114 -1.0322 -0.3503 -0.5801
 9660TIP3   OH250394   4.558   1.798  16.955  0.0368 -0.1540  0.2747
 9660TIP3    H150395   4.599   1.716  16.981  1.1734  0.0745 -0.7250
 9660TIP3    H250396   4.562   1.853  17.033  2.2272  0.0701  0.0647
 9661TIP3   OH250397   1.302   5.090   2.242  0.0240  0.2232  0.0125
 9661TIP3    H150398   1.246   5.052   2.175  0.5420  0.5802 -0.6272
 9661TIP3    H250399   1.387   5.049   2.229  0.5889  1.5969 -0.6885
 9662TIP3   OH250400   1.392   6.125   3.580 -0.3896 -0.0668  0.0251
 9662TIP3    H150401   1.412   6.189   3.511  0.9299  0.8005  1.1891
 9662TIP3    H250402   1.296   6.117   3.578 -0.4131  0.4149 -1.4792
 9663TIP3   OH250403   3.711   3.276  11.819 -0.1147  0.7394 -0.1393
 9663TIP3    H150404   3.618   3.292  11.804 -0.3762  0.8280  1.4493
 9663TIP3    H250405   3.717   3.261  11.913  1.5761  1.3831 -0.1323
 9664TIP3   OH250406   3.159   4.080  16.673  0.3613 -0.3988  0.5836
 9664TIP3    H150407   3.250   4.054  16.691  0.0756 -1.8916 -0.0108
 9664TIP3    H250408   3.158   4.101  16.579  0.2914  0.4806  0.7802
 9665TIP3   OH250409   6.541   3.070   0.667  0.4188  0.0355  0.5968
 9665TIP3    H150410   6.493   3.108   0.740 -1.9075  0.9147 -1.3154
 9665TIP3    H250411   6.512   2.978   0.665 -1.4174  0.6057 -0.6594
 9666TIP3   OH250412   4.737   3.766  10.956  0.1928  0.0367 -0.1139
 9666TIP3    H150413   4.785   3.764  11.039 -0.7332  0.8721  0.4655
 9666TIP3    H250414   4.762   3.849  10.915  1.4567 -0.8634 -1.1735
 9667TIP3   OH250415   4.242   6.696   4.109 -0.1477 -0.6036 -0.1223
 9667TIP3    H150416   4.274   6.607   4.122  1.5761  0.1350  0.8479
 9667TIP3    H250417   4.321   6.750   4.107 -1.1562  0.8906 -0.8596
 9668TIP3   OH250418   4.822   0.760  17.199  0.2254  0.4351  0.7766
 9668TIP3    H150419   4.780   0.676  17.179 -0.7330  0.4833  2.5080
 9668TIP3    H250420   4.782   0.822  17.138  1.1094 -0.3958 -0.6711
 9669TIP3   OH250421   3.217   2.372   3.663 -0.4574  0.1470  0.3162
 9669TIP3    H150422   3.248   2.384   3.753  0.4541  1.5958 -0.1830
 9669TIP3    H250423   3.155   2.444   3.650 -0.8954 -0.2989 -0.1047
 9670TIP3   OH250424   4.180   6.577  14.556  0.0622 -0.2069  0.1411
 9670TIP3    H150425   4.264   6.553  14.597 -0.0645 -0.4446  0.2620
 9670TIP3    H250426   4.135   6.494  14.544  0.1061 -0.1419 -0.5014
 9671TIP3   OH250427   5.049   1.426   3.808  0.2048 -0.6399 -0.6548
 9671TIP3    H150428   5.144   1.440   3.807  0.2411 -0.9386 -1.4128
 9671TIP3    H250429   5.032   1.370   3.733 -0.3374 -2.2308  0.6433
 9672TIP3   OH250430   2.181   5.181   6.523 -0.1696  0.4384 -0.5048
 9672TIP3    H150431   2.218   5.127   6.593 -1.3898  1.1289  0.6750
 9672TIP3    H250432   2.217   5.142   6.443  0.4815 -0.9472  0.4277
 9673TIP3   OH250433   6.185   4.994   3.215 -0.2128 -0.5321 -0.4886
 9673TIP3    H150434   6.274   5.002   3.182 -0.0101  0.9686  0.3939
 9673TIP3    H250435   6.145   5.080   3.200 -1.0699 -0.7621  0.3857
 9674TIP3   OH250436   1.467   6.665   2.558  0.1731 -0.1989  0.0347
 9674TIP3    H150437   1.408   6.659   2.483 -0.6317 -0.2950  0.6618
 9674TIP3    H250438   1.481   6.759   2.571 -0.4202 -0.1440  0.3154
 9675TIP3   OH250439   6.180   3.304  16.938  0.0422  0.4061 -0.9689
 9675TIP3    H150440   6.271   3.287  16.961 -0.7110 -0.9759  1.2033
 9675TIP3    H250441   6.145   3.218  16.915 -0.6910  0.9510 -1.9004
 9676TIP3   OH250442   3.584   1.073  15.910  0.2889  0.4281  0.1251
 9676TIP3    H150443   3.645   1.041  15.977 -0.7582 -1.6573  0.1103
 9676TIP3    H250444   3.530   1.137  15.956  1.0895  0.7175  0.6805
 9677TIP3   OH250445   0.665   0.130  11.916 -0.1307  0.0914  0.0855
 9677TIP3    H150446   0.608   0.206  11.912  0.6896  0.8247  1.6971
 9677TIP3    H250447   0.703   0.123  11.828 -0.0128  1.7022 -0.0114
 9678TIP3   OH250448   0.865   3.971  16.938 -0.3791  0.5043  0.1245
 9678TIP3    H150449   0.953   3.937  16.953 -0.0851  0.9062 -0.6369
 9678TIP3    H250450   0.821   3.963  17.022 -0.3133 -1.7344 -0.0249
 9679TIP3   OH250451   2.563   5.294  13.776 -0.2045 -0.7609  0.2462
 9679TIP3    H150452   2.475   5.266  13.800 -0.8045  0.2515 -0.7357
 9679TIP3    H250453   2.613   5.288  13.857 -1.2459 -1.0850  0.8731
 9680TIP3   OH250454   3.666   3.128  10.579  0.3796 -0.3299 -0.2168
 9680TIP3    H150455   3.648   3.038  10.607  0.6774 -0.1739  0.4839
 9680TIP3    H250456   3.731   3.119  10.510 -0.4534 -0.7287 -0.9721
 9681TIP3   OH250457   2.445   2.401   2.050  0.5277  0.6315 -0.2087
 9681TIP3    H150458   2.530   2.431   2.017  0.9033 -0.6571 -0.4739
 9681TIP3    H250459   2.466   2.354   2.131  0.1228  0.0031 -0.4585
 9682TIP3   OH250460   5.167   2.919   3.907 -0.2232 -0.3246  0.7996
 9682TIP3    H150461   5.101   2.963   3.962 -2.1291 -0.2796 -1.4436
 9682TIP3    H250462   5.135   2.830   3.898  0.5801 -0.5885  0.5426
 9683TIP3   OH250463   0.357   5.479  12.504 -0.3839  0.1898  0.4366
 9683TIP3    H150464   0.332   5.453  12.415 -0.5165  1.7321  0.0040
 9683TIP3    H250465   0.299   5.552  12.525 -0.9466 -0.7341  2.1505
 9684TIP3   OH250466   5.264   0.311   1.241 -0.1464  0.0227  0.2330
 9684TIP3    H150467   5.282   0.333   1.150 -1.0211  0.6626  0.2092
 9684TIP3    H250468   5.181   0.263   1.238  0.8242 -1.7305  0.4813
 9685TIP3   OH250469   5.673   0.618   0.227 -0.4538 -0.6974 -0.5229
 9685TIP3    H150470   5.767   0.620   0.247 -0.2200  0.0577 -1.6535
 9685TIP3    H250471   5.652   0.525   0.220  0.0560 -0.8885  0.4424
 9686TIP3   OH250472   2.997   3.448  15.106  0.2914  0.4278 -0.1399
 9686TIP3    H150473   3.064   3.480  15.167  1.3224  0.2827 -1.1809
 9686TIP3    H250474   2.923   3.423  15.162  0.6972  1.5989  0.9381
 9687TIP3   OH250475   5.815   0.936   4.572 -0.3716  0.3605  0.2365
 9687TIP3    H150476   5.857   0.959   4.654  3.5503 -0.4295 -1.4558
 9687TIP3    H250477   5.769   1.016   4.545  1.0598  1.6562  1.5574
 9688TIP3   OH250478   1.144   6.418  12.287 -0.4664 -0.3224  0.1003
 9688TIP3    H150479   1.141   6.347  12.222  0.2626 -0.1019 -0.1723
 9688TIP3    H250480   1.088   6.387  12.359  0.9662 -1.7933  0.6060
 9689TIP3   OH250481   1.996   1.654  16.852  0.2281  0.2118  0.3061
 9689TIP3    H150482   1.946   1.603  16.915 -0.8260  0.5648 -0.2220
 9689TIP3    H250483   2.054   1.591  16.810  0.2407 -0.1996  0.9378
 9690TIP3   OH250484   6.711   3.605  12.873  0.4401  0.3658  0.4131
 9690TIP3    H150485   6.779   3.638  12.931  1.6590  0.8420 -1.2466
 9690TIP3    H250486   6.717   3.510  12.882  1.1890  0.4103  0.4409
 9691TIP3   OH250487   1.113   1.717  13.907 -0.1659 -0.1855  0.4644
 9691TIP3    H150488   1.162   1.779  13.962  1.8591 -0.5652 -0.8780
 9691TIP3    H250489   1.176   1.648  13.886 -2.3126 -2.6152  1.7161
 9692TIP3   OH250490   1.801   5.428   6.442 -0.1349  0.0502  0.8236
 9692TIP3    H150491   1.731   5.374   6.479  0.1529 -1.3769 -0.6656
 9692TIP3    H250492   1.780   5.432   6.348  2.0119 -0.7606  0.2913
 9693TIP3   OH250493   1.094   2.102  15.012  0.6881 -0.3309 -0.1299
 9693TIP3    H150494   1.155   2.141  15.074  1.3464  0.1776 -1.0843
 9693TIP3    H250495   1.048   2.176  14.973  0.8090 -0.5933 -0.7892
 9694TIP3   OH250496   5.523   4.482   1.306  0.0950 -0.4025 -0.0055
 9694TIP3    H150497   5.526   4.578   1.301  0.5983 -0.4131  0.0730
 9694TIP3    H250498   5.506   4.464   1.399 -1.9908 -0.3534 -0.3522
 9695TIP3   OH250499   4.398   0.029  12.908  0.0012 -0.2146 -0.7273
 9695TIP3    H150500   4.408  -0.015  12.824 -2.6652  0.0007 -1.2231
 9695TIP3    H250501   4.374  -0.041  12.969 -2.1277  0.1940 -1.0577
 9696TIP3   OH250502   3.089   0.398   6.668 -0.2915  0.1979 -0.4071
 9696TIP3    H150503   3.161   0.450   6.705  1.3503 -3.1230  1.2693
 9696TIP3    H250504   3.130   0.346   6.600 -0.8425 -2.4498  1.2262
 9697TIP3   OH250505   6.403   1.990   3.841 -0.0733 -0.1823 -0.6391
 9697TIP3    H150506   6.473   1.987   3.906  0.2694  0.0536 -0.9937
 9697TIP3    H250507   6.409   1.907   3.795  1.2741  0.6460 -2.0110
 9698TIP3   OH250508   5.195   3.813  15.978  0.2843  0.4455  0.3968
 9698TIP3    H150509   5.203   3.875  15.906 -0.2023  0.3798  0.2841
 9698TIP3    H250510   5.246   3.737  15.950  1.4713  1.0672  0.8432
 9699TIP3   OH250511   3.093   0.147   5.455 -0.1560  0.2562 -0.1105
 9699TIP3    H150512   3.180   0.187   5.459 -1.0318  2.6004 -2.5891
 9699TIP3    H250513   3.045   0.203   5.394 -3.2080 -1.3803  0.7279
 9700TIP3   OH250514   2.905   2.676   6.080 -0.5414 -0.0869 -0.0615
 9700TIP3    H150515   2.884   2.623   6.157  0.5574 -0.0659  0.2738
 9700TIP3    H250516   2.916   2.613   6.009  0.8529 -0.3402  0.3578
 9701TIP3   OH250517   4.554   0.070  16.394 -0.0624 -0.5484  0.7773
 9701TIP3    H150518   4.584   0.022  16.471  0.3851  0.3506  1.1870
 9701TIP3    H250519   4.474   0.026  16.367  0.3942 -1.5803  1.0698
 9702TIP3   OH250520   1.915   1.666  11.447 -0.0725  0.0324 -0.6729
 9702TIP3    H150521   1.821   1.669  11.431 -0.1034 -0.9611 -0.7092
 9702TIP3    H250522   1.955   1.685  11.362 -0.2412  0.5912 -0.6252
 9703TIP3   OH250523   0.479   3.324  11.485 -0.3151  0.0271 -0.0424
 9703TIP3    H150524   0.520   3.397  11.437 -0.5142  0.7012  0.7996
 9703TIP3    H250525   0.387   3.329  11.460 -0.5871  0.9425  1.0948
 9704TIP3   OH250526   1.440   2.632   2.468 -0.1171  0.3943 -0.0921
 9704TIP3    H150527   1.529   2.655   2.494 -0.4868  2.0513 -0.2766
 9704TIP3    H250528   1.451   2.574   2.392  0.8497 -1.2203  1.2454
 9705TIP3   OH250529   1.356   2.111  15.463  0.0164 -0.6666  0.2864
 9705TIP3    H150530   1.320   2.025  15.484 -0.7488 -0.3330  0.3729
 9705TIP3    H250531   1.359   2.157  15.547  0.7207 -0.7207  0.2892
 9706TIP3   OH250532   2.751   2.124   5.371  0.3138 -0.2090  0.2333
 9706TIP3    H150533   2.815   2.195   5.375  1.2554 -0.9126 -1.6451
 9706TIP3    H250534   2.680   2.153   5.429  2.0041  0.8805  1.8447
 9707TIP3   OH250535   2.466   2.114  17.102  0.2231  0.1718  0.0610
 9707TIP3    H150536   2.398   2.062  17.059 -0.1934  1.0000 -0.2903
 9707TIP3    H250537   2.506   2.054  17.165  0.2961 -0.8164 -0.9134
 9708TIP3   OH250538   6.057   6.724  15.451 -0.3055 -0.4679 -0.1112
 9708TIP3    H150539   6.103   6.788  15.505 -2.8153 -1.2065  3.0422
 9708TIP3    H250540   6.122   6.656  15.433  1.7519  1.8225 -1.6507
 9709TIP3   OH250541   2.987   2.492  13.631  0.1723 -0.0001  0.3608
 9709TIP3    H150542   2.928   2.560  13.599 -0.2768 -0.1618  0.8269
 9709TIP3    H250543   3.058   2.540  13.673 -0.6165  0.1831  1.5199
 9710TIP3   OH250544   1.105   0.816   2.635  0.0872  0.2698 -0.1039
 9710TIP3    H150545   1.139   0.786   2.551  0.0422 -1.8114  0.6034
 9710TIP3    H250546   1.062   0.899   2.615 -0.7398 -0.6567 -2.3013
 9711TIP3   OH250547   1.239   0.089   3.875 -0.3914  0.0509 -0.0175
 9711TIP3    H150548   1.251   0.182   3.853 -0.7647 -0.2502 -1.5062
 9711TIP3    H250549   1.145   0.078   3.884 -0.5103 -0.6279 -1.8931
 9712TIP3   OH250550   4.310   2.928   5.043  0.2450  0.3059  0.3260
 9712TIP3    H150551   4.362   2.909   4.965 -0.8631 -0.1466 -0.3049
 9712TIP3    H250552   4.225   2.888   5.026 -1.0393  2.9223  0.4365
 9713TIP3   OH250553   1.983   6.355   3.683  0.0352 -0.7671 -0.3200
 9713TIP3    H150554   1.943   6.271   3.706  1.4044 -2.0135 -2.3245
 9713TIP3    H250555   2.023   6.339   3.597  2.7810  1.1007  0.5553
 9714TIP3   OH250556   2.148   2.064  13.616 -0.5119 -0.2947  0.1112
 9714TIP3    H150557   2.131   2.092  13.706 -0.6276  0.5286 -0.1597
 9714TIP3    H250558   2.241   2.084  13.602  0.0770 -2.4819  0.7709
 9715TIP3   OH250559   1.898   6.719   4.839 -0.6986  0.4968 -0.0770
 9715TIP3    H150560   1.953   6.708   4.762 -0.1265 -1.5839  0.5906
 9715TIP3    H250561   1.813   6.683   4.813 -0.5126 -0.1815  0.2336
 9716TIP3   OH250562   0.616   2.609  14.169  0.0077 -0.2076  0.4119
 9716TIP3    H150563   0.663   2.593  14.087  1.0872 -0.6875  1.1052
 9716TIP3    H250564   0.635   2.531  14.222 -0.9102 -0.0252  1.0051
 9717TIP3   OH250565   0.950   4.877   2.692 -0.7654  0.4728  0.0005
 9717TIP3    H150566   0.942   4.839   2.780  1.0574 -0.5859 -0.2699
 9717TIP3    H250567   0.999   4.958   2.706  0.5067 -0.2568 -0.1669
 9718TIP3   OH250568   5.852   1.751  16.252  0.1746  0.1614  0.3850
 9718TIP3    H150569   5.929   1.768  16.307 -0.7236  1.0625  1.4010
 9718TIP3    H250570   5.837   1.657  16.260 -0.3131  0.3689  2.2287
 9719TIP3   OH250571   1.714   3.613   4.820  0.0400  0.1864  0.1717
 9719TIP3    H150572   1.646   3.579   4.878  2.0431 -2.1672  1.2278
 9719TIP3    H250573   1.745   3.693   4.864  0.2080 -0.5267  1.3807
 9720TIP3   OH250574   6.120   3.339  12.744 -0.0368 -0.3893 -0.2079
 9720TIP3    H150575   6.150   3.276  12.810  0.6548  0.0467 -0.1001
 9720TIP3    H250576   6.105   3.286  12.665 -1.5450 -1.0204  0.4889
 9721TIP3   OH250577   1.450   5.111  15.368 -0.2823 -0.0009 -0.2592
 9721TIP3    H150578   1.464   5.141  15.278  0.0662  2.8505  0.6700
 9721TIP3    H250579   1.538   5.090  15.399 -0.2485  0.2626 -0.1776
 9722TIP3   OH250580   2.574   2.998   0.823 -0.3539  0.6017 -0.5577
 9722TIP3    H150581   2.617   2.914   0.841 -1.2043  0.4296  0.6946
 9722TIP3    H250582   2.598   3.017   0.732  1.0055 -0.2942 -0.4051
 9723TIP3   OH250583   4.780   2.241   4.320  0.0457  0.5894 -0.0831
 9723TIP3    H150584   4.709   2.224   4.258  0.1725 -0.3607  0.0200
 9723TIP3    H250585   4.762   2.328   4.354 -0.6085  0.6924 -0.6779
 9724TIP3   OH250586   2.566   0.485  12.064 -0.1075 -0.2726 -0.3078
 9724TIP3    H150587   2.505   0.435  12.010 -0.8957  1.1113 -0.7018
 9724TIP3    H250588   2.523   0.490  12.150  0.7488 -1.7161  0.2308
 9725TIP3   OH250589   3.272   6.060   4.243 -0.5802  0.1339  0.0688
 9725TIP3    H150590   3.202   6.101   4.294 -0.9317 -1.6340  1.0652
 9725TIP3    H250591   3.229   6.032   4.161 -0.6077  0.7302 -0.1184
 9726TIP3   OH250592   0.568   4.929  12.308  0.1697 -0.7026 -0.0639
 9726TIP3    H150593   0.533   4.869  12.374  2.5759 -0.5360  1.3904
 9726TIP3    H250594   0.542   5.016  12.339 -1.6117 -0.8220 -1.1419
 9727TIP3   OH250595   3.278   4.867   4.657  0.5061  0.2630 -0.6111
 9727TIP3    H150596   3.271   4.955   4.693 -0.4981  0.2637 -0.7828
 9727TIP3    H250597   3.190   4.830   4.669  0.7303 -0.4624 -1.1781
 9728TIP3   OH250598   3.760   4.395  13.623  0.2903 -0.0949 -0.0486
 9728TIP3    H150599   3.788   4.348  13.544 -0.2875 -1.6906  0.6769
 9728TIP3    H250600   3.842   4.421  13.666  0.6239 -0.7165 -0.2992
 9729TIP3   OH250601   5.284   0.246   5.571 -0.1314  0.0685  0.1064
 9729TIP3    H150602   5.315   0.303   5.642  2.7539 -3.8260  2.1424
 9729TIP3    H250603   5.207   0.202   5.609 -0.2474  0.0186 -0.1887
 9730TIP3   OH250604   1.710   5.261   0.675 -0.1710 -0.0911  0.2174
 9730TIP3    H150605   1.658   5.186   0.703 -0.3831 -0.3182 -0.7531
 9730TIP3    H250606   1.747   5.235   0.590  1.8172 -0.0745  1.0438
 9731TIP3   OH250607   3.722   2.429  13.417 -0.1785 -0.3094 -0.6256
 9731TIP3    H150608   3.702   2.335  13.421 -1.4016  0.0218  1.1490
 9731TIP3    H250609   3.645   2.468  13.375  0.3734 -0.0979 -1.4532
 9732TIP3   OH250610   2.701   5.987  11.655  0.8145 -0.0480  0.3150
 9732TIP3    H150611   2.745   6.046  11.716  0.5082 -1.0296  1.5002
 9732TIP3    H250612   2.650   5.928  11.710  0.1644 -0.6685 -0.9098
 9733TIP3   OH250613   3.437   6.628  15.038  0.1396  0.3136 -0.6729
 9733TIP3    H150614   3.403   6.717  15.048 -1.9079 -0.5326  0.1136
 9733TIP3    H250615   3.433   6.591  15.126 -1.2430 -1.3052 -1.3942
 9734TIP3   OH250616   0.097   2.012  12.849  0.1613  0.0426  0.2152
 9734TIP3    H150617   0.190   1.987  12.847  0.1968 -0.0090  1.7246
 9734TIP3    H250618   0.094   2.089  12.906 -0.7328 -0.0015  0.2364
 9735TIP3   OH250619   4.242   6.246   0.192  0.3363 -0.1141 -0.6995
 9735TIP3    H150620   4.212   6.324   0.238 -0.4076 -0.6727 -0.2048
 9735TIP3    H250621   4.308   6.277   0.131  0.7284  0.7613  0.1648
 9736TIP3   OH250622   1.924   1.768  14.845 -0.0035 -0.0107 -0.0330
 9736TIP3    H150623   1.840   1.735  14.814 -0.3919  0.0821  0.9012
 9736TIP3    H250624   1.984   1.694  14.838 -0.1583 -0.0767 -0.6967
 9737TIP3   OH250625   4.484   3.656   3.566  0.2685  0.2023  0.6289
 9737TIP3    H150626   4.464   3.648   3.659 -1.0435  0.9821  0.4226
 9737TIP3    H250627   4.501   3.749   3.553  0.3874  0.1063  0.0750
 9738TIP3   OH250628   4.062   0.141   3.130 -0.0813  0.0357 -0.2556
 9738TIP3    H150629   4.078   0.049   3.109  1.1986  0.1390  0.1864
 9738TIP3    H250630   4.123   0.189   3.074  0.5558  0.5111  0.8214
 9739TIP3   OH250631   6.030   3.179   0.989  0.3782 -0.0484  0.3479
 9739TIP3    H150632   6.059   3.195   1.079  0.6811  3.4691 -0.3299
 9739TIP3    H250633   6.109   3.183   0.936 -0.0684 -0.0830 -0.3430
 9740TIP3   OH250634   1.685   5.374   6.189  0.5992 -0.0005  0.0800
 9740TIP3    H150635   1.610   5.326   6.224  0.9705 -0.2088  0.5869
 9740TIP3    H250636   1.744   5.307   6.155 -0.5023  0.2673 -2.4662
 9741TIP3   OH250637   2.685   5.293  11.354 -0.1636 -0.3069 -0.1827
 9741TIP3    H150638   2.691   5.361  11.421 -3.3237  0.1108 -0.2297
 9741TIP3    H250639   2.723   5.332  11.275  1.8002 -0.1085  0.8380
 9742TIP3   OH250640   4.224   0.476   4.206  0.0986 -0.3530 -0.5030
 9742TIP3    H150641   4.185   0.390   4.222 -1.1612  0.4254  0.6997
 9742TIP3    H250642   4.157   0.525   4.157 -0.1682  0.7359  0.9152
 9743TIP3   OH250643   1.736   3.295  11.411  0.4660  0.8454  0.7174
 9743TIP3    H150644   1.723   3.340  11.327 -0.1307 -1.5143 -0.5108
 9743TIP3    H250645   1.828   3.267  11.409  0.0034 -0.6636  0.0895
 9744TIP3   OH250646   0.509   4.754   3.451 -0.0490 -0.2638 -0.0359
 9744TIP3    H150647   0.420   4.719   3.457  0.3060 -0.8897  1.7697
 9744TIP3    H250648   0.564   4.678   3.432  0.2335 -0.0563 -0.0632
 9745TIP3   OH250649   1.915   6.783   3.228  0.1760  0.4526  0.2174
 9745TIP3    H150650   1.867   6.722   3.171  1.1256  0.0502 -0.1656
 9745TIP3    H250651   1.885   6.763   3.316 -1.8025  1.5237 -0.1862
 9746TIP3   OH250652   1.792   3.696  16.708  0.1830 -0.3460  0.4631
 9746TIP3    H150653   1.884   3.675  16.689  0.0865 -0.4229  0.0655
 9746TIP3    H250654   1.796   3.760  16.779  0.5392 -0.4168  0.5056
 9747TIP3   OH250655   0.475   5.696  15.897  0.0622  0.0242  0.2300
 9747TIP3    H150656   0.546   5.739  15.851 -0.8776  1.0538 -0.2917
 9747TIP3    H250657   0.517   5.652  15.971  1.5183 -1.2906 -1.3437
 9748TIP3   OH250658   5.774   3.565   5.118 -0.1065 -0.3774 -0.2418
 9748TIP3    H150659   5.706   3.509   5.080  0.3122 -0.9650 -0.1375
 9748TIP3    H250660   5.778   3.640   5.059  0.4757 -1.2408 -1.3384
 9749TIP3   OH250661   1.682   5.530   0.485 -0.2633  0.5539  0.0850
 9749TIP3    H150662   1.637   5.452   0.455 -0.2767  0.0970  1.2618
 9749TIP3    H250663   1.664   5.534   0.579 -1.7401  2.9319 -0.2478
 9750TIP3   OH250664   3.716   0.692   1.187  0.2612 -0.4265  0.4188
 9750TIP3    H150665   3.686   0.760   1.127 -0.3097 -1.4287 -0.4471
 9750TIP3    H250666   3.636   0.646   1.213  0.3410  0.7015  2.8556
 9751TIP3   OH250667   5.736   6.105   1.520 -0.0266 -0.3675 -0.4368
 9751TIP3    H150668   5.737   6.012   1.542  1.0680 -0.8650 -2.4337
 9751TIP3    H250669   5.822   6.121   1.481 -0.7142  1.1608 -1.3694
 9752TIP3   OH250670   0.973   3.325   5.929  0.1018  0.0792 -0.3785
 9752TIP3    H150671   1.007   3.370   6.006 -1.6450 -0.2960  0.6338
 9752TIP3    H250672   1.022   3.242   5.926  0.0960  0.0502  0.3870
 9753TIP3   OH250673   1.154   3.386  15.450 -0.1749 -0.1731 -0.2080
 9753TIP3    H150674   1.133   3.311  15.506 -0.3976 -0.6906 -0.9828
 9753TIP3    H250675   1.236   3.361  15.407  0.4523  0.5827  0.5257
 9754TIP3   OH250676   3.670   2.467   0.763  0.0546 -0.0601 -0.1744
 9754TIP3    H150677   3.598   2.430   0.814  0.0840  0.2601  0.1002
 9754TIP3    H250678   3.657   2.562   0.769 -1.5608 -0.0222 -3.0454
 9755TIP3   OH250679   0.677   0.892   6.148  0.6408 -0.3926 -0.4007
 9755TIP3    H150680   0.613   0.894   6.219  0.2414 -0.6375 -0.7492
 9755TIP3    H250681   0.759   0.921   6.188 -0.2045  2.2179 -0.5031
 9756TIP3   OH250682   6.714   1.204  12.566  0.1007  0.3775  0.2065
 9756TIP3    H150683   6.652   1.137  12.540  0.4343  0.0529  0.2460
 9756TIP3    H250684   6.662   1.266  12.618  0.3068 -1.2037  2.3780
 9757TIP3   OH250685   1.808   3.711  15.437 -0.3423  0.0467  0.2177
 9757TIP3    H150686   1.755   3.659  15.377  0.5101 -0.6250  0.0337
 9757TIP3    H250687   1.867   3.647  15.478  0.1601  0.7459  0.5921
 9758TIP3   OH250688   6.650   1.546   6.120  0.3658  0.1234  0.4859
 9758TIP3    H150689   6.593   1.622   6.127  0.8526  0.4212  1.2687
 9758TIP3    H250690   6.594   1.472   6.140  0.0944  0.3554  0.5858
 9759TIP3   OH250691   5.476   6.179  15.040 -0.3890 -0.0661  0.1838
 9759TIP3    H150692   5.540   6.205  14.974 -1.7292  0.4281 -0.9485
 9759TIP3    H250693   5.409   6.248  15.038 -1.0465 -0.6522  1.2219
 9760TIP3   OH250694   3.746   4.104   2.896 -0.4781 -0.2636 -0.2392
 9760TIP3    H150695   3.692   4.046   2.949 -0.4966 -1.2972 -1.3721
 9760TIP3    H250696   3.743   4.188   2.942 -1.1444 -0.9232  0.9545
 9761TIP3   OH250697   0.859   3.275   0.455 -0.1013  0.4396  0.6346
 9761TIP3    H150698   0.777   3.316   0.485 -1.4867 -1.1158 -0.8701
 9761TIP3    H250699   0.883   3.326   0.377 -1.1612 -0.8013 -0.5264
 9762TIP3   OH250700   3.494   6.324  10.963 -0.0298 -0.1540  0.5133
 9762TIP3    H150701   3.466   6.310  10.873  0.1849  0.8559  0.2814
 9762TIP3    H250702   3.425   6.378  11.001  0.9694  1.3229  0.2916
 9763TIP3   OH250703   5.883   4.449   2.433 -0.4858 -0.7503 -0.1140
 9763TIP3    H150704   5.900   4.471   2.525  0.2076 -0.5446 -0.2920
 9763TIP3    H250705   5.788   4.433   2.430 -0.3941 -1.5693  0.8078
 9764TIP3   OH250706   0.947   0.560   3.387  0.5706 -0.1685 -0.4000
 9764TIP3    H150707   0.915   0.649   3.378 -2.3179 -0.9260  1.7595
 9764TIP3    H250708   1.034   0.569   3.426  0.4092  1.6720 -0.4486
 9765TIP3   OH250709   0.838   0.297  14.411 -0.0524  0.0994  0.3271
 9765TIP3    H150710   0.870   0.271  14.324 -0.5293  2.0730 -0.4686
 9765TIP3    H250711   0.916   0.294  14.466  0.4787 -0.1324 -0.4167
 9766TIP3   OH250712   1.190   4.130  15.697  0.0713 -0.1965 -0.3976
 9766TIP3    H150713   1.176   4.077  15.776 -2.0031  0.6646 -0.1478
 9766TIP3    H250714   1.103   4.140  15.660  0.6789  1.6317 -1.3688
 9767TIP3   OH250715   4.579   2.505   5.390 -0.2050 -0.2312  0.0341
 9767TIP3    H150716   4.587   2.478   5.481 -1.0394  0.7874  0.4144
 9767TIP3    H250717   4.513   2.574   5.391  0.2241  0.2144 -1.2514
 9768TIP3   OH250718   3.038   3.803  14.944 -0.8546 -0.2617  0.4688
 9768TIP3    H150719   3.076   3.754  14.871 -0.1851 -0.6822  1.0896
 9768TIP3    H250720   2.943   3.800  14.928 -1.1335 -4.4742  2.1328
 9769TIP3   OH250721   2.330   2.554  16.838 -0.0196  0.2222  0.3045
 9769TIP3    H150722   2.330   2.630  16.780 -2.7376 -0.2106 -0.3597
 9769TIP3    H250723   2.358   2.481  16.783  2.4155  0.6831  0.8981
 9770TIP3   OH250724   4.632   0.123   4.381  0.1335  0.0420  0.4074
 9770TIP3    H150725   4.588   0.137   4.465 -0.9728 -0.0973 -0.1456
 9770TIP3    H250726   4.588   0.182   4.320  0.2257 -0.6326 -0.3174
 9771TIP3   OH250727   0.225   6.341   0.682  0.3379  0.2818 -0.3232
 9771TIP3    H150728   0.133   6.365   0.670  0.3886  1.2821  1.2198
 9771TIP3    H250729   0.274   6.416   0.648  0.6447 -1.0370 -2.9070
 9772TIP3   OH250730   2.448   4.247  11.291  0.0026  0.3667  0.1951
 9772TIP3    H150731   2.398   4.265  11.211 -0.2733 -0.5633  0.1450
 9772TIP3    H250732   2.480   4.332  11.319  2.1950  0.4055 -2.2706
 9773TIP3   OH250733   1.190   6.651  13.459  0.8027  0.0387 -0.2022
 9773TIP3    H150734   1.193   6.583  13.391  0.5676 -2.2763  2.0261
 9773TIP3    H250735   1.281   6.673  13.476  0.9688 -0.9468  0.2192
 9774TIP3   OH250736   3.992   0.474  12.161  0.5536  0.0173 -0.0094
 9774TIP3    H150737   4.041   0.556  12.153  0.6955 -0.0818 -0.1454
 9774TIP3    H250738   3.906   0.494  12.124  0.6125  0.0839 -0.1096
 9775TIP3   OH250739   1.733   3.084   1.946  0.3120 -0.0351  0.0800
 9775TIP3    H150740   1.777   3.165   1.973 -0.2501 -0.1164  1.2873
 9775TIP3    H250741   1.640   3.106   1.948  0.1448 -0.8111  0.7616
 9776TIP3   OH250742   6.165   3.631  11.878 -0.5985  0.4779  0.0056
 9776TIP3    H150743   6.258   3.612  11.894 -1.0830 -0.9431  1.1657
 9776TIP3    H250744   6.132   3.663  11.962 -1.2779  0.5464 -0.2860
 9777TIP3   OH250745   5.090   6.369   1.171  0.7735 -0.2089  0.1448
 9777TIP3    H150746   5.047   6.443   1.213 -1.3922 -0.8329 -0.9038
 9777TIP3    H250747   5.056   6.370   1.081  1.1258 -2.1393 -0.0238
 9778TIP3   OH250748   5.423   6.339  11.077  0.0051  0.0162  0.4401
 9778TIP3    H150749   5.405   6.337  10.983  1.2539  1.3167  0.1531
 9778TIP3    H250750   5.433   6.432  11.098  0.7857 -0.3186  1.6366
 9779TIP3   OH250751   5.643   2.248  14.302  0.1289 -0.5394  0.6288
 9779TIP3    H150752   5.618   2.159  14.326 -0.8235  0.2777  2.8192
 9779TIP3    H250753   5.662   2.291  14.386  0.9711  1.2055 -0.4231
 9780TIP3   OH250754   5.446   5.023   2.988  0.6375 -0.0626 -0.0254
 9780TIP3    H150755   5.453   4.953   3.053  0.6299 -0.7443 -0.7628
 9780TIP3    H250756   5.358   5.014   2.953  0.5656  0.4476  0.0192
 9781TIP3   OH250757   1.963   6.604  16.736 -0.2403 -0.5773 -0.0173
 9781TIP3    H150758   1.877   6.642  16.717 -0.3316 -0.6291  0.2902
 9781TIP3    H250759   1.964   6.523  16.686 -0.4462 -0.6710  0.1293
 9782TIP3   OH250760   1.358   3.631   1.502  0.3608  0.2201 -0.1798
 9782TIP3    H150761   1.370   3.713   1.454  1.6228  0.0513 -0.1605
 9782TIP3    H250762   1.446   3.599   1.518 -0.1309 -1.5624 -0.8993
 9783TIP3   OH250763   4.207   1.882   5.457  0.2777  0.3535  0.5926
 9783TIP3    H150764   4.157   1.896   5.537 -0.7923  1.8863 -0.3191
 9783TIP3    H250765   4.149   1.910   5.387  1.4895 -0.2252 -0.6809
 9784TIP3   OH250766   6.565   3.596  15.476 -0.0922  0.1651  0.5233
 9784TIP3    H150767   6.578   3.626  15.386  0.1058  1.2187  0.8950
 9784TIP3    H250768   6.499   3.526  15.469 -1.4738  1.5206 -0.2103
 9785TIP3   OH250769   1.571   2.166   5.128  0.2146 -0.6211 -0.2118
 9785TIP3    H150770   1.568   2.133   5.218 -0.1450 -0.6989 -0.2527
 9785TIP3    H250771   1.659   2.203   5.119 -0.1502  0.4671  0.5499
 9786TIP3   OH250772   4.999   2.199   3.384  0.7148  0.1774 -0.4808
 9786TIP3    H150773   5.023   2.205   3.477  0.9017 -0.8993 -0.4623
 9786TIP3    H250774   5.009   2.107   3.362 -3.9299 -0.5109 -0.3006
 9787TIP3   OH250775   5.215   1.542  10.962  0.0849 -0.5615 -0.1155
 9787TIP3    H150776   5.296   1.503  10.995  1.1474  1.6447 -0.0360
 9787TIP3    H250777   5.189   1.604  11.030 -3.1539 -3.1012  1.0874
 9788TIP3   OH250778   2.173   3.877  11.644  0.2178 -0.2227  0.5573
 9788TIP3    H150779   2.268   3.886  11.651  0.0114  2.0357  1.0630
 9788TIP3    H250780   2.142   3.968  11.639 -1.8851 -0.9539  0.0692
 9789TIP3   OH250781   2.151   0.137  13.697 -0.0415  0.0824 -0.1336
 9789TIP3    H150782   2.195   0.194  13.634  0.4503 -0.3309 -0.1626
 9789TIP3    H250783   2.222   0.090  13.741 -0.2796  1.3751  1.7227
 9790TIP3   OH250784   3.905   1.403   5.618 -0.1717 -0.3899  0.6437
 9790TIP3    H150785   3.929   1.337   5.553  0.0336  1.0696 -0.8050
 9790TIP3    H250786   3.985   1.415   5.670  0.6942  0.7403 -0.8951
 9791TIP3   OH250787   2.303   3.270  16.315 -0.5472  0.1964 -0.5969
 9791TIP3    H150788   2.220   3.246  16.274 -0.7725  1.3241 -0.8155
 9791TIP3    H250789   2.357   3.303  16.243 -0.1483  0.1016 -0.3449
 9792TIP3   OH250790   5.482   3.131   1.928  0.0137 -0.3028 -0.1590
 9792TIP3    H150791   5.425   3.200   1.964 -2.9759 -2.5379 -0.3808
 9792TIP3    H250792   5.506   3.164   1.841 -1.3286  0.5188 -0.2477
 9793TIP3   OH250793   1.475   3.152   1.647  0.2068  0.4676  0.1731
 9793TIP3    H150794   1.478   3.118   1.737  1.0595  2.4135  0.9251
 9793TIP3    H250795   1.566   3.168   1.624 -0.1127  1.4502 -0.4454
 9794TIP3   OH250796   4.323   1.791   1.128 -0.4628  0.2549 -0.0926
 9794TIP3    H150797   4.364   1.712   1.162  1.6796  1.4761  0.2397
 9794TIP3    H250798   4.331   1.855   1.198  0.1019  1.5024 -1.2636
 9795TIP3   OH250799   3.291   5.135  14.407 -0.2151  0.3690 -0.3522
 9795TIP3    H150800   3.236   5.067  14.446  1.0264 -0.5488 -0.1773
 9795TIP3    H250801   3.343   5.089  14.341 -0.2613  1.3885 -1.1093
 9796TIP3   OH250802   2.316   1.014  13.716 -0.3123  0.1998 -0.2487
 9796TIP3    H150803   2.376   0.947  13.683 -0.5356 -0.1949  0.1511
 9796TIP3    H250804   2.268   0.972  13.787 -0.5182  0.7528 -0.0504
 9797TIP3   OH250805   1.385   0.249  13.164 -0.3734 -0.2972 -0.4002
 9797TIP3    H150806   1.417   0.237  13.075  1.2321 -0.6768  0.2254
 9797TIP3    H250807   1.318   0.317  13.156  0.3014  0.2196 -1.7748
 9798TIP3   OH250808   1.803   3.069   1.268  0.1956 -0.4341  0.5412
 9798TIP3    H150809   1.849   3.049   1.350  0.1672 -0.3101  0.5878
 9798TIP3    H250810   1.807   3.164   1.261  0.4733 -0.4707  0.2355
 9799TIP3   OH250811   4.382   2.601   4.109  0.4201 -0.0904  0.3386
 9799TIP3    H150812   4.335   2.679   4.080 -0.4656 -0.4720  0.7220
 9799TIP3    H250813   4.463   2.601   4.058  0.1577  0.7585 -0.0873
 9800TIP3   OH250814   4.114   3.353  15.655 -0.2362 -0.0806 -0.1415
 9800TIP3    H150815   4.073   3.429  15.616  3.1391  1.8451 -0.1269
 9800TIP3    H250816   4.151   3.304  15.581  1.1563  0.5031  0.1549
 9801TIP3   OH250817   6.186   2.993   6.249  0.6116  0.5138 -0.0888
 9801TIP3    H150818   6.162   2.986   6.342 -1.0820 -1.9350 -0.6843
 9801TIP3    H250819   6.281   2.991   6.249  0.5920 -1.8328  1.4521
 9802TIP3   OH250820   1.158   3.454  10.865  0.1289 -0.2399  0.3317
 9802TIP3    H150821   1.206   3.472  10.946 -0.3776  0.0456  0.5698
 9802TIP3    H250822   1.146   3.541  10.825 -0.2877 -0.3002  0.3267
 9803TIP3   OH250823   3.210   4.384  12.556 -0.0655  0.5235  0.1818
 9803TIP3    H150824   3.259   4.402  12.476 -0.2393 -0.6699 -0.1979
 9803TIP3    H250825   3.278   4.369  12.622  0.1102 -2.0663 -0.5565
 9804TIP3   OH250826   4.166   5.637   2.999 -0.4459  0.1723 -0.4226
 9804TIP3    H150827   4.166   5.557   2.946 -2.6225 -2.0334  2.7141
 9804TIP3    H250828   4.244   5.628   3.055 -1.1095 -0.1522  0.4597
 9805TIP3   OH250829   6.202   1.299  14.247 -0.6343 -0.0662 -0.1036
 9805TIP3    H150830   6.123   1.253  14.217 -1.0812  0.4353  0.3008
 9805TIP3    H250831   6.173   1.389  14.261 -0.3019 -0.1699  1.3055
 9806TIP3   OH250832   4.648   6.508  16.772 -0.5834  0.2290 -0.0586
 9806TIP3    H150833   4.591   6.551  16.835 -0.6756 -0.2640  0.1954
 9806TIP3    H250834   4.686   6.434  16.820  0.2074  0.5067 -0.2434
 9807TIP3   OH250835   0.934   2.949  16.127  0.4537  0.3013 -0.6650
 9807TIP3    H150836   1.025   2.921  16.125 -0.3787 -2.6597 -2.8449
 9807TIP3    H250837   0.920   2.992  16.042 -0.0458  1.1828 -0.1434
 9808TIP3   OH250838   0.984   5.002   3.865  0.0551  0.4035  0.0258
 9808TIP3    H150839   0.996   5.094   3.843  0.7934  0.6872  1.5705
 9808TIP3    H250840   0.901   4.999   3.913 -0.8532 -0.0134 -1.5199
 9809TIP3   OH250841   5.349   3.658   1.174 -0.1189  0.4625 -0.1679
 9809TIP3    H150842   5.424   3.634   1.229 -0.3301  0.5413  0.1600
 9809TIP3    H250843   5.361   3.610   1.093 -0.4907 -0.6804  0.4399
 9810TIP3   OH250844   6.444   5.593   5.706 -0.2470 -0.0648 -0.3968
 9810TIP3    H150845   6.460   5.671   5.653  0.5357 -0.4664 -0.7626
 9810TIP3    H250846   6.405   5.627   5.787  0.1776  0.7152 -0.5119
 9811TIP3   OH250847   1.662   3.038  11.277 -0.0231 -0.4431  0.0295
 9811TIP3    H150848   1.724   3.040  11.204  1.2983  0.1532  1.1497
 9811TIP3    H250849   1.674   3.122  11.321 -0.1502 -1.1612  1.4703
 9812TIP3   OH250850   6.357   1.972  13.857 -0.1114 -0.1849 -0.5853
 9812TIP3    H150851   6.373   1.946  13.947 -1.2564 -0.5959 -0.4962
 9812TIP3    H250852   6.347   2.068  13.861 -0.3900 -0.2301 -0.2488
 9813TIP3   OH250853   4.913   4.416   0.026  0.3510 -0.2579  0.1879
 9813TIP3    H150854   4.855   4.341   0.040  1.1420 -1.2393 -1.6369
 9813TIP3    H250855   4.883   4.482   0.089 -0.8777 -1.8035  1.2532
 9814TIP3   OH250856   0.168   5.750   3.127  0.1754 -0.1115  0.0795
 9814TIP3    H150857   0.105   5.701   3.180  0.0565 -1.1574 -1.0161
 9814TIP3    H250858   0.227   5.790   3.190 -1.3902  0.6172  1.1215
 9815TIP3   OH250859   1.269   4.580   1.814  0.3295 -0.2764 -0.5392
 9815TIP3    H150860   1.286   4.671   1.836 -2.3090  0.1256  0.0222
 9815TIP3    H250861   1.332   4.530   1.867  1.2626  1.1706 -0.2712
 9816TIP3   OH250862   4.205   5.013   5.182 -0.1109 -0.3611  0.4497
 9816TIP3    H150863   4.125   5.063   5.172  0.8997  1.2144  0.0519
 9816TIP3    H250864   4.244   5.011   5.094  1.7673  1.4531  1.2041
 9817TIP3   OH250865   2.268   2.175  16.361  0.0053  0.5045 -0.2685
 9817TIP3    H150866   2.299   2.106  16.420 -0.2184  0.9214  0.3420
 9817TIP3    H250867   2.185   2.143  16.328  0.5001 -0.0778 -0.9716
 9818TIP3   OH250868   1.382   6.292   0.152  0.0766  0.6494 -0.1972
 9818TIP3    H150869   1.354   6.308   0.062 -0.4777  3.0420  0.3531
 9818TIP3    H250870   1.313   6.332   0.205 -0.5434 -2.3389  1.3460
 9819TIP3   OH250871   1.995   4.053  12.495  0.1133 -0.3608  0.4902
 9819TIP3    H150872   2.081   4.024  12.527 -0.1995 -2.2641 -0.2997
 9819TIP3    H250873   1.933   4.010  12.554 -0.3057  1.4193  1.3756
 9820TIP3   OH250874   3.047   3.808  16.432 -0.8422  0.0076 -0.0661
 9820TIP3    H150875   2.990   3.791  16.357  0.0323 -1.3447 -0.4398
 9820TIP3    H250876   3.089   3.891  16.412  0.2767 -0.9071 -1.6589
 9821TIP3   OH250877   4.399   0.823  13.489  0.6147  0.3624  0.1732
 9821TIP3    H150878   4.490   0.804  13.512  0.7547  1.5042  0.5971
 9821TIP3    H250879   4.363   0.739  13.460  2.0125  0.0642 -0.7165
 9822TIP3   OH250880   0.380   4.518  15.523  0.1275  0.6753  0.3239
 9822TIP3    H150881   0.425   4.532  15.606  1.0368  0.6986 -0.1710
 9822TIP3    H250882   0.440   4.552  15.457  0.8081 -2.2086 -0.6149
 9823TIP3   OH250883   5.368   2.741  13.207 -0.8688  0.9410  0.1118
 9823TIP3    H150884   5.316   2.719  13.130 -0.8379 -0.2181  0.4081
 9823TIP3    H250885   5.325   2.695  13.280  0.4737  0.0404  0.3778
 9824TIP3   OH250886   3.582   1.497  13.044 -0.2346 -0.1074 -0.6274
 9824TIP3    H150887   3.633   1.554  13.102  0.5516 -0.7354 -0.6951
 9824TIP3    H250888   3.552   1.426  13.100 -0.4301 -0.1198 -0.7474
 9825TIP3   OH250889   2.449   4.958  13.669 -0.6513 -0.4440  0.6157
 9825TIP3    H150890   2.499   5.035  13.641 -0.0734 -1.1245 -0.2473
 9825TIP3    H250891   2.433   4.910  13.588 -0.8446 -1.3328  1.1786
 9826TIP3   OH250892   3.393   6.468   0.077 -0.5315 -0.7699 -0.2063
 9826TIP3    H150893   3.472   6.487   0.127  0.6296 -3.0267 -1.0678
 9826TIP3    H250894   3.395   6.530   0.004  0.6816 -1.1067 -0.4626
 9827TIP3   OH250895   2.164   0.311   4.721  0.2221  0.5095 -0.2519
 9827TIP3    H150896   2.144   0.405   4.719  1.0475  0.6875 -0.4553
 9827TIP3    H250897   2.079   0.268   4.733 -0.3751  1.1971 -1.9141
 9828TIP3   OH250898   5.519   0.162   4.880  0.1668  0.0001 -0.3877
 9828TIP3    H150899   5.497   0.074   4.911 -0.2833  0.6741  1.2617
 9828TIP3    H250900   5.613   0.169   4.892 -0.0848  0.4934  1.5687
 9829TIP3   OH250901   5.511   3.495  13.966  0.0403  0.1526 -0.2739
 9829TIP3    H150902   5.569   3.436  14.014  1.8783  1.1747 -1.1859
 9829TIP3    H250903   5.450   3.527  14.032 -0.5384 -2.2200  0.3606
 9830TIP3   OH250904   5.762   0.575   2.820 -0.1590 -0.1369 -0.3599
 9830TIP3    H150905   5.674   0.613   2.826 -0.0760 -0.1633  1.4980
 9830TIP3    H250906   5.821   0.650   2.830  0.0058 -0.4426  1.0987
 9831TIP3   OH250907   6.010   1.674  12.653 -0.1243  0.4012  0.6648
 9831TIP3    H150908   5.985   1.595  12.701 -0.2386  1.0376  1.6652
 9831TIP3    H250909   6.066   1.723  12.714  1.1101  0.4234 -0.4645
 9832TIP3   OH250910   3.437   2.396   5.395 -0.3596  0.0696  0.3503
 9832TIP3    H150911   3.358   2.416   5.445 -0.1062  0.2778  0.6765
 9832TIP3    H250912   3.458   2.306   5.419 -0.7780 -0.1521 -0.1219
 9833TIP3   OH250913   4.004   3.506   4.749  0.6994  0.0858 -0.6973
 9833TIP3    H150914   3.970   3.428   4.794 -1.0539  0.3437 -1.5089
 9833TIP3    H250915   4.057   3.550   4.815  0.7603 -1.2017  0.1328
 9834TIP3   OH250916   6.411   1.974   5.472 -0.0047 -0.2134  0.0930
 9834TIP3    H150917   6.473   1.911   5.435  1.1765  0.1339  1.4656
 9834TIP3    H250918   6.465   2.034   5.523 -1.3609  0.6993  0.4762
 9835TIP3   OH250919   2.304   6.347   2.666  0.5582  0.5354  0.5286
 9835TIP3    H150920   2.373   6.413   2.663  2.8684 -1.8390 -0.8276
 9835TIP3    H250921   2.238   6.378   2.604  1.9489  1.2045 -0.6413
 9836TIP3   OH250922   4.856   4.298  10.927 -0.2058  0.3431 -0.6015
 9836TIP3    H150923   4.782   4.313  10.987 -0.2371 -0.3901 -0.4596
 9836TIP3    H250924   4.924   4.358  10.958  0.9777 -2.3512  2.2156
 9837TIP3   OH250925   0.822   1.348  13.180 -0.5503 -0.2283 -0.0325
 9837TIP3    H150926   0.779   1.301  13.252 -0.2241 -0.3284  0.0976
 9837TIP3    H250927   0.752   1.399  13.140 -0.8820 -0.7334 -0.1007
 9838TIP3   OH250928   0.686   5.465  15.025  0.6011 -0.2771 -0.0944
 9838TIP3    H150929   0.743   5.541  15.023 -1.1348  1.0447 -1.2319
 9838TIP3    H250930   0.647   5.466  15.112  2.8867 -1.6743  0.9926
 9839TIP3   OH250931   3.745   1.289  11.449 -0.0486  0.7755  0.0149
 9839TIP3    H150932   3.730   1.376  11.412  0.2972  1.4594  1.4529
 9839TIP3    H250933   3.791   1.305  11.531 -1.1105 -0.6934  0.9327
 9840TIP3   OH250934   6.498   5.796  16.987  0.2238  0.3289 -0.2591
 9840TIP3    H150935   6.472   5.841  16.906  0.0070  0.6777  0.0032
 9840TIP3    H250936   6.503   5.866  17.053 -0.5920 -0.1038  0.2670
 9841TIP3   OH250937   4.193   5.291  17.041  0.5352 -0.1555  0.2509
 9841TIP3    H150938   4.285   5.267  17.058  1.0276  1.0457 -0.6662
 9841TIP3    H250939   4.164   5.227  16.975  1.1667  0.3655 -0.5426
 9842TIP3   OH250940   5.421   4.922  14.152  0.0586 -0.2062  0.1036
 9842TIP3    H150941   5.334   4.902  14.116  0.8850 -2.2044 -0.9042
 9842TIP3    H250942   5.481   4.870  14.099  1.9431  1.5303  0.4698
 9843TIP3   OH250943   5.130   2.746   3.135  0.4084 -0.4793  0.1522
 9843TIP3    H150944   5.190   2.719   3.205  1.9060  0.5699 -0.6934
 9843TIP3    H250945   5.053   2.691   3.147  1.4641 -1.7349  1.3766
 9844TIP3   OH250946   5.060   2.849   5.524  0.0655 -0.9324 -0.1441
 9844TIP3    H150947   5.032   2.818   5.610  1.4602  0.2403  0.7737
 9844TIP3    H250948   5.131   2.910   5.544 -0.7626  0.6842 -2.0378
 9845TIP3   OH250949   1.199   5.244  15.826 -0.2735  0.0763 -0.1177
 9845TIP3    H150950   1.141   5.310  15.788 -0.9221 -0.0865  0.5870
 9845TIP3    H250951   1.147   5.164  15.829 -0.4717  0.2712  1.7874
 9846TIP3   OH250952   6.169   1.830   4.182 -0.2299 -0.9986 -0.1538
 9846TIP3    H150953   6.228   1.905   4.179 -0.5740 -0.7118  0.0745
 9846TIP3    H250954   6.216   1.763   4.231 -0.4591 -0.4379  0.8459
 9847TIP3   OH250955   4.358   4.344   3.336  0.2617 -0.5901 -0.5153
 9847TIP3    H150956   4.309   4.368   3.258 -1.4044 -1.4124  0.2460
 9847TIP3    H250957   4.354   4.248   3.338 -1.5581 -0.4956  1.7238
 9848TIP3   OH250958   6.209   4.341   0.623  0.6043  0.2569 -0.1981
 9848TIP3    H150959   6.146   4.363   0.691  0.4191  0.1560 -0.3340
 9848TIP3    H250960   6.285   4.398   0.640  0.1390  0.9926 -0.5356
 9849TIP3   OH250961   1.836   2.940  13.092  0.1028  0.5823 -0.0164
 9849TIP3    H150962   1.772   3.002  13.125  0.5930  1.0984 -0.0219
 9849TIP3    H250963   1.865   2.977  13.009 -2.6013 -1.7252 -2.0525
 9850TIP3   OH250964   3.968   1.243  14.652 -0.4559 -0.5708  0.0453
 9850TIP3    H150965   3.926   1.205  14.574 -4.3725  1.5695  0.9845
 9850TIP3    H250966   4.012   1.321  14.619 -1.5351 -0.0450 -0.1903
 9851TIP3   OH250967   2.090   6.370  11.511 -0.5873  0.0844 -0.3160
 9851TIP3    H150968   2.099   6.414  11.595  1.6301  1.4622 -1.2122
 9851TIP3    H250969   2.078   6.278  11.533 -2.0898  0.7025  1.5342
 9852TIP3   OH250970   1.485   4.777   5.698 -0.3623 -0.1551  0.4991
 9852TIP3    H150971   1.450   4.742   5.616 -3.0110 -1.5585  2.1577
 9852TIP3    H250972   1.517   4.701   5.746  1.0026  0.6305  0.8545
 9853TIP3   OH250973   0.808   3.729   4.267 -0.2031  0.0155  0.2590
 9853TIP3    H150974   0.728   3.772   4.298 -0.6002 -2.7698  3.3235
 9853TIP3    H250975   0.845   3.687   4.345  2.4782 -1.5324 -1.7653
 9854TIP3   OH250976   2.243   0.032   1.631  0.7331 -0.6180  0.2716
 9854TIP3    H150977   2.291   0.113   1.645  0.2378  0.1556 -2.1518
 9854TIP3    H250978   2.272  -0.027   1.700  1.7116  1.3581  1.5518
 9855TIP3   OH250979   3.780   2.922  15.093 -0.4189  0.7616 -0.5268
 9855TIP3    H150980   3.751   2.988  15.030  0.6343  1.0390 -0.7278
 9855TIP3    H250981   3.699   2.889  15.132 -1.0422  1.0309 -1.5774
 9856TIP3   OH250982   3.855   0.236  15.777 -0.6078  0.1037  0.2546
 9856TIP3    H150983   3.858   0.332  15.781 -3.6660  0.3037 -1.0437
 9856TIP3    H250984   3.784   0.212  15.836  1.6599 -1.5961  2.4431
 9857TIP3   OH250985   5.117   2.100   0.322  0.2377 -0.7457 -0.4889
 9857TIP3    H150986   5.158   2.060   0.399  0.1631 -0.5217 -0.3292
 9857TIP3    H250987   5.034   2.136   0.355  0.8248  0.5342 -0.3775
 9858TIP3   OH250988   0.075   0.588   0.286 -0.2646 -0.4191 -0.2183
 9858TIP3    H150989   0.074   0.630   0.372 -2.6531  0.9302 -0.8519
 9858TIP3    H250990   0.033   0.503   0.300  0.4443 -0.7091  0.1702
 9859TIP3   OH250991   0.953   4.876   0.207  0.4539  0.0200  0.3327
 9859TIP3    H150992   0.903   4.809   0.253  1.4058 -1.0208 -0.1307
 9859TIP3    H250993   0.950   4.952   0.264  0.5481 -0.8649  1.5286
 9860TIP3   OH250994   2.819   5.310  17.175  0.4000 -0.5260 -0.5874
 9860TIP3    H150995   2.779   5.394  17.153  1.9119  0.2673 -0.3326
 9860TIP3    H250996   2.789   5.250  17.106 -0.9709  0.1285 -0.5678
 9861TIP3   OH250997   6.670   5.410  11.718 -0.2836 -0.4360  0.3610
 9861TIP3    H150998   6.753   5.417  11.765 -0.5032  0.2473  0.6481
 9861TIP3    H250999   6.614   5.359  11.777 -0.0409 -0.9819  0.1252
 9862TIP3   OH251000   5.589   5.691  13.387  0.2512 -0.1357  0.8790
 9862TIP3    H151001   5.630   5.748  13.452  1.3773 -2.5253  2.3425
 9862TIP3    H251002   5.521   5.643  13.436 -0.5562 -0.1939 -0.2689
 9863TIP3   OH251003   5.314   5.235  16.157  0.3257  0.3691 -0.3037
 9863TIP3    H151004   5.351   5.322  16.169  1.1530 -0.1489  1.0872
 9863TIP3    H251005   5.230   5.237  16.202  0.7432  0.2125  0.5116
 9864TIP3   OH251006   3.357   0.092  15.131 -0.2794 -0.0083 -0.1977
 9864TIP3    H151007   3.357   0.116  15.224 -0.1822  0.5691 -0.3462
 9864TIP3    H251008   3.354   0.176  15.085  0.2980 -0.2744 -0.7214
 9865TIP3   OH251009   5.153   1.596   2.355  0.5539  0.4296 -0.1852
 9865TIP3    H151010   5.147   1.683   2.394 -0.9141  0.5016 -0.5160
 9865TIP3    H251011   5.086   1.545   2.401 -0.2281  0.1357 -1.6118
 9866TIP3   OH251012   0.917   6.179   6.566 -0.1586 -0.5593  0.1653
 9866TIP3    H151013   0.825   6.173   6.543  0.4428  0.2791 -2.7383
 9866TIP3    H251014   0.941   6.091   6.597 -1.8772 -0.8012  0.8310
 9867TIP3   OH251015   6.045   5.765  10.985 -0.2324 -0.0703 -0.0177
 9867TIP3    H151016   5.978   5.697  10.989  1.3621 -1.7005 -0.0947
 9867TIP3    H251017   6.076   5.774  11.075  0.5343 -0.4659 -0.2357
 9868TIP3   OH251018   5.466   0.511   1.937 -0.3851  0.3740 -0.3345
 9868TIP3    H151019   5.506   0.590   1.972 -0.2375  0.1280  0.0635
 9868TIP3    H251020   5.397   0.489   2.000 -0.5160  0.2638 -0.5148
 9869TIP3   OH251021   1.056   3.178  15.883 -0.7642  0.1794 -0.4146
 9869TIP3    H151022   1.042   3.203  15.974  0.5713  0.0594 -0.1724
 9869TIP3    H251023   1.014   3.248  15.832 -0.5603  0.8114  0.2809
 9870TIP3   OH251024   1.118   1.166  13.991 -0.7856 -0.2521  0.2649
 9870TIP3    H151025   1.184   1.097  13.991 -1.5355 -0.9776 -0.0663
 9870TIP3    H251026   1.168   1.247  13.999  0.3398 -0.6418 -2.1978
 9871TIP3   OH251027   2.954   6.023   2.293  0.1124 -0.2617 -0.3132
 9871TIP3    H151028   2.884   6.087   2.305  0.8433  0.5061 -0.0381
 9871TIP3    H251029   2.968   5.985   2.380 -1.9850 -2.5931 -0.9487
 9872TIP3   OH251030   6.524   5.281  12.875 -0.0789  0.5532 -0.0582
 9872TIP3    H151031   6.430   5.276  12.858  0.3205  1.0967 -2.6605
 9872TIP3    H251032   6.533   5.346  12.945 -1.6036  0.8987 -0.1845
 9873TIP3   OH251033   0.388   5.473   2.512  0.1834  0.2416 -0.3276
 9873TIP3    H151034   0.294   5.471   2.528  0.4352 -0.5467  1.0705
 9873TIP3    H251035   0.428   5.465   2.598  1.5415  1.6685 -0.7937
 9874TIP3   OH251036   2.176   2.130  12.914  0.3721  0.2959 -0.2768
 9874TIP3    H151037   2.206   2.098  12.830 -0.1065  0.8540 -0.6637
 9874TIP3    H251038   2.091   2.171  12.896  1.2954  2.4047  0.0878
 9875TIP3   OH251039   2.889   1.138  14.635 -0.1891  0.1200  0.4628
 9875TIP3    H151040   2.868   1.098  14.720  0.9481  0.8210  1.0933
 9875TIP3    H251041   2.805   1.140  14.589 -1.0178  0.5717  1.9306
 9876TIP3   OH251042   2.140   6.013  14.711 -0.0577 -0.1832  0.4350
 9876TIP3    H151043   2.086   5.977  14.782  1.3499 -1.6474  0.8022
 9876TIP3    H251044   2.101   5.976  14.632  0.4915 -1.4112  0.7124
 9877TIP3   OH251045   0.507   5.240   1.353 -0.5458  0.1610 -0.7609
 9877TIP3    H151046   0.444   5.311   1.336 -0.7392  0.2290  0.2112
 9877TIP3    H251047   0.580   5.284   1.396 -0.3054 -0.1016 -0.9051
 9878TIP3   OH251048   1.086   2.702  13.441 -0.2205  0.6609 -0.2356
 9878TIP3    H151049   1.143   2.722  13.515 -0.4265  1.5747 -0.3152
 9878TIP3    H251050   1.142   2.652  13.381 -0.4580 -1.2806  1.1368
 9879TIP3   OH251051   1.592   5.309   2.328 -0.2576 -0.2863 -0.1219
 9879TIP3    H151052   1.577   5.227   2.374 -1.1576  0.4448  0.9133
 9879TIP3    H251053   1.535   5.305   2.251 -0.3282 -0.6114 -0.0519
 9880TIP3   OH251054   5.847   5.474   5.237 -0.1340 -0.0627 -0.0558
 9880TIP3    H151055   5.772   5.525   5.207 -1.0331 -1.5758 -0.4395
 9880TIP3    H251056   5.904   5.469   5.160  0.8994  1.9795  0.5308
 9881TIP3   OH251057   5.948   5.232  12.253 -0.4936 -0.2305  0.8139
 9881TIP3    H151058   6.034   5.202  12.283 -0.0490 -1.1977 -1.3634
 9881TIP3    H251059   5.898   5.151  12.241 -1.8243  0.3337  2.2838
 9882TIP3   OH251060   1.725   0.992  16.382  0.2834  0.1183 -0.4364
 9882TIP3    H151061   1.779   1.003  16.304  0.0847  0.6423 -0.5004
 9882TIP3    H251062   1.707   0.898  16.386 -1.0005  0.2961 -1.8822
 9883TIP3   OH251063   2.875   6.449  16.851  0.5566  0.2196 -0.0669
 9883TIP3    H151064   2.800   6.415  16.899  1.2420  0.0814  0.9136
 9883TIP3    H251065   2.843   6.461  16.761 -0.4699 -0.3780  0.2180
 9884TIP3   OH251066   0.245   2.095   2.491 -0.3128  0.0155 -0.4635
 9884TIP3    H151067   0.153   2.118   2.479 -0.3637 -0.3945 -0.8877
 9884TIP3    H251068   0.273   2.144   2.569 -0.5710  1.0378 -1.0114
 9885TIP3   OH251069   5.980   5.322  10.887  0.4502  0.1635 -0.3125
 9885TIP3    H151070   5.914   5.306  10.954  0.1239 -0.4572 -0.7715
 9885TIP3    H251071   5.930   5.340  10.808  0.8200  2.0861 -0.1428
 9886TIP3   OH251072   2.128   3.898  16.753  0.1546  0.3391 -0.4919
 9886TIP3    H151073   2.106   3.977  16.702 -0.0987 -0.0903 -1.0518
 9886TIP3    H251074   2.148   3.832  16.687 -3.0966 -1.0858 -0.1506
 9887TIP3   OH251075   3.399   5.865  12.898  0.7084 -0.1952  0.0945
 9887TIP3    H151076   3.422   5.773  12.887  1.4031  0.0424 -0.4327
 9887TIP3    H251077   3.308   5.871  12.866  0.9513 -0.5325 -0.6655
 9888TIP3   OH251078   5.255   2.742  13.966 -0.1934 -0.1937 -0.1011
 9888TIP3    H151079   5.297   2.708  14.045  1.3325  1.4128 -0.1921
 9888TIP3    H251080   5.181   2.794  13.999  1.5458  2.0300  0.4128
 9889TIP3   OH251081   1.936   5.544   0.599  0.4869  0.3151  0.4374
 9889TIP3    H151082   1.887   5.551   0.517  0.9308  2.1448  0.3071
 9889TIP3    H251083   1.939   5.450   0.617  0.5330 -0.1265 -1.7281
 9890TIP3   OH251084   3.060   6.675   1.233  0.1088 -0.1672 -0.2922
 9890TIP3    H151085   3.060   6.579   1.224 -1.3655 -0.0839 -1.3171
 9890TIP3    H251086   3.091   6.706   1.148 -0.9145  0.3046 -0.4954
 9891TIP3   OH251087   2.825   2.684  11.503 -0.0301  0.1405  0.3886
 9891TIP3    H151088   2.852   2.720  11.419 -1.8130  0.4181 -0.0847
 9891TIP3    H251089   2.821   2.590  11.490 -0.9449  0.2349 -0.0365
 9892TIP3   OH251090   0.943   3.402  16.152 -0.0210 -0.2634 -0.7831
 9892TIP3    H151091   1.021   3.347  16.155 -0.2760 -0.5771 -0.0164
 9892TIP3    H251092   0.871   3.341  16.136 -0.4249 -0.2796  0.9940
 9893TIP3   OH251093   4.626   6.226   3.338  0.7060  0.2343 -0.9337
 9893TIP3    H151094   4.680   6.184   3.404 -0.3215  0.5713  0.1372
 9893TIP3    H251095   4.663   6.197   3.255  0.6607 -1.9499 -0.2199
 9894TIP3   OH251096   0.028   6.321   5.050 -0.0322 -0.3411  0.3994
 9894TIP3    H151097   0.106   6.372   5.074 -0.1425  0.2158 -0.4273
 9894TIP3    H251098  -0.042   6.386   5.042 -0.1955 -0.6279 -0.5674
 9895TIP3   OH251099   0.266   1.675   4.726 -0.2451  0.6415  0.4394
 9895TIP3    H151100   0.357   1.701   4.720 -0.6202  2.2433  1.2679
 9895TIP3    H251101   0.248   1.675   4.820 -0.6649 -1.2556  0.3806
 9896TIP3   OH251102   4.331   4.888   1.178  0.0424 -0.0910  0.6073
 9896TIP3    H151103   4.346   4.872   1.085  1.9075 -1.2766  1.1017
 9896TIP3    H251104   4.412   4.862   1.221 -0.8116  0.4105  2.5837
 9897TIP3   OH251105   2.466   3.092   3.213  0.3131  0.0834  0.5158
 9897TIP3    H151106   2.533   3.157   3.193  0.4221 -0.0255  0.5259
 9897TIP3    H251107   2.510   3.029   3.271  0.0763  0.2533  0.8871
 9898TIP3   OH251108   1.272   4.908   4.509 -0.3939 -0.1571  0.0646
 9898TIP3    H151109   1.213   4.931   4.438  0.5818  2.4256  0.0322
 9898TIP3    H251110   1.215   4.901   4.586 -1.0188  0.3234 -0.3494
 9899TIP3   OH251111   1.713   5.725  13.910 -0.0997  0.0819 -0.5037
 9899TIP3    H151112   1.661   5.727  13.830 -1.2308  1.3667  0.2431
 9899TIP3    H251113   1.648   5.721  13.981  0.8516  0.5017  0.4022
 9900TIP3   OH251114   4.431   4.386  14.966 -0.2223 -0.2432  0.3222
 9900TIP3    H151115   4.509   4.439  14.983 -0.8867 -0.0067  2.8191
 9900TIP3    H251116   4.408   4.349  15.052 -1.1728 -2.6386 -0.9331
 9901TIP3   OH251117   3.097   0.455   5.007 -0.0247  0.0462  0.1677
 9901TIP3    H151118   3.032   0.441   4.938 -0.6784 -0.3950  0.8552
 9901TIP3    H251119   3.073   0.540   5.046 -2.3474 -1.6447  2.6675
 9902TIP3   OH251120   6.237   5.694   5.417 -0.0288 -0.3748  0.0835
 9902TIP3    H151121   6.283   5.734   5.490  1.8001  1.1316 -1.8236
 9902TIP3    H251122   6.280   5.610   5.404  1.3888  0.4794 -0.8806
 9903TIP3   OH251123   5.078   0.581  11.404  0.6436  0.1480  0.1435
 9903TIP3    H151124   5.004   0.635  11.431  0.6595  0.4512 -0.4131
 9903TIP3    H251125   5.155   0.638  11.417  0.7121  0.0768  0.0495
 9904TIP3   OH251126   3.874   2.072   4.110  0.1392  0.0178  0.5842
 9904TIP3    H151127   3.939   2.138   4.084 -0.8765  1.8030  2.4274
 9904TIP3    H251128   3.796   2.095   4.059  0.0871 -0.3962  0.4759
 9905TIP3   OH251129   2.973   0.230  17.177  0.1054 -0.0926 -0.4502
 9905TIP3    H151130   2.996   0.287  17.251  0.1229  0.1551 -0.6469
 9905TIP3    H251131   2.878   0.238  17.169  0.0277 -0.6045 -0.0561
 9906TIP3   OH251132   3.888   2.634   4.134 -0.2281 -0.4839  0.2176
 9906TIP3    H151133   3.874   2.601   4.223 -1.6577  0.7595  0.4705
 9906TIP3    H251134   3.861   2.561   4.077  1.1274 -1.4504  0.7894
 9907TIP3   OH251135   6.616   6.205   0.970 -0.1145  0.3872  0.1862
 9907TIP3    H151136   6.534   6.255   0.973 -0.6649 -0.5258  1.1505
 9907TIP3    H251137   6.675   6.252   1.028 -0.8059 -0.3311  1.5217
 9908TIP3   OH251138   1.230   0.481   2.367  0.0010  0.3959 -0.2998
 9908TIP3    H151139   1.325   0.490   2.353  0.0582 -2.0804 -1.6543
 9908TIP3    H251140   1.192   0.551   2.315  1.1110  1.9247  0.8858
 9909TIP3   OH251141   1.399   1.988  15.049  0.5701  0.5532 -0.3135
 9909TIP3    H151142   1.334   2.056  15.061  1.0777  1.0609 -0.4397
 9909TIP3    H251143   1.409   1.981  14.954  0.2890  0.0807 -0.3132
 9910TIP3   OH251144   6.503   3.741  15.921 -0.0438  0.5594  0.1229
 9910TIP3    H151145   6.472   3.670  15.864  0.6625  0.3173  0.0317
 9910TIP3    H251146   6.591   3.713  15.948  0.4163  1.6110 -0.2710
 9911TIP3   OH251147   2.587   3.221   2.388  0.1587 -0.6414 -0.5611
 9911TIP3    H151148   2.680   3.220   2.409  0.5002  0.0949 -1.9480
 9911TIP3    H251149   2.557   3.307   2.415 -0.1065 -0.8474 -0.1945
 9912TIP3   OH251150   3.338   0.709  12.807  0.4325 -0.1779  0.0359
 9912TIP3    H151151   3.389   0.789  12.815 -0.9206  0.6603  0.4419
 9912TIP3    H251152   3.374   0.650  12.873  1.8146 -0.1300 -0.6544
 9913TIP3   OH251153   2.817   0.357   0.446 -0.1370 -0.4105  0.2222
 9913TIP3    H151154   2.748   0.356   0.380 -0.2733 -0.2049  0.3623
 9913TIP3    H251155   2.848   0.266   0.449  0.3202 -0.2805 -0.5935
 9914TIP3   OH251156   5.023   6.467  15.247  0.1440 -0.0942  0.4299
 9914TIP3    H151157   4.971   6.531  15.199  1.8434  1.1143  0.1910
 9914TIP3    H251158   5.007   6.488  15.339 -3.2066 -2.4852  0.5220
 9915TIP3   OH251159   5.433   4.977   1.295  0.8200  0.0835  0.6332
 9915TIP3    H151160   5.526   4.955   1.283  0.8436  0.0019  0.9562
 9915TIP3    H251161   5.418   5.051   1.236  1.3410  0.7365  1.3234
 9916TIP3   OH251162   2.327   5.353  14.770 -0.1317  0.2865 -0.6016
 9916TIP3    H151163   2.408   5.351  14.820  0.1747  0.6549 -1.0769
 9916TIP3    H251164   2.270   5.288  14.812 -0.0674  0.9784  0.5388
 9917TIP3   OH251165   0.534   3.268   4.052  0.2367 -0.2231 -0.4917
 9917TIP3    H151166   0.586   3.326   3.997  2.1095 -0.4306  1.0103
 9917TIP3    H251167   0.553   3.180   4.018  2.5409 -0.4847  1.3261
 9918TIP3   OH251168   0.188   4.324  15.588 -0.3263 -0.0592  0.1300
 9918TIP3    H151169   0.140   4.312  15.506 -0.4470 -0.2891  0.2360
 9918TIP3    H251170   0.253   4.391  15.568  0.3677 -0.8988 -0.4602
 9919TIP3   OH251171   3.699   5.100   4.480 -0.5128  0.0887  0.3434
 9919TIP3    H151172   3.774   5.104   4.540  0.6829  0.5128 -1.1699
 9919TIP3    H251173   3.718   5.166   4.413 -0.9207 -1.6719 -1.5515
 9920TIP3   OH251174   0.180   6.241  15.690  0.4246 -0.1309 -0.0676
 9920TIP3    H151175   0.183   6.318  15.632  0.1992 -0.7274 -0.8823
 9920TIP3    H251176   0.088   6.214  15.688  0.5476 -0.5577  0.0510
 9921TIP3   OH251177   5.201   6.677  16.403 -0.2911  0.4387  0.0293
 9921TIP3    H151178   5.193   6.723  16.486 -0.1353  0.3996  0.0632
 9921TIP3    H251179   5.259   6.603  16.421 -0.5354  0.2280 -0.0316
 9922TIP3   OH251180   4.647   0.106   5.928 -0.1868  0.3844  0.2403
 9922TIP3    H151181   4.586   0.173   5.957 -2.8145 -1.4329 -0.8428
 9922TIP3    H251182   4.700   0.086   6.005 -1.8973  1.0300  1.6113
 9923TIP3   OH251183   3.532   6.167   4.465  0.0035 -0.2141  0.3054
 9923TIP3    H151184   3.544   6.211   4.382  0.5698  1.0037  1.0293
 9923TIP3    H251185   3.516   6.075   4.441  0.1873  0.1179 -1.1291
 9924TIP3   OH251186   6.701   0.180   5.960  0.4728 -0.2409  0.4004
 9924TIP3    H151187   6.752   0.228   6.025  0.0629  0.4961  0.1720
 9924TIP3    H251188   6.704   0.234   5.882  1.2225 -1.2697 -0.3045
 9925TIP3   OH251189   6.758   0.585  15.550  0.3061  0.0220 -0.0569
 9925TIP3    H151190   6.682   0.630  15.514  0.6260  0.5603 -0.0685
 9925TIP3    H251191   6.831   0.612  15.494  0.9100  1.2977  1.3106
 9926TIP3   OH251192   1.426   3.001   3.734 -0.0486 -0.7667  0.2283
 9926TIP3    H151193   1.410   2.927   3.676 -0.2857 -1.8104  1.6081
 9926TIP3    H251194   1.355   2.997   3.798  0.0351  0.5531  0.4308
 9927TIP3   OH251195   5.489   1.813   3.352 -0.0427  0.7881 -0.0370
 9927TIP3    H151196   5.468   1.852   3.437 -0.3978  1.8529 -0.6045
 9927TIP3    H251197   5.584   1.826   3.344 -0.1098  1.2741 -0.0881
 9928TIP3   OH251198   5.901   6.436  16.747  0.3477 -0.4092  0.3685
 9928TIP3    H151199   5.823   6.473  16.789  0.3074 -0.5492  0.4144
 9928TIP3    H251200   5.868   6.359  16.700  0.5249 -0.6804  0.6887
 9929TIP3   OH251201   1.259   1.437  12.155 -0.2356  0.5952 -0.6994
 9929TIP3    H151202   1.179   1.452  12.105 -0.2274 -1.0415 -1.2242
 9929TIP3    H251203   1.329   1.438  12.089 -0.1441 -0.8068 -0.6463
 9930TIP3   OH251204   1.931   1.694   4.444  0.3432 -0.3699  0.3916
 9930TIP3    H151205   1.898   1.762   4.386 -0.7660 -0.7453  0.5753
 9930TIP3    H251206   2.012   1.664   4.403  1.0557  1.3465  0.5255
 9931TIP3   OH251207   6.324   2.970  14.204 -0.2714 -0.1472 -0.2161
 9931TIP3    H151208   6.242   2.928  14.229  0.1863 -1.2323 -0.4961
 9931TIP3    H251209   6.301   3.061  14.189 -1.0531 -0.0310  1.6156
 9932TIP3   OH251210   3.095   4.954  16.206  0.6657 -0.0929  0.2133
 9932TIP3    H151211   3.086   5.007  16.127 -0.6601 -0.3268  0.1931
 9932TIP3    H251212   3.107   4.865  16.173 -1.3571 -0.4099  0.2591
 9933TIP3   OH251213   3.226   5.241   3.373 -0.0053  0.3697 -0.0859
 9933TIP3    H151214   3.141   5.198   3.375  0.1373  0.0492 -0.9228
 9933TIP3    H251215   3.288   5.172   3.396  0.2727 -0.0002 -1.9259
 9934TIP3   OH251216   6.318   2.463  16.834  0.7132 -0.1990 -0.4857
 9934TIP3    H151217   6.301   2.378  16.875  1.1915 -0.0780 -0.0293
 9934TIP3    H251218   6.236   2.511  16.843  0.0743 -1.0307 -1.7728
 9935TIP3   OH251219   4.224   1.124  16.103 -0.1512 -0.5216 -0.2952
 9935TIP3    H151220   4.286   1.192  16.075 -0.4823 -0.2407 -0.3593
 9935TIP3    H251221   4.204   1.077  16.022 -2.1276  1.1320 -0.8106
 9936TIP3   OH251222   0.208   0.191   3.987  0.0696  0.0592 -0.1508
 9936TIP3    H151223   0.173   0.243   3.915  1.2656  1.0569 -0.0310
 9936TIP3    H251224   0.265   0.126   3.945 -1.1869 -0.9782 -0.2775
 9937TIP3   OH251225   3.367   4.571  14.658  0.0579 -0.1566  0.1723
 9937TIP3    H151226   3.295   4.602  14.714  0.7362  0.3973  0.7533
 9937TIP3    H251227   3.390   4.485  14.694  1.4549  0.8095  1.7009
 9938TIP3   OH251228   1.756   2.074   3.625  0.0286  0.2848  0.4649
 9938TIP3    H151229   1.708   2.135   3.681 -1.2581  1.2093 -1.5706
 9938TIP3    H251230   1.814   2.129   3.573 -0.2890 -0.3316 -0.5611
 9939TIP3   OH251231   6.489   5.937   1.550 -0.6104  0.3435  0.0567
 9939TIP3    H151232   6.439   5.987   1.615 -0.0486 -0.5928  1.2221
 9939TIP3    H251233   6.468   5.846   1.569  1.9080 -0.0862  0.8810
 9940TIP3   OH251234   5.108   2.025  14.215 -0.2548  0.2594 -0.4536
 9940TIP3    H151235   5.089   1.944  14.262 -1.4320 -0.0778 -1.4672
 9940TIP3    H251236   5.183   2.005  14.160  1.7100  0.9240  1.9207
 9941TIP3   OH251237   3.133   1.775   6.042 -0.8859 -0.1321 -0.2186
 9941TIP3    H151238   3.187   1.755   6.119  0.3152  2.1427 -0.4332
 9941TIP3    H251239   3.083   1.852   6.067  0.0601  1.0761 -1.9785
 9942TIP3   OH251240   0.266   1.443  11.828  0.4797  0.7233  0.4315
 9942TIP3    H151241   0.307   1.518  11.872  1.8195  1.1457 -1.4754
 9942TIP3    H251242   0.328   1.371  11.841  0.4800  0.6378 -0.0335
 9943TIP3   OH251243   0.441   4.590   5.559 -0.0658 -0.2644  0.2912
 9943TIP3    H151244   0.484   4.509   5.532  0.5778  0.5913 -1.3308
 9943TIP3    H251245   0.397   4.621   5.480  0.4073  1.4176  0.6739
 9944TIP3   OH251246   3.645   6.158   5.204  0.4814  0.1684  0.1779
 9944TIP3    H151247   3.649   6.209   5.123 -0.4376 -0.5767 -0.3352
 9944TIP3    H251248   3.732   6.167   5.242  1.1513 -0.1148 -1.2778
 9945TIP3   OH251249   3.895   2.836   5.254 -0.7709  0.2317 -0.4377
 9945TIP3    H151250   3.804   2.862   5.271 -0.7961 -1.1742  1.7727
 9945TIP3    H251251   3.912   2.767   5.317  1.3748 -0.5863 -1.8613
 9946TIP3   OH251252   0.119   6.433   0.386 -0.4011  0.3915  0.1548
 9946TIP3    H151253   0.024   6.445   0.382 -0.5885 -1.2321 -0.5207
 9946TIP3    H251254   0.135   6.348   0.345  1.2763  0.2970  0.9370
 9947TIP3   OH251255   2.238   6.152   3.456 -0.4804 -0.1536  0.0966
 9947TIP3    H151256   2.290   6.179   3.532  3.1804 -1.7058 -1.7347
 9947TIP3    H251257   2.201   6.233   3.422 -0.4608  0.8119  2.3138
 9948TIP3   OH251258   6.752   5.038  15.179 -0.0103  0.3831  0.9346
 9948TIP3    H151259   6.743   5.091  15.100  0.0994  0.2270  0.8154
 9948TIP3    H251260   6.842   5.052  15.208  0.0102  0.2891  0.9192
 9949TIP3   OH251261   6.221   5.175  16.863  0.3707  0.2159 -0.1012
 9949TIP3    H151262   6.250   5.132  16.783  2.3707 -1.4904  1.5069
 9949TIP3    H251263   6.169   5.250  16.832 -0.8946 -1.7496 -2.9531
 9950TIP3   OH251264   3.107   1.209   1.813 -0.2440 -0.0325  0.6010
 9950TIP3    H151265   3.038   1.258   1.857 -2.4673 -0.8417 -1.8477
 9950TIP3    H251266   3.099   1.235   1.721  1.1321 -2.0032 -0.1010
 9951TIP3   OH251267   6.612   2.351   3.171  0.0224  0.6771 -0.2765
 9951TIP3    H151268   6.561   2.402   3.233 -1.2756 -1.8316  0.8105
 9951TIP3    H251269   6.547   2.304   3.119  1.1681 -0.2348 -0.9160
 9952TIP3   OH251270   4.971   1.072   1.232  0.1502 -0.0857  0.0244
 9952TIP3    H151271   5.040   1.026   1.280  1.8876  2.8461  0.4446
 9952TIP3    H251272   4.993   1.057   1.140  0.5142 -0.3614  0.1521
 9953TIP3   OH251273   5.029   5.960   1.640  0.2687 -0.1855  0.3015
 9953TIP3    H151274   5.029   5.912   1.723 -2.6210 -0.8724 -0.0618
 9953TIP3    H251275   5.021   6.052   1.665  1.0538 -0.2490  0.8210
 9954TIP3   OH251276   5.293   1.807  15.168  0.5451 -0.5264  0.0412
 9954TIP3    H151277   5.363   1.773  15.113  0.1323 -2.2869  0.5846
 9954TIP3    H251278   5.230   1.736  15.174 -0.9096  0.7606  0.2295
 9955TIP3   OH251279   2.430   5.665   0.166  0.4460 -0.3092  0.2442
 9955TIP3    H151280   2.448   5.576   0.197 -1.1321 -0.8231 -0.2852
 9955TIP3    H251281   2.509   5.689   0.117  1.1901 -1.1250  1.0015
 9956TIP3   OH251282   5.952   2.454  12.086 -0.3281  0.3122 -0.4234
 9956TIP3    H151283   6.034   2.405  12.078  0.6812  1.9599 -0.3536
 9956TIP3    H251284   5.967   2.516  12.157 -1.2716  1.3175 -1.0787
 9957TIP3   OH251285   3.328   6.593  16.838  0.4016  0.5703  0.9442
 9957TIP3    H151286   3.260   6.525  16.842  1.5770 -0.5279  3.4538
 9957TIP3    H251287   3.346   6.603  16.744  0.4094 -2.8044  0.5183
 9958TIP3   OH251288   0.389   4.397   5.872  0.2509  0.2950 -0.5035
 9958TIP3    H151289   0.468   4.433   5.910  0.2877  0.8590 -1.0926
 9958TIP3    H251290   0.318   4.434   5.924  0.3045  1.0007 -0.9233
 9959TIP3   OH251291   6.210   5.171   0.194 -0.4043 -0.3606 -0.4928
 9959TIP3    H151292   6.210   5.256   0.238  1.2500 -1.2188  1.2258
 9959TIP3    H251293   6.168   5.188   0.109 -1.5272  1.8207  0.4466
 9960TIP3   OH251294   2.336   5.087   6.327 -0.0558  0.4725  0.3150
 9960TIP3    H151295   2.255   5.052   6.289  0.2476 -0.0841  0.1683
 9960TIP3    H251296   2.403   5.025   6.300  0.2830  0.4715  1.1557
 9961TIP3   OH251297   6.580   1.996   4.051 -0.3727 -0.1704 -0.0019
 9961TIP3    H151298   6.510   2.017   4.113 -0.5759  0.4623 -0.4422
 9961TIP3    H251299   6.637   2.074   4.052 -0.5791 -0.0072 -0.8876
 9962TIP3   OH251300   1.312   2.803   6.305 -0.2587 -0.0520  1.1818
 9962TIP3    H151301   1.268   2.776   6.386  0.8101  1.9174  2.4805
 9962TIP3    H251302   1.370   2.730   6.284 -2.0342 -1.4495  1.0410
 9963TIP3   OH251303   5.213   0.393   6.273  0.0040  0.2278 -0.3042
 9963TIP3    H151304   5.171   0.403   6.188  1.1006 -0.2797 -0.9241
 9963TIP3    H251305   5.300   0.358   6.252  0.3186  0.2054  1.0165
 9964TIP3   OH251306   4.695   3.458   2.485 -0.0375 -0.3066 -0.3947
 9964TIP3    H151307   4.672   3.366   2.501 -0.4750  0.0521  1.1425
 9964TIP3    H251308   4.768   3.475   2.544 -0.6959  0.6416  0.1551
 9965TIP3   OH251309   4.314   6.320   6.622  0.3655 -0.1424  0.0576
 9965TIP3    H151310   4.303   6.240   6.572 -1.1846  0.1100 -0.0358
 9965TIP3    H251311   4.231   6.330   6.670  0.9324  0.8511  0.8640
 9966TIP3   OH251312   1.118   0.699  16.564  0.0497 -0.0648  0.3295
 9966TIP3    H151313   1.038   0.695  16.510 -2.1592  4.0568  3.0306
 9966TIP3    H251314   1.089   0.670  16.650  1.9012 -0.0882  0.9510
 9967TIP3   OH251315   5.275   0.995   4.237 -0.1977 -0.2449  0.0294
 9967TIP3    H151316   5.307   0.935   4.170 -2.2237  0.6443 -1.8060
 9967TIP3    H251317   5.180   0.981   4.238 -0.3548  0.8049  1.6733
 9968TIP3   OH251318   3.450   5.888   4.450  0.3933 -0.1221  0.6749
 9968TIP3    H151319   3.447   5.806   4.400 -1.5031 -0.1277  0.7614
 9968TIP3    H251320   3.402   5.951   4.395  1.0850  0.7049  1.0060
 9969TIP3   OH251321   5.257   3.703  14.839  0.0151 -0.3790 -0.1187
 9969TIP3    H151322   5.167   3.691  14.871  0.4203 -2.9593  0.1421
 9969TIP3    H251323   5.307   3.633  14.881  1.9130  0.2613 -1.2572
 9970TIP3   OH251324   4.249   6.377   4.824  0.0212  0.4580  0.2503
 9970TIP3    H151325   4.162   6.363   4.861  0.3979  0.2143  1.0505
 9970TIP3    H251326   4.288   6.290   4.820  0.2082  0.5583 -0.1641
 9971TIP3   OH251327   1.214   3.682   0.003 -0.1435 -0.1168 -0.0118
 9971TIP3    H151328   1.181   3.594   0.017 -1.0826  0.1998 -0.1900
 9971TIP3    H251329   1.270   3.700   0.078  1.4217 -1.5055 -0.8139
 9972TIP3   OH251330   6.569   2.871  15.024  0.6319 -0.1483  0.2491
 9972TIP3    H151331   6.508   2.824  15.080  1.1478  0.2192  1.1446
 9972TIP3    H251332   6.656   2.844  15.056  0.9306 -0.0891 -0.5054
 9973TIP3   OH251333   6.599   6.639   2.497 -0.0103  0.4416  0.3007
 9973TIP3    H151334   6.679   6.659   2.545  1.9009 -0.1533 -2.5063
 9973TIP3    H251335   6.533   6.625   2.565  3.0401 -2.4934  2.8622
 9974TIP3   OH251336   0.710   6.325   2.266 -0.2801 -0.7531 -0.0625
 9974TIP3    H151337   0.708   6.230   2.273 -0.9108 -0.6789  0.9046
 9974TIP3    H251338   0.736   6.355   2.353 -2.6613  0.0345  0.4222
 9975TIP3   OH251339   0.859   1.031   1.350  0.3331  0.0870 -0.1316
 9975TIP3    H151340   0.805   1.079   1.413 -0.9072 -1.2075 -0.1858
 9975TIP3    H251341   0.814   1.042   1.266  0.7116 -0.1398 -0.3651
 9976TIP3   OH251342   4.638   2.108   0.879  0.0294  0.4463 -0.1863
 9976TIP3    H151343   4.723   2.122   0.919 -0.6271 -1.8743  2.1550
 9976TIP3    H251344   4.588   2.188   0.899  1.3053  1.3820 -0.6964
 9977TIP3   OH251345   3.613   0.296  10.586  0.3631  0.2588  0.3618
 9977TIP3    H151346   3.695   0.249  10.600  0.3317 -0.1283 -0.7011
 9977TIP3    H251347   3.640   0.386  10.566  0.5679 -0.0058 -0.5923
 9978TIP3   OH251348   5.219   4.549   1.822  0.4768 -0.4629 -0.3574
 9978TIP3    H151349   5.270   4.623   1.853 -0.4612 -0.5529  1.4843
 9978TIP3    H251350   5.252   4.475   1.873 -1.4359 -0.5271  0.8286
 9979TIP3   OH251351   1.554   6.352   4.554 -0.0382 -0.2546 -0.2830
 9979TIP3    H151352   1.647   6.338   4.569  0.1830  2.1905  0.9017
 9979TIP3    H251353   1.515   6.265   4.559  1.8342 -1.0114  1.8934
 9980TIP3   OH251354   0.343   0.520   0.978 -0.8494  0.1604 -0.2543
 9980TIP3    H151355   0.417   0.461   0.993 -1.3017  0.0121  1.4746
 9980TIP3    H251356   0.279   0.467   0.932  0.0530  0.2510 -1.6474
 9981TIP3   OH251357   1.858   6.530  13.956 -0.3751  0.0507  0.3666
 9981TIP3    H151358   1.839   6.445  13.916 -0.5584  0.0792  0.3906
 9981TIP3    H251359   1.853   6.514  14.050 -0.7461  0.1585  0.3690
 9982TIP3   OH251360   0.357   3.716   1.864 -0.2471 -0.0499  0.4068
 9982TIP3    H151361   0.391   3.745   1.780  0.1333 -0.8781  0.2699
 9982TIP3    H251362   0.318   3.631   1.846 -0.5923 -0.0128  0.9727
 9983TIP3   OH251363   3.034   0.167   0.252  0.0909 -0.0829 -0.0649
 9983TIP3    H151364   3.088   0.095   0.218  2.0316  0.6589  1.3161
 9983TIP3    H251365   2.984   0.127   0.324  0.9702 -0.1410  0.5285
 9984TIP3   OH251366   2.889   0.420  12.350 -0.8187  0.6200  0.2244
 9984TIP3    H151367   2.833   0.382  12.282  0.0413  0.0120 -0.1480
 9984TIP3    H251368   2.941   0.346  12.382 -0.2188  1.1898  0.5595
 9985TIP3   OH251369   5.608   0.579   4.920  0.1753  0.0821 -0.2950
 9985TIP3    H151370   5.679   0.519   4.939 -0.0326 -0.2303 -0.4960
 9985TIP3    H251371   5.647   0.645   4.862  0.7162  0.8484  0.9172
 9986TIP3   OH251372   6.468   6.484   1.640 -0.3161 -0.1437  0.0802
 9986TIP3    H151373   6.543   6.531   1.676  0.0487 -0.4212 -0.3055
 9986TIP3    H251374   6.397   6.547   1.641  0.6882  1.1036 -2.3550
 9987TIP3   OH251375   3.805   3.138  14.630  0.4102 -0.2486 -0.0289
 9987TIP3    H151376   3.773   3.048  14.627 -0.2094 -0.0967  1.4725
 9987TIP3    H251377   3.730   3.191  14.604  0.5447 -0.1248 -0.1628
 9988TIP3   OH251378   4.801   1.455  15.779 -0.0674 -0.3927 -0.1021
 9988TIP3    H151379   4.870   1.517  15.804  0.2600 -0.8014 -0.0016
 9988TIP3    H251380   4.756   1.498  15.706 -0.3946  0.3591  0.5282
 9989TIP3   OH251381   6.095   4.014  13.595  0.0848 -0.2113  0.0389
 9989TIP3    H151382   6.060   3.928  13.571 -0.5300 -0.1765  0.7794
 9989TIP3    H251383   6.109   4.058  13.512 -1.7419 -0.1906 -0.2771
 9990TIP3   OH251384   3.085   5.654  14.834 -0.1150 -0.0188 -0.0756
 9990TIP3    H151385   3.002   5.613  14.856 -0.8876  0.7140 -1.5975
 9990TIP3    H251386   3.066   5.748  14.832  0.7110  0.1465 -0.5472
 9991TIP3   OH251387   3.608   2.101  11.015  0.0690 -0.0919 -0.3463
 9991TIP3    H151388   3.555   2.179  11.001 -1.3725 -1.2794 -1.6655
 9991TIP3    H251389   3.574   2.063  11.096 -1.8612 -1.4129 -1.7271
 9992TIP3   OH251390   3.569   2.190   5.510  0.6260  0.3904  0.2395
 9992TIP3    H151391   3.598   2.278   5.535  4.0934 -1.0475  1.6263
 9992TIP3    H251392   3.505   2.165   5.576 -0.1399  1.7500  0.0141
 9993TIP3   OH251393   5.259   2.316  12.285  0.5904  0.1185  0.1787
 9993TIP3    H151394   5.331   2.276  12.237  0.7171  0.1146  0.3722
 9993TIP3    H251395   5.268   2.410  12.267  0.1788  0.0438 -0.4349
 9994TIP3   OH251396   5.035   2.314  15.400  0.2234 -0.3187  0.1709
 9994TIP3    H151397   5.093   2.259  15.347 -0.3482  0.2898 -1.1222
 9994TIP3    H251398   5.061   2.296  15.490  0.7870 -1.8669 -0.2763
 9995TIP3   OH251399   5.898   0.230   1.591 -0.5371  0.2186 -0.0598
 9995TIP3    H151400   5.803   0.237   1.585 -0.6298  0.7044  1.5448
 9995TIP3    H251401   5.931   0.314   1.558 -0.6215 -0.2070 -1.2486
 9996TIP3   OH251402   3.678   3.276  12.114 -0.1027  0.8113  0.4186
 9996TIP3    H151403   3.708   3.187  12.131  0.7847  1.0751  0.2925
 9996TIP3    H251404   3.759   3.325  12.097 -0.4896  1.8605  1.5384
 9997TIP3   OH251405   0.385   1.112   0.380  0.0290 -0.1551 -0.0543
 9997TIP3    H151406   0.471   1.101   0.421  0.6399 -0.4787 -1.3884
 9997TIP3    H251407   0.404   1.153   0.296 -1.0795 -0.5887 -0.5272
 9998TIP3   OH251408   1.997   5.079  15.379 -0.7610  0.3608 -0.1389
 9998TIP3    H151409   1.999   5.127  15.461 -1.2767  1.3793 -0.7059
 9998TIP3    H251410   1.909   5.041  15.376 -0.6501  0.0953 -0.1017
 9999TIP3   OH251411   4.966   0.821   0.771  0.8071 -0.0921 -0.4165
 9999TIP3    H151412   4.891   0.880   0.782 -0.5432 -1.4187 -2.2148
 9999TIP3    H251413   4.961   0.762   0.847  0.9180  0.7653  0.2635
10000TIP3   OH251414   5.805   6.774  10.965 -0.4949 -0.3247 -0.0396
10000TIP3    H151415   5.803   6.702  10.901 -0.8749  0.3437 -0.7819
10000TIP3    H251416   5.888   6.818  10.949 -1.0127  0.4171 -0.7130
10001TIP3   OH251417   3.703   4.172   0.689 -0.2828  0.0647  0.0111
10001TIP3    H151418   3.650   4.096   0.663  0.8266 -0.9973  0.7557
10001TIP3    H251419   3.793   4.143   0.674  0.2633  0.3439  2.5620
10002TIP3   OH251420   4.628   4.147  14.270  0.1949  0.4211  0.1780
10002TIP3    H151421   4.674   4.118  14.349 -1.1085  2.6166  1.7999
10002TIP3    H251422   4.615   4.241  14.283  0.6827  0.9869 -3.0508
10003TIP3   OH251423   2.037   2.818  11.677  0.8128  0.3366 -0.2632
10003TIP3    H151424   1.965   2.822  11.614 -0.3192  0.9909  1.0498
10003TIP3    H251425   2.092   2.894  11.655 -0.8585  1.9556  1.0305
10004TIP3   OH251426   5.371   1.532   5.472  0.0826 -0.0339  0.0431
10004TIP3    H151427   5.346   1.622   5.451  0.3366  0.0426  0.0723
10004TIP3    H251428   5.466   1.535   5.483  0.0783 -0.2852  0.1456
10005TIP3   OH251429   0.602   6.066  16.153  0.3558  0.0409  0.2810
10005TIP3    H151430   0.644   6.066  16.239  3.4792  2.3209 -1.1356
10005TIP3    H251431   0.674   6.049  16.092 -0.3962  5.3450 -2.3593
10006TIP3   OH251432   1.770   5.127  14.699 -0.5931 -0.1734 -0.1495
10006TIP3    H151433   1.748   5.203  14.752  0.6037  0.6235 -0.7692
10006TIP3    H251434   1.724   5.140  14.616 -1.0215 -0.5296  0.0274
10007TIP3   OH251435   3.351   3.336   1.863  0.2337  0.5461 -0.2234
10007TIP3    H151436   3.389   3.420   1.890  1.2754 -0.0429  0.1795
10007TIP3    H251437   3.257   3.346   1.878  0.1024  2.3473 -2.0753
10008TIP3   OH251438   2.479   1.609  15.912  0.4180 -0.4478  0.3867
10008TIP3    H151439   2.497   1.698  15.941 -0.6101 -0.0318 -0.2333
10008TIP3    H251440   2.387   1.610  15.885  0.4680 -1.6275  0.1307
10009TIP3   OH251441   0.923   0.065  12.679  0.0728 -0.6160 -0.3187
10009TIP3    H151442   0.836   0.106  12.683  0.2372 -0.2495 -0.4615
10009TIP3    H251443   0.984   0.135  12.704  0.2974 -0.9754  0.1502
10010TIP3   OH251444   5.707   1.426   1.042  0.2119 -0.2679  0.5021
10010TIP3    H151445   5.772   1.357   1.046  1.6122  1.0031  0.1760
10010TIP3    H251446   5.753   1.500   1.002 -1.7404  0.3011 -0.8051
10011TIP3   OH251447   1.083   0.897   5.146  0.3804 -0.0206 -0.4568
10011TIP3    H151448   1.024   0.865   5.078  0.3621  0.1112 -0.5028
10011TIP3    H251449   1.117   0.817   5.188  1.2822 -0.1334 -1.3813
10012TIP3   OH251450   2.837   5.726   1.383  0.2390 -0.2532 -0.3200
10012TIP3    H151451   2.790   5.784   1.442  0.1260  1.3807 -1.9953
10012TIP3    H251452   2.924   5.764   1.376  1.1132 -1.9555  0.9032
10013TIP3   OH251453   5.294   5.650   4.378  0.1413  0.5114  0.1566
10013TIP3    H151454   5.199   5.636   4.376  0.1731  0.4178 -1.5523
10013TIP3    H251455   5.304   5.744   4.396 -0.3613  1.2110 -2.9682
10014TIP3   OH251456   5.309   1.574   5.135  0.2643  0.0997 -0.0218
10014TIP3    H151457   5.359   1.524   5.071 -2.0371 -0.2030 -1.6450
10014TIP3    H251458   5.252   1.509   5.177  0.3990  0.6238  1.0054
10015TIP3   OH251459   1.450   0.232   3.081  0.4129 -0.2930  0.0500
10015TIP3    H151460   1.460   0.246   3.175 -1.1496  0.4533  0.1225
10015TIP3    H251461   1.539   0.215   3.050  1.2983  1.9049  1.2546
10016TIP3   OH251462   6.712   1.233  15.373 -0.0413  0.2906 -0.1361
10016TIP3    H151463   6.625   1.274  15.369 -1.2707 -2.2865 -1.4495
10016TIP3    H251464   6.772   1.301  15.343 -1.5840  2.1364  0.8286
10017TIP3   OH251465   2.853   0.531  16.872 -0.2176  0.1380  0.6651
10017TIP3    H151466   2.835   0.615  16.913  0.9348  1.6299 -1.7853
10017TIP3    H251467   2.769   0.504  16.835 -0.5239  0.3628  1.1975
10018TIP3   OH251468   6.388   4.478  12.486 -0.1047 -0.5186 -0.7901
10018TIP3    H151469   6.436   4.400  12.513  0.2361 -0.0278  0.0630
10018TIP3    H251470   6.425   4.502  12.401 -0.9138 -1.8671 -1.5380
10019TIP3   OH251471   6.742   0.004  14.791  0.9860 -0.2644 -0.0425
10019TIP3    H151472   6.685   0.078  14.771 -1.0098 -1.5479  0.7856
10019TIP3    H251473   6.817   0.015  14.732  0.1466  1.7366 -0.7710
10020TIP3   OH251474   4.994   0.133  16.628 -0.0423 -0.1028  0.2090
10020TIP3    H151475   5.046   0.058  16.657 -1.0872 -1.3158 -0.9565
10020TIP3    H251476   5.050   0.178  16.564  0.3075 -0.3051  0.3703
10021TIP3   OH251477   6.282   6.512  12.342 -0.2578  0.4271  0.3591
10021TIP3    H151478   6.208   6.548  12.390 -0.8114 -1.9127  1.3314
10021TIP3    H251479   6.245   6.481  12.260 -0.2406 -0.0972  0.5453
10022TIP3   OH251480   1.668   0.088   5.608  0.0438 -0.0987  0.2782
10022TIP3    H151481   1.665   0.085   5.704  0.3023  0.7186  0.3102
10022TIP3    H251482   1.754   0.050   5.586 -0.4347 -1.2401  0.3182
10023TIP3   OH251483   3.035   4.307   0.472  0.4195 -0.3255 -0.2990
10023TIP3    H151484   3.024   4.376   0.538 -2.4533 -1.5765  0.6140
10023TIP3    H251485   3.055   4.353   0.391 -0.5533  1.5250  0.4979
10024TIP3   OH251486   5.004   5.605  14.603 -0.1445 -0.0869 -0.7927
10024TIP3    H151487   5.055   5.673  14.647  0.5369 -1.1599  0.1116
10024TIP3    H251488   5.003   5.631  14.511  0.2780  1.0373 -0.4829
10025TIP3   OH251489   2.088   1.966  16.287  0.5980  0.3125  0.0789
10025TIP3    H151490   2.092   1.885  16.237 -0.6333  0.5375 -0.3978
10025TIP3    H251491   2.084   1.937  16.379  3.4680 -0.0781  0.1067
10026TIP3   OH251492   6.759   0.782  16.457  0.1777 -0.0684  0.1392
10026TIP3    H151493   6.739   0.689  16.469  0.6152 -0.2203 -0.2504
10026TIP3    H251494   6.717   0.805  16.374 -1.9360  0.6962  1.4148
10027TIP3   OH251495   6.318   2.692  12.939  0.4234  0.0923 -0.4010
10027TIP3    H151496   6.246   2.653  12.890  1.4249 -1.5154 -0.6215
10027TIP3    H251497   6.276   2.737  13.012 -1.0110  1.7233 -2.1807
10028TIP3   OH251498   0.709   3.241  16.482 -0.1203 -0.2067  0.1085
10028TIP3    H151499   0.767   3.171  16.452  0.7351  0.1637  0.9019
10028TIP3    H251500   0.767   3.314  16.503 -1.1059  1.3261 -2.2306
10029TIP3   OH251501   1.157   6.680   4.819 -0.2405  0.0000 -0.1426
10029TIP3    H151502   1.109   6.631   4.886  0.9050 -0.6917  0.1908
10029TIP3    H251503   1.108   6.662   4.738 -0.8567 -0.2555  0.2774
10030TIP3   OH251504   2.325   4.174   6.031  1.6746  0.2479  0.5879
10030TIP3    H151505   2.361   4.185   6.120 -0.6958  1.2884  1.4454
10030TIP3    H251506   2.248   4.118   6.043  2.6577 -1.5633 -1.1733
10031TIP3   OH251507   6.396   3.519  14.381 -0.6710 -0.3738  0.2709
10031TIP3    H151508   6.455   3.504  14.455 -1.1499  1.3342  1.0295
10031TIP3    H251509   6.443   3.484  14.305 -1.4617 -5.0346  1.7538
10032TIP3   OH251510   2.726   2.710  12.481 -0.2959  0.2098  0.1868
10032TIP3    H151511   2.758   2.772  12.416 -0.9811  1.7496  1.2833
10032TIP3    H251512   2.771   2.734  12.562 -1.6576  0.2372  0.9585
10033TIP3   OH251513   3.310   3.805   4.924 -0.3478 -0.7865 -0.1253
10033TIP3    H151514   3.389   3.774   4.879 -0.6646 -0.7393 -0.7328
10033TIP3    H251515   3.332   3.802   5.017 -0.3649 -2.8678 -0.1521
10034TIP3   OH251516   6.430   1.550   1.894  0.8001  0.2345 -0.0665
10034TIP3    H151517   6.449   1.610   1.822  1.4471 -0.6703 -0.6545
10034TIP3    H251518   6.413   1.466   1.852 -0.0432 -0.0105  0.7575
10035TIP3   OH251519   1.151   0.273  16.258  0.1502 -0.2609 -0.2244
10035TIP3    H151520   1.223   0.327  16.225 -1.8746  2.1780 -0.8460
10035TIP3    H251521   1.115   0.325  16.330 -0.0518 -2.1521  1.0558
10036TIP3   OH251522   3.498   2.861  11.335  0.0719  0.0040  0.4837
10036TIP3    H151523   3.519   2.829  11.248  3.1149  4.4458 -0.5662
10036TIP3    H251524   3.558   2.815  11.393  2.0688  1.2292 -0.5594
10037TIP3   OH251525   4.076   2.905  14.850  0.4212 -0.2666  0.4186
10037TIP3    H151526   4.084   2.937  14.940  0.4178  1.0502 -0.0346
10037TIP3    H251527   4.119   2.819  14.851  2.8177  0.8963  1.0561
10038TIP3   OH251528   1.204   5.949   0.672 -0.3566 -0.5474  0.5713
10038TIP3    H151529   1.149   5.883   0.715  0.4688 -0.7002  1.4146
10038TIP3    H251530   1.200   6.025   0.730 -1.1562  0.0992 -0.3089
10039TIP3   OH251531   2.375   0.403  12.274 -0.6192  0.8560 -0.0429
10039TIP3    H151532   2.393   0.490  12.311 -0.4092  0.7312  0.1516
10039TIP3    H251533   2.300   0.417  12.217  1.2267  1.7543 -2.3418
10040TIP3   OH251534   5.893   1.560  13.171  0.0353 -0.4160  0.8953
10040TIP3    H151535   5.821   1.504  13.144  0.9959 -0.8519 -0.8687
10040TIP3    H251536   5.964   1.500  13.194  0.4523  0.0276  0.7874
10041TIP3   OH251537   0.747   2.223   5.942  0.0482  0.3957 -0.0648
10041TIP3    H151538   0.817   2.236   5.879  0.2325  0.9941  0.2592
10041TIP3    H251539   0.754   2.131   5.968 -0.4910 -0.0585 -1.4566
10042TIP3   OH251540   0.684   6.026  13.472  0.9979  0.5020 -0.1346
10042TIP3    H151541   0.685   6.120  13.488  1.4012  0.6833 -1.1966
10042TIP3    H251542   0.612   5.993  13.526  0.9737  1.3840  0.3850
10043TIP3   OH251543   3.713   0.089   3.460  0.1542 -0.4280 -0.7048
10043TIP3    H151544   3.734   0.040   3.540  2.5871 -0.8945 -1.5865
10043TIP3    H251545   3.638   0.143   3.485  1.7352  0.5254  2.3936
10044TIP3   OH251546   6.375   2.546   5.373  0.2986  0.0459 -0.1564
10044TIP3    H151547   6.389   2.454   5.395  0.4903  0.4258  1.3435
10044TIP3    H251548   6.433   2.562   5.298 -0.6207 -1.3526 -1.1984
10045TIP3   OH251549   3.628   4.550  12.416 -0.4452  0.5777 -0.5880
10045TIP3    H151550   3.626   4.459  12.446 -1.4252  0.0891 -2.0375
10045TIP3    H251551   3.660   4.544  12.326 -0.1685  1.7120 -0.5716
10046TIP3   OH251552   4.742   1.600  16.976  0.2478 -0.8369  0.5892
10046TIP3    H151553   4.786   1.556  16.903 -3.6082 -1.9559 -1.1474
10046TIP3    H251554   4.680   1.535  17.009 -1.7372  1.4665  1.5048
10047TIP3   OH251555   3.682   4.346  15.542  0.4448 -0.0368 -0.0717
10047TIP3    H151556   3.671   4.346  15.446  1.3329 -0.0367 -0.1804
10047TIP3    H251557   3.771   4.314  15.555 -0.0897 -1.1443  0.8133
10048TIP3   OH251558   3.490   0.931  12.017  0.6741 -0.4266 -0.0738
10048TIP3    H151559   3.440   1.003  11.978 -0.1216 -1.5893 -1.2557
10048TIP3    H251560   3.478   0.942  12.111 -0.6581  0.1408 -0.2965
10049TIP3   OH251561   2.690   0.360   4.038  0.5883  0.1773  0.6239
10049TIP3    H151562   2.660   0.450   4.024  1.2623  0.2759 -0.2381
10049TIP3    H251563   2.625   0.322   4.096 -1.6459  0.1537 -1.7926
10050TIP3   OH251564   5.107   4.096   1.113 -0.0803 -0.5487  1.3438
10050TIP3    H151565   5.147   4.036   1.050 -1.2512 -1.3520  1.3315
10050TIP3    H251566   5.149   4.180   1.098 -0.4726 -0.6960 -0.6430
10051TIP3   OH251567   1.482   0.510   5.327  0.2272  0.2496  0.6722
10051TIP3    H151568   1.534   0.430   5.341 -0.2418 -0.0992  0.4496
10051TIP3    H251569   1.458   0.538   5.415  1.3089  0.7646  0.8162
10052TIP3   OH251570   0.008   1.705  15.433  0.4986  0.3952  0.1789
10052TIP3    H151571   0.018   1.638  15.365 -0.8789 -2.4080  2.6190
10052TIP3    H251572   0.097   1.740  15.445  1.1950 -0.7620 -1.3773
10053TIP3   OH251573   4.656   4.046  12.858  0.0417 -0.1463 -0.0440
10053TIP3    H151574   4.648   3.964  12.809  1.2212 -0.1183 -0.3192
10053TIP3    H251575   4.603   4.109  12.810  1.0016 -0.1807 -1.1814
10054TIP3   OH251576   2.057   3.988  15.093  0.2190 -0.3403  0.4973
10054TIP3    H151577   2.013   3.923  15.040 -0.6818 -0.5571  1.5154
10054TIP3    H251578   2.065   3.949  15.180 -0.3832  0.9109  1.1369
10055TIP3   OH251579   3.008   5.441  10.911 -0.0844 -0.3606  0.0378
10055TIP3    H151580   2.957   5.458  10.832 -0.1721 -0.1126  0.1491
10055TIP3    H251581   3.094   5.414  10.879 -0.2601 -0.7021 -0.1474
10056TIP3   OH251582   4.056   4.686  10.926 -0.4555 -0.8569 -0.0473
10056TIP3    H151583   3.965   4.702  10.951  0.4872  2.7572  1.5325
10056TIP3    H251584   4.095   4.774  10.923  2.4524 -2.1686 -2.8363
10057TIP3   OH251585   6.553   6.236   4.026 -0.5590 -0.2550 -0.7312
10057TIP3    H151586   6.523   6.325   4.047  0.1064 -0.5100  1.4155
10057TIP3    H251587   6.484   6.201   3.970 -1.3999  1.2071 -0.6538
10058TIP3   OH251588   1.815   4.113   0.336  0.1693  0.4725  0.5902
10058TIP3    H151589   1.802   4.032   0.287 -1.4906  0.1834  1.4662
10058TIP3    H251590   1.844   4.177   0.270  0.5671 -0.5860 -0.2713
10059TIP3   OH251591   1.914   2.156  12.721  0.3587  0.0367  0.0850
10059TIP3    H151592   1.933   2.186  12.632  1.0568  1.9806  0.8608
10059TIP3    H251593   1.898   2.236  12.771 -0.1476 -1.0309  1.6889
10060TIP3   OH251594   0.903   6.538   3.491 -0.1486 -0.6012  0.4078
10060TIP3    H151595   0.967   6.577   3.431 -0.2768 -0.6562  0.2341
10060TIP3    H251596   0.839   6.607   3.506 -1.0509 -1.1326 -0.8809
10061TIP3   OH251597   3.135   2.654  12.333  0.0474 -0.6978 -0.0594
10061TIP3    H151598   3.206   2.632  12.273  1.5603  1.1163  1.0011
10061TIP3    H251599   3.082   2.574  12.338  2.2844 -2.2688 -0.4952
10062TIP3   OH251600   6.182   0.842   4.027 -0.3876  0.3887  0.3149
10062TIP3    H151601   6.248   0.774   4.014 -0.4938  0.5821 -1.2694
10062TIP3    H251602   6.214   0.892   4.103  0.6301 -0.2805  0.3345
10063TIP3   OH251603   1.343   3.252  12.368 -0.8348  0.1920 -0.0448
10063TIP3    H151604   1.431   3.217  12.355 -1.5607 -0.7511 -2.7383
10063TIP3    H251605   1.291   3.175  12.394 -1.5190  0.0827 -1.6732
10064TIP3   OH251606   5.219   3.456  15.348  0.4592 -0.7197 -0.1577
10064TIP3    H151607   5.306   3.458  15.308  0.9303  0.4292  0.8935
10064TIP3    H251608   5.235   3.440  15.441 -0.2803  1.4866  0.3987
10065TIP3   OH251609   4.130   5.457   3.271  0.4293  0.0366  0.5537
10065TIP3    H151610   4.190   5.388   3.240  0.3716  0.3576 -0.2769
10065TIP3    H251611   4.067   5.467   3.200 -0.8022 -0.5123  1.5547
10066TIP3   OH251612   4.734   5.142   1.601 -0.1270 -0.1410 -0.6322
10066TIP3    H151613   4.807   5.197   1.571 -0.3035  0.4160 -0.0633
10066TIP3    H251614   4.775   5.065   1.638  0.1918  0.2703 -0.1162
10067TIP3   OH251615   5.616   5.690  12.550 -0.0289  0.1396  0.2001
10067TIP3    H151616   5.650   5.779  12.552  1.5957 -0.4461 -0.0941
10067TIP3    H251617   5.578   5.677  12.637 -1.8554  1.6872 -0.3353
10068TIP3   OH251618   0.348   0.958  15.067 -0.0873  0.2028 -0.2569
10068TIP3    H151619   0.419   0.989  15.011  1.7092 -1.2512  1.1456
10068TIP3    H251620   0.327   1.033  15.123 -0.2655  0.9081 -1.2493
10069TIP3   OH251621   0.297   3.149  13.202 -0.3723 -0.3883  0.1099
10069TIP3    H151622   0.284   3.212  13.131  0.6385 -0.6696 -0.3348
10069TIP3    H251623   0.383   3.111  13.184  0.1760  0.0123  1.8642
10070TIP3   OH251624   4.773   5.890  16.403  0.9979 -0.5393 -0.4325
10070TIP3    H151625   4.796   5.915  16.492  1.7797 -0.6061 -0.6134
10070TIP3    H251626   4.680   5.913  16.395  1.5764  1.9536 -0.4551
10071TIP3   OH251627   6.096   2.765  13.952 -0.9082  0.2645  0.0424
10071TIP3    H151628   6.170   2.820  13.928  0.8542 -1.5662  1.0729
10071TIP3    H251629   6.080   2.785  14.044 -0.9813 -0.1330  0.1166
10072TIP3   OH251630   2.973   2.981   5.788  0.0288  0.1895  0.1604
10072TIP3    H151631   2.945   3.055   5.734  0.8303 -0.1722 -0.7894
10072TIP3    H251632   2.911   2.978   5.860 -0.6865  1.0878 -0.4083
10073TIP3   OH251633   0.551   0.369   5.834 -0.2876 -0.1281  0.5081
10073TIP3    H151634   0.572   0.425   5.759  0.7564 -2.0941 -0.7176
10073TIP3    H251635   0.616   0.392   5.900  0.4485 -0.2295 -0.1744
10074TIP3   OH251636   0.466   3.952  11.707  0.3257 -1.0818  0.6436
10074TIP3    H151637   0.376   3.984  11.718  1.0317  1.8648 -1.5211
10074TIP3    H251638   0.461   3.859  11.727 -2.9804 -0.7415  1.7049
10075TIP3   OH251639   3.764   4.188   4.580  0.1566  0.2620  0.1136
10075TIP3    H151640   3.773   4.132   4.504  0.0104 -0.1204  0.3794
10075TIP3    H251641   3.848   4.235   4.585 -0.4611  1.5768 -1.2923
10076TIP3   OH251642   6.029   1.202   0.105  0.1703 -0.5892 -0.0245
10076TIP3    H151643   6.024   1.271   0.172  1.1549  1.3490 -1.9044
10076TIP3    H251644   5.976   1.130   0.141 -2.1692  1.7042  1.2719
10077TIP3   OH251645   5.668   5.932  13.603 -0.0658 -0.1934  0.2581
10077TIP3    H151646   5.609   5.992  13.650 -1.0432 -0.5813 -0.4471
10077TIP3    H251647   5.717   5.987  13.543  0.9424  0.2608  1.4872
10078TIP3   OH251648   3.443   2.141   3.803 -0.1331 -0.2188  0.1933
10078TIP3    H151649   3.378   2.151   3.872  0.1436  0.1043  0.4119
10078TIP3    H251650   3.476   2.230   3.789 -0.1032 -0.3046 -0.2691
10079TIP3   OH251651   4.321   5.487   4.943  0.3194 -0.4047  0.2180
10079TIP3    H151652   4.247   5.497   5.002  0.0250 -0.3128 -0.1654
10079TIP3    H251653   4.324   5.569   4.894 -1.4648 -1.7183 -2.1929
10080TIP3   OH251654   3.510   6.240  13.753  0.3460 -0.0065 -0.2852
10080TIP3    H151655   3.571   6.181  13.798  0.0989 -1.6050 -1.9588
10080TIP3    H251656   3.427   6.228  13.798  0.3272 -0.8885 -0.5308
10081TIP3   OH251657   1.153   3.659  13.517 -0.1609  0.5407  0.5906
10081TIP3    H151658   1.200   3.656  13.433  0.8433 -0.6436  1.1866
10081TIP3    H251659   1.142   3.568  13.542 -1.5387  0.8509  1.1709
10082TIP3   OH251660   5.671   3.288   4.117 -0.0055  0.1819 -0.1336
10082TIP3    H151661   5.652   3.202   4.157 -0.4140  1.2912  2.1385
10082TIP3    H251662   5.605   3.346   4.155 -0.8299  1.1788 -2.9753
10083TIP3   OH251663   1.213   4.081  17.079 -0.2650 -0.4806 -0.1419
10083TIP3    H151664   1.169   3.999  17.058 -1.0522  0.2145 -1.2921
10083TIP3    H251665   1.143   4.139  17.107 -0.0861  0.5579 -1.7370
10084TIP3   OH251666   3.357   4.632  11.678 -0.5626  0.0541 -0.0591
10084TIP3    H151667   3.320   4.719  11.662 -0.1922  0.1948 -0.1687
10084TIP3    H251668   3.452   4.646  11.673 -0.5254 -0.5429 -1.0957
10085TIP3   OH251669   5.810   1.614   5.075  0.1440  0.0469  0.0178
10085TIP3    H151670   5.897   1.580   5.057  0.1084 -0.5183  0.9111
10085TIP3    H251671   5.769   1.549   5.131 -1.2468 -0.2144 -1.2661
10086TIP3   OH251672   0.735   4.617   5.558  0.1376 -0.0183  0.2046
10086TIP3    H151673   0.830   4.603   5.557 -0.2062 -2.6430 -0.9726
10086TIP3    H251674   0.701   4.548   5.501 -2.5758  0.1506  1.5596
10087TIP3   OH251675   0.708   3.875   5.872 -0.6420  0.6300 -0.0205
10087TIP3    H151676   0.708   3.889   5.967  0.6651 -0.2142  0.1110
10087TIP3    H251677   0.621   3.839   5.853 -1.2849  1.7811  0.6994
10088TIP3   OH251678   0.777   1.891   4.880  0.2609  0.0476 -0.3305
10088TIP3    H151679   0.810   1.949   4.812 -1.1999 -0.4199 -1.4680
10088TIP3    H251680   0.852   1.839   4.906  0.5542 -0.6560 -2.5037
10089TIP3   OH251681   3.242   2.403  10.518 -0.0344 -0.2076 -0.4580
10089TIP3    H151682   3.322   2.401  10.570 -1.0278  1.0576  1.1554
10089TIP3    H251683   3.186   2.335  10.557 -0.8811  0.9202  0.3553
10090TIP3   OH251684   6.483   3.008  11.806 -0.0775  0.1216 -0.3507
10090TIP3    H151685   6.403   2.983  11.853  0.9312 -1.4989  0.5652
10090TIP3    H251686   6.552   2.958  11.849  1.6276  2.3975 -0.3694
10091TIP3   OH251687   3.844   3.969   2.019 -0.0411 -0.3561 -0.0169
10091TIP3    H151688   3.929   4.011   2.025  0.0171 -0.4466 -0.1914
10091TIP3    H251689   3.781   4.040   2.031  0.0363  0.0568 -1.9044
10092TIP3   OH251690   6.251   5.315  10.537 -0.5781 -0.1661 -0.3358
10092TIP3    H151691   6.211   5.321  10.624  0.1849  0.4084 -0.0150
10092TIP3    H251692   6.334   5.271  10.552  0.0071  0.8348 -0.6218
10093TIP3   OH251693   4.240   2.762   2.913 -0.1934  0.2465 -0.2161
10093TIP3    H151694   4.187   2.749   2.991  1.4540  0.0020  0.8744
10093TIP3    H251695   4.296   2.685   2.908  1.3718  1.3586 -0.2879
10094TIP3   OH251696   4.344   1.225  16.614  0.1429 -0.1197 -0.4736
10094TIP3    H151697   4.390   1.309  16.612  0.8073 -0.5106 -2.1946
10094TIP3    H251698   4.406   1.165  16.656  0.0990 -0.0097 -0.2504
10095TIP3   OH251699   6.568   6.158   4.548  0.0179 -0.5414 -0.1005
10095TIP3    H151700   6.633   6.203   4.496 -1.1108 -0.7341 -1.7112
10095TIP3    H251701   6.535   6.224   4.609  1.7147 -0.4592  0.7442
10096TIP3   OH251702   1.602   2.178   4.585 -0.0810  0.0135 -0.0994
10096TIP3    H151703   1.595   2.128   4.667  0.4016 -1.4980 -0.9516
10096TIP3    H251704   1.696   2.190   4.572 -0.2202  1.6832  0.4055
10097TIP3   OH251705   1.420   5.084   5.451 -0.4024  0.0877  0.3607
10097TIP3    H151706   1.492   5.146   5.468 -1.1359  0.8327  0.8149
10097TIP3    H251707   1.403   5.092   5.358  1.2004 -1.3145 -0.0804
10098TIP3   OH251708   2.590   0.003   0.012  0.1424 -0.0367  0.9752
10098TIP3    H151709   2.523  -0.047  -0.035 -0.4536 -0.0260  1.8211
10098TIP3    H251710   2.543   0.076   0.052  0.8871  0.7987  0.3659
10099TIP3   OH251711   4.683   6.370  12.531  0.0370  0.1316 -0.1744
10099TIP3    H151712   4.608   6.420  12.499  0.9885  1.4114 -0.4247
10099TIP3    H251713   4.668   6.281  12.498 -1.5070  0.3115  0.0151
10100TIP3   OH251714   0.147   4.317  13.033 -0.8743  0.1587  0.2615
10100TIP3    H151715   0.122   4.405  13.006 -1.5135 -0.6261 -1.8036
10100TIP3    H251716   0.142   4.319  13.128 -0.6484  2.4158  0.2664
10101TIP3   OH251717   2.410   5.452  15.759  0.7075  0.3647 -0.1246
10101TIP3    H151718   2.328   5.483  15.721 -0.4575 -0.3366  1.6972
10101TIP3    H251719   2.466   5.529  15.764 -0.1510  1.0233 -0.6262
10102TIP3   OH251720   0.144   0.313   1.233 -0.0825  0.4317 -0.1783
10102TIP3    H151721   0.101   0.283   1.313 -1.1464  1.9582 -0.1451
10102TIP3    H251722   0.223   0.357   1.264  0.3723 -0.4342 -0.0891
10103TIP3   OH251723   4.204   5.057  10.209 -0.1989 -0.0881 -0.6116
10103TIP3    H151724   4.176   5.141  10.245  1.1800  0.7220 -1.3875
10103TIP3    H251725   4.128   5.000  10.220 -0.8779  1.0250  0.6556
10104TIP3   OH251726   6.398   4.579   0.623  0.2542 -0.0048  0.0200
10104TIP3    H151727   6.459   4.649   0.647  1.4450 -1.3307  1.0217
10104TIP3    H251728   6.337   4.619   0.562  2.0943  1.4073 -0.9343
10105TIP3   OH251729   3.184   1.696  15.526 -0.0157 -0.5127  0.5781
10105TIP3    H151730   3.108   1.734  15.570 -0.6983  0.3344 -1.2757
10105TIP3    H251731   3.243   1.771  15.513  1.4906 -1.2896  2.6547
10106TIP3   OH251732   0.185   0.711  10.711 -0.7706  0.4677 -0.4807
10106TIP3    H151733   0.234   0.630  10.693  0.9668  1.4391 -0.2894
10106TIP3    H251734   0.252   0.780  10.711 -2.1992  1.8876 -0.4645
10107TIP3   OH251735   3.477   2.632  15.158  0.0538  0.5315 -0.4869
10107TIP3    H151736   3.534   2.632  15.081 -0.5199 -1.4831 -0.9491
10107TIP3    H251737   3.427   2.550  15.151 -1.1285  1.0730  1.2034
10108TIP3   OH251738   0.032   3.747  14.975  0.1614 -0.2866 -0.1405
10108TIP3    H151739  -0.008   3.794  14.902 -0.1273  0.4559  0.4917
10108TIP3    H251740   0.048   3.659  14.941 -2.4067 -0.7170 -0.2586
10109TIP3   OH251741   5.452   5.590   2.660 -0.0651 -0.0234 -0.0562
10109TIP3    H151742   5.393   5.544   2.719  0.4477  0.0327  0.5045
10109TIP3    H251743   5.394   5.627   2.593 -0.5534 -0.8257 -0.0828
10110TIP3   OH251744   4.112   6.374  11.902  0.5192 -0.3494  0.2774
10110TIP3    H151745   4.112   6.405  11.993 -1.3404  1.7359 -0.3814
10110TIP3    H251746   4.191   6.412  11.864  0.1303  0.6533  0.4498
10111TIP3   OH251747   2.012   3.041   4.204 -0.6047 -0.2154  0.5511
10111TIP3    H151748   1.956   3.052   4.127 -0.9528  0.7401  0.9249
10111TIP3    H251749   1.983   3.110   4.264 -0.7268 -1.2975  1.7687
10112TIP3   OH251750   1.898   6.734  11.125 -0.0377 -0.3844  0.3368
10112TIP3    H151751   1.878   6.687  11.044  0.9238  0.6800 -0.5458
10112TIP3    H251752   1.900   6.826  11.099 -1.6590  0.1379  1.9842
10113TIP3   OH251753   3.442   3.565   1.071  0.4442 -0.5262 -0.0081
10113TIP3    H151754   3.480   3.490   1.025 -0.8597 -0.9086 -0.4846
10113TIP3    H251755   3.447   3.541   1.163 -0.4574 -1.4415 -0.1919
10114TIP3   OH251756   4.020   1.621  14.526  0.1028  0.5173  0.3896
10114TIP3    H151757   4.112   1.633  14.502 -0.0056  1.4693  0.4228
10114TIP3    H251758   3.993   1.541  14.481  0.1897  1.6817 -1.8027
10115TIP3   OH251759   4.551   1.124   3.385  0.1709  0.1404  0.3490
10115TIP3    H151760   4.601   1.073   3.449 -0.3121  0.5852  1.0926
10115TIP3    H251761   4.577   1.215   3.401  1.0349  0.1376 -0.9730
10116TIP3   OH251762   6.583   4.177   0.707  0.0345  0.5571  0.8656
10116TIP3    H151763   6.553   4.091   0.737  0.5497 -0.1174 -0.4963
10116TIP3    H251764   6.657   4.197   0.764  0.9747 -0.6791  0.0940
10117TIP3   OH251765   2.691   4.432  16.471 -0.2438  0.1518 -0.6689
10117TIP3    H151766   2.595   4.435  16.474 -0.2171  1.6574 -0.6665
10117TIP3    H251767   2.714   4.344  16.501 -1.5487  0.3651  1.0166
10118TIP3   OH251768   0.670   5.820  15.727  0.7952  0.0130 -0.1690
10118TIP3    H151769   0.639   5.822  15.636 -1.9012  0.4184  0.6990
10118TIP3    H251770   0.695   5.910  15.746  1.1591 -0.0297 -0.4480
10119TIP3   OH251771   0.174   3.931  10.791  0.0319  0.2866  0.9279
10119TIP3    H151772   0.235   3.858  10.780  0.5501  1.0597 -1.5267
10119TIP3    H251773   0.192   3.988  10.717 -1.9983  1.7518  1.5492
10120TIP3   OH251774   3.450   3.403   3.328  0.5261 -0.3791  0.2830
10120TIP3    H151775   3.390   3.474   3.352  1.1282  0.1028  0.3910
10120TIP3    H251776   3.501   3.439   3.255 -1.2516 -1.8120 -1.7014
10121TIP3   OH251777   3.007   3.086   6.969 -0.1506  0.4095  0.3026
10121TIP3    H151778   2.953   3.016   7.006 -0.2037  0.1951 -0.1696
10121TIP3    H251779   3.047   3.046   6.891  0.9960  0.4528  0.8662
10122TIP3   OH251780   3.674   5.481   5.810  0.7606  0.2414  0.3252
10122TIP3    H151781   3.594   5.453   5.855 -0.0961  1.8030 -0.2086
10122TIP3    H251782   3.702   5.560   5.856  2.1173 -0.3944  0.6316
10123TIP3   OH251783   0.683   6.451   0.810 -0.2950  0.5026 -0.2035
10123TIP3    H151784   0.755   6.504   0.844 -1.7514  1.6884  1.1377
10123TIP3    H251785   0.630   6.513   0.759 -1.8785  0.3456  1.1768
10124TIP3   OH251786   3.922   4.220  15.978 -0.2919 -0.3865  0.2330
10124TIP3    H151787   3.968   4.233  16.061  0.2613  0.0649 -0.1349
10124TIP3    H251788   3.865   4.297  15.970 -1.2811 -1.0548  0.7929
10125TIP3   OH251789   1.588   1.467   5.873 -0.4062 -0.5499  0.7066
10125TIP3    H151790   1.596   1.550   5.920 -2.3251 -0.1848  0.4240
10125TIP3    H251791   1.509   1.427   5.909 -0.9286 -1.0594 -0.9671
10126TIP3   OH251792   2.987   5.397   4.550  0.0662  0.1427 -0.0750
10126TIP3    H151793   3.061   5.441   4.507  0.2751 -1.2099 -1.1407
10126TIP3    H251794   2.956   5.460   4.615  0.9910  1.4615 -0.8830
10127TIP3   OH251795   1.811   4.407   3.025 -0.2081  0.5230  0.3177
10127TIP3    H151796   1.767   4.431   2.944  0.7673  1.8594  0.1589
10127TIP3    H251797   1.742   4.372   3.081 -0.9983  0.1896 -0.8564
10128TIP3   OH251798   4.197   5.836   5.534 -0.1147  0.2644 -0.0416
10128TIP3    H151799   4.102   5.841   5.521 -0.1263 -1.4045 -0.6553
10128TIP3    H251800   4.229   5.782   5.463  1.3604  1.0579 -0.0054
10129TIP3   OH251801   5.993   5.024   0.688  0.8905 -0.5949 -0.0816
10129TIP3    H151802   5.932   5.069   0.746  0.0092 -0.7318 -0.8860
10129TIP3    H251803   6.058   4.985   0.746  1.1795  0.9992  0.6793
10130TIP3   OH251804   1.191   2.105  13.374 -0.6269 -0.0213  0.3702
10130TIP3    H151805   1.119   2.161  13.403  0.3238  0.6684  1.4639
10130TIP3    H251806   1.256   2.166  13.340  0.4448 -0.4291  1.6318
10131TIP3   OH251807   4.075   0.739  15.002  0.3014  0.7541  0.0436
10131TIP3    H151808   4.165   0.745  15.035 -0.1575  0.3165  1.3851
10131TIP3    H251809   4.039   0.661  15.044 -0.3946  0.3565 -1.2635
10132TIP3   OH251810   0.257   4.099   0.946  1.0512 -0.1730  0.3199
10132TIP3    H151811   0.252   4.159   1.021  2.5212  0.0075  0.2823
10132TIP3    H251812   0.338   4.123   0.901 -0.1599  0.2047 -1.7444
10133TIP3   OH251813   3.570   1.048  16.286  0.2874 -0.5589  0.5723
10133TIP3    H151814   3.600   0.959  16.268  1.8308 -0.0957  0.8009
10133TIP3    H251815   3.476   1.040  16.299  0.3931 -2.1274  0.3732
10134TIP3   OH251816   0.035   5.675  10.628 -0.0200  0.0633  0.3640
10134TIP3    H151817  -0.025   5.749  10.616 -1.4698 -1.1186  0.2040
10134TIP3    H251818   0.106   5.692  10.566 -0.5700  1.0950 -0.0001
10135TIP3   OH251819   0.606   1.104   4.364  0.4681  0.7676 -0.4000
10135TIP3    H151820   0.676   1.043   4.340 -0.0130  0.3636 -0.7542
10135TIP3    H251821   0.526   1.063   4.335 -0.1427  0.2772  1.8461
10136TIP3   OH251822   1.802   2.004  11.344 -0.0787 -0.3070 -0.3089
10136TIP3    H151823   1.872   1.949  11.310  0.5136  0.8465 -0.9493
10136TIP3    H251824   1.800   1.984  11.438 -0.2673 -1.8575 -0.6253
10137TIP3   OH251825   4.888   3.908  14.702  0.5918 -0.0299 -0.0394
10137TIP3    H151826   4.859   3.954  14.781  0.1975  0.2218 -0.3288
10137TIP3    H251827   4.894   3.816  14.729  4.8506  0.5824  1.5649
10138TIP3   OH251828   0.890   2.105   2.230  0.4905 -0.0959 -0.0436
10138TIP3    H151829   0.939   2.062   2.160  2.3169  0.1229  1.0895
10138TIP3    H251830   0.955   2.156   2.278 -0.9448  0.6913  1.1259
10139TIP3   OH251831   1.269   1.572   3.876 -0.5239  0.5630 -0.4210
10139TIP3    H151832   1.285   1.537   3.964  0.3041  0.3832 -0.6322
10139TIP3    H251833   1.176   1.593   3.875 -0.6572  0.0484  0.3155
10140TIP3   OH251834   6.782   4.523  12.897  0.3264  0.2633  0.2136
10140TIP3    H151835   6.740   4.602  12.931  1.0000  0.2470  1.0706
10140TIP3    H251836   6.846   4.555  12.833  2.6792  0.5995  2.6844
10141TIP3   OH251837   4.876   3.621  13.600  0.0062  0.2149 -0.7225
10141TIP3    H151838   4.805   3.679  13.575  0.2328  0.3820 -0.9823
10141TIP3    H251839   4.936   3.622  13.525  0.0648 -0.2661 -0.6859
10142TIP3   OH251840   3.990   6.125  11.036  0.4624 -1.0550 -0.5274
10142TIP3    H151841   3.928   6.196  11.054 -2.0992 -3.5707  1.1486
10142TIP3    H251842   4.076   6.161  11.057 -1.0358  0.7558  2.9241
10143TIP3   OH251843   3.777   6.650   1.292  0.3296  0.5147 -0.0992
10143TIP3    H151844   3.786   6.709   1.217 -0.9300  1.6633  0.6295
10143TIP3    H251845   3.719   6.580   1.261  1.8418 -0.3720 -0.9706
10144TIP3   OH251846   1.941   3.276  12.393  0.4097 -0.1385  0.1403
10144TIP3    H151847   1.883   3.334  12.343  0.6313  0.0787  0.1371
10144TIP3    H251848   1.976   3.216  12.328 -0.7039 -1.0029  0.3245
10145TIP3   OH251849   0.081   3.005  13.096 -0.4634 -0.4489 -0.4952
10145TIP3    H151850   0.148   3.072  13.100 -1.2855  0.3838 -0.4962
10145TIP3    H251851   0.128   2.925  13.070  0.9926 -0.5400  2.2668
10146TIP3   OH251852   3.262   5.837   4.699 -0.0750 -0.2478  0.3679
10146TIP3    H151853   3.197   5.848   4.630  0.6740  1.4025 -0.0901
10146TIP3    H251854   3.328   5.779   4.661 -0.6454 -0.9338  0.4057
10147TIP3   OH251855   2.236   5.847   3.724  0.7715 -0.5123  0.1071
10147TIP3    H151856   2.175   5.910   3.688  2.5844  1.3186  0.1408
10147TIP3    H251857   2.228   5.770   3.668  2.6894  1.8274 -3.5264
10148TIP3   OH251858   0.382   5.788   0.197  0.5955  0.1141 -0.1966
10148TIP3    H151859   0.426   5.872   0.207 -0.8840  0.8226  0.5364
10148TIP3    H251860   0.403   5.740   0.277  1.0783 -0.0412 -0.4168
10149TIP3   OH251861   1.169   4.546   1.133 -0.0145  0.0209  0.1802
10149TIP3    H151862   1.192   4.615   1.070 -0.0605 -0.6325 -0.5642
10149TIP3    H251863   1.170   4.466   1.081  2.8300 -0.9373  1.6243
10150TIP3   OH251864   4.656   4.129   4.981  0.0411  0.6541 -0.5476
10150TIP3    H151865   4.564   4.101   4.988 -0.3505  2.0360 -0.1038
10150TIP3    H251866   4.705   4.057   5.019 -0.7928 -0.4959 -1.5826
10151TIP3   OH251867   5.793   3.635  11.519  0.1008  0.6110  0.0555
10151TIP3    H151868   5.810   3.684  11.599 -0.1577 -0.1106  0.5533
10151TIP3    H251869   5.808   3.699  11.449 -0.4109  1.4588  0.6993
10152TIP3   OH251870   0.763   4.471   1.087  0.5113  0.0638 -0.0246
10152TIP3    H151871   0.718   4.489   1.005  0.5006 -1.7629 -0.4464
10152TIP3    H251872   0.695   4.437   1.145  0.5788  1.0568  0.6547
10153TIP3   OH251873   6.695   5.954  12.006 -0.0705  0.4604  0.5865
10153TIP3    H151874   6.662   5.896  11.937 -0.3037  0.3475  0.7902
10153TIP3    H251875   6.688   6.041  11.969  1.2750  0.2756 -0.1152
10154TIP3   OH251876   0.254   2.548   0.352  0.3480  0.3466 -0.2002
10154TIP3    H151877   0.289   2.478   0.408 -2.5603 -1.1468 -0.0985
10154TIP3    H251878   0.215   2.610   0.413 -1.7532 -0.6754 -0.4296
10155TIP3   OH251879   6.000   5.764  16.949  0.2265 -0.4783  0.3738
10155TIP3    H151880   6.026   5.829  17.014  0.2136 -0.6432  0.5471
10155TIP3    H251881   5.988   5.683  16.999 -1.0443 -0.3078  0.3771
10156TIP3   OH251882   3.143   5.227   2.909 -0.3795 -0.0152 -0.1463
10156TIP3    H151883   3.106   5.310   2.941 -1.6868 -1.0222  1.0331
10156TIP3    H251884   3.135   5.232   2.814 -2.2978  0.3885  0.0204
10157TIP3   OH251885   1.565   1.516  10.526  0.1778 -0.2277  0.3606
10157TIP3    H151886   1.643   1.479  10.568 -0.3977 -1.7357  0.1340
10157TIP3    H251887   1.546   1.456  10.454 -1.5718 -0.2378  0.8209
10158TIP3   OH251888   4.839   2.292  14.476  0.7441 -0.4582  1.1037
10158TIP3    H151889   4.793   2.356  14.530  0.3366 -3.0890  4.0782
10158TIP3    H251890   4.797   2.298  14.390 -0.7376  1.7049  1.9405
10159TIP3   OH251891   0.953   1.429   0.862  0.4947  0.4349  0.5691
10159TIP3    H151892   1.010   1.499   0.895 -0.7389  0.6682  2.2473
10159TIP3    H251893   0.914   1.465   0.782  1.6968  0.7402  0.0981
10160TIP3   OH251894   5.766   5.215   2.592 -0.0249 -0.4192  0.2817
10160TIP3    H151895   5.680   5.233   2.556 -0.8216  0.0580  2.3394
10160TIP3    H251896   5.798   5.139   2.543 -0.7825  0.5824 -1.8021
10161TIP3   OH251897   5.321   4.075   5.215 -0.3560 -0.0876  0.3438
10161TIP3    H151898   5.241   4.099   5.261  0.4046  0.8613  1.1851
10161TIP3    H251899   5.387   4.137   5.246  0.6268 -0.6256 -0.6082
10162TIP3   OH251900   1.206   2.863   3.837 -0.7088  0.4750 -0.4026
10162TIP3    H151901   1.208   2.787   3.779  0.3060  0.3391 -0.2012
10162TIP3    H251902   1.120   2.902   3.823 -0.8349 -0.1142 -1.2819
10163TIP3   OH251903   5.902   5.407   6.293  0.3559  1.0279  0.2741
10163TIP3    H151904   5.908   5.446   6.206 -0.9034 -0.7386 -0.6470
10163TIP3    H251905   5.808   5.406   6.313  0.6933  2.1718  2.0176
10164TIP3   OH251906   0.737   4.391   3.254  0.3086  0.3405 -0.1112
10164TIP3    H151907   0.702   4.383   3.165  0.7134 -0.2563 -0.2186
10164TIP3    H251908   0.823   4.348   3.250  1.2471  2.1427  0.0480
10165TIP3   OH251909   3.232   5.922   6.051 -0.5467  0.2059 -0.4353
10165TIP3    H151910   3.264   5.876   6.128 -0.8176  0.6558 -0.0531
10165TIP3    H251911   3.217   6.012   6.081  0.9649  0.8153 -1.4108
10166TIP3   OH251912   1.829   1.377   0.565 -0.0319 -0.1093 -0.1456
10166TIP3    H151913   1.809   1.415   0.479  1.4993 -2.7103 -1.7347
10166TIP3    H251914   1.745   1.345   0.597 -0.6125  0.8557 -0.6794
10167TIP3   OH251915   5.636   3.992  10.575 -0.5766  0.4227 -0.5473
10167TIP3    H151916   5.719   4.040  10.573 -2.0631  3.1611  0.7932
10167TIP3    H251917   5.610   3.987  10.483  1.2407 -0.8221 -1.0271
10168TIP3   OH251918   3.775   4.088  15.794 -1.1249 -0.1284  0.0058
10168TIP3    H151919   3.693   4.136  15.793 -2.4432 -2.2563  1.7275
10168TIP3    H251920   3.831   4.137  15.855 -0.0865  2.8106 -3.1379
10169TIP3   OH251921   2.310   1.721  16.547  0.0426 -0.0201  0.1796
10169TIP3    H151922   2.308   1.661  16.622 -1.1002 -1.1857 -0.7591
10169TIP3    H251923   2.225   1.764  16.548 -0.4022 -0.8407 -1.0673
10170TIP3   OH251924   6.298   1.870   1.627  0.5363 -0.0310  0.7481
10170TIP3    H151925   6.281   1.819   1.706 -0.9453  0.0533  0.5014
10170TIP3    H251926   6.388   1.900   1.637  0.9358 -1.4459  1.5932
10171TIP3   OH251927   1.092   2.780  15.664  0.0555 -0.1364  0.2672
10171TIP3    H151928   1.022   2.834  15.700  1.9717  2.0879  0.7649
10171TIP3    H251929   1.077   2.693  15.701 -0.8796  0.9603  2.5125
10172TIP3   OH251930   2.156   3.319  13.738 -0.4489  0.3293 -0.3174
10172TIP3    H151931   2.185   3.304  13.648  1.4843 -0.9291  0.4642
10172TIP3    H251932   2.152   3.414  13.747  0.0913  0.4717 -1.5173
10173TIP3   OH251933   4.928   2.900  14.657  1.1032 -0.0955 -0.3510
10173TIP3    H151934   4.979   2.945  14.724  0.4360 -1.0232  0.7927
10173TIP3    H251935   4.916   2.812  14.691 -0.7082 -0.0723 -0.8741
10174TIP3   OH251936   1.717   0.013  11.644 -0.2981 -0.2447  0.0361
10174TIP3    H151937   1.735   0.005  11.550 -0.0146 -2.8172  0.2745
10174TIP3    H251938   1.621   0.022  11.649 -0.2384  0.7824 -0.5356
10175TIP3   OH251939   3.077   0.853  15.086  0.1716 -0.1522 -0.0729
10175TIP3    H151940   3.166   0.827  15.106  0.5147  1.7499  1.0423
10175TIP3    H251941   3.087   0.933  15.034 -0.8802 -0.2090 -0.3795
10176TIP3   OH251942   5.610   4.694  17.135 -0.2721  0.1264 -0.6764
10176TIP3    H151943   5.692   4.669  17.178 -0.3170  0.5572 -0.3338
10176TIP3    H251944   5.552   4.718  17.207 -1.5165 -2.4895 -0.7395
10177TIP3   OH251945   1.711   6.236  17.025 -0.5264  0.1580 -0.1600
10177TIP3    H151946   1.741   6.150  17.055 -1.4529 -0.7263 -1.6939
10177TIP3    H251947   1.774   6.262  16.958 -0.1329  0.7892  0.4379
10178TIP3   OH251948   6.621   2.955   3.590 -0.3884 -0.6566  0.1993
10178TIP3    H151949   6.550   2.977   3.529 -1.2519  0.7231  1.6456
10178TIP3    H251950   6.650   2.869   3.562  0.0226  0.4079 -2.8615
10179TIP3   OH251951   4.254   2.162   5.793  0.5802  0.1536  0.1835
10179TIP3    H151952   4.344   2.173   5.825  0.0304 -0.1157  1.8612
10179TIP3    H251953   4.221   2.085   5.839 -0.9616  1.0350  0.6073
10180TIP3   OH251954   6.316   0.884   5.889 -0.4172 -0.3236  0.8101
10180TIP3    H151955   6.376   0.902   5.816  0.3140  0.8285  1.6570
10180TIP3    H251956   6.231   0.872   5.849  0.3370 -1.6766 -0.3981
10181TIP3   OH251957   6.759   2.576   5.048  0.0952  0.2538  0.2701
10181TIP3    H151958   6.790   2.649   5.100 -0.2480  0.7982 -0.2788
10181TIP3    H251959   6.680   2.546   5.093 -0.9432  1.5639 -0.6474
10182TIP3   OH251960   1.519   0.533   1.622 -0.4557  0.2309 -0.1456
10182TIP3    H151961   1.488   0.620   1.648 -0.4197  0.2486 -0.1615
10182TIP3    H251962   1.591   0.551   1.561 -0.1012  0.1897  0.2625
10183TIP3   OH251963   3.048   4.705  16.015  0.1986 -0.2792  0.4285
10183TIP3    H151964   3.115   4.639  15.997 -1.2367 -1.8763  0.8052
10183TIP3    H251965   3.010   4.724  15.930  0.6162  0.0616  0.3157
10184TIP3   OH251966   1.617   4.516   3.459 -0.1520 -0.2170 -0.2474
10184TIP3    H151967   1.533   4.551   3.431 -0.0231  0.1679 -0.1596
10184TIP3    H251968   1.659   4.589   3.504 -0.2192 -0.7330  0.6539
10185TIP3   OH251969   2.260   3.135  13.060 -0.0418  0.3879  0.2496
10185TIP3    H151970   2.279   3.160  12.970 -1.3985 -1.3720 -0.5806
10185TIP3    H251971   2.235   3.216  13.103  1.1141  1.3317 -0.8299
10186TIP3   OH251972   5.901   6.400  12.219  0.3920 -0.0476 -0.1234
10186TIP3    H151973   5.956   6.354  12.156 -1.3280  1.9044 -3.1685
10186TIP3    H251974   5.952   6.477  12.243  0.6515 -0.3049  0.1593
10187TIP3   OH251975   0.863   2.028  12.865 -0.0807  0.3794  0.1462
10187TIP3    H151976   0.798   1.976  12.912  0.7035 -1.0079 -0.2752
10187TIP3    H251977   0.820   2.050  12.782 -0.7296  1.1320  0.6801
10188TIP3   OH251978   4.738   6.505  15.070  0.2564  0.1183  0.7026
10188TIP3    H151979   4.793   6.466  15.002  2.2005  3.0228  0.5132
10188TIP3    H251980   4.662   6.447  15.076  1.0333 -1.3336 -2.4739
10189TIP3   OH251981   4.088   4.802  13.909 -0.4495 -0.0981 -0.4030
10189TIP3    H151982   4.151   4.802  13.981 -0.8106  1.6421 -0.0487
10189TIP3    H251983   4.045   4.717  13.915 -0.4021 -0.0213  1.3895
10190TIP3   OH251984   6.005   2.876  14.217  0.1079 -0.6304  0.0118
10190TIP3    H151985   5.949   2.818  14.166 -0.5275 -0.2884  0.3168
10190TIP3    H251986   5.968   2.874  14.305 -0.1770  0.5712 -0.0745
10191TIP3   OH251987   6.174   4.641   3.956  0.1873 -0.3343 -0.4477
10191TIP3    H151988   6.097   4.664   4.009  0.9387 -1.5548  1.1769
10191TIP3    H251989   6.151   4.672   3.868 -1.3900  1.0177  0.4007
10192TIP3   OH251990   5.239   4.978  14.965 -0.1821  0.1098  0.2682
10192TIP3    H151991   5.192   4.940  14.892  1.1424  1.1042 -1.1466
10192TIP3    H251992   5.237   5.073  14.949  1.2870  0.2510  0.7725
10193TIP3   OH251993   6.127   0.894   2.625 -0.2374 -0.0607 -0.1786
10193TIP3    H151994   6.054   0.938   2.581  0.6020 -0.4004 -1.9363
10193TIP3    H251995   6.205   0.929   2.583  0.5777 -0.6024  0.8681
10194TIP3   OH251996   4.035   1.939   3.308  0.2768 -0.3517  0.2648
10194TIP3    H151997   4.030   2.031   3.283  0.7544 -0.1425  0.9188
10194TIP3    H251998   4.078   1.940   3.393  1.0795 -1.2407 -0.1181
10195TIP3   OH251999   0.257   2.153   3.323 -0.0014  0.0371 -0.1209
10195TIP3    H152000   0.204   2.217   3.275  2.2411  1.4968 -0.7322
10195TIP3    H252001   0.272   2.193   3.408  2.3566  0.9061 -0.8962
10196TIP3   OH252002   4.214   6.347  12.330 -0.1212 -0.2551 -0.1772
10196TIP3    H152003   4.172   6.415  12.383  0.9145 -0.8439  1.4452
10196TIP3    H252004   4.146   6.280  12.320  0.0713 -0.7648  1.6142
10197TIP3   OH252005   5.443   2.059  15.083 -0.6278  0.5609  0.2559
10197TIP3    H152006   5.533   2.078  15.111 -0.0309  0.6284 -1.6443
10197TIP3    H252007   5.419   1.981  15.132  1.4818 -1.0827 -1.2517
10198TIP3   OH252008   3.569   3.967   0.184 -0.8561  0.0161  0.1830
10198TIP3    H152009   3.491   3.934   0.228 -0.1647 -2.5297 -0.4001
10198TIP3    H252010   3.540   3.992   0.096 -0.9758 -1.2171 -0.1347
10199TIP3   OH252011   4.005   3.612   2.824 -0.2404  0.2380  0.4124
10199TIP3    H152012   3.931   3.663   2.790  0.5428  0.8263 -0.4294
10199TIP3    H252013   3.969   3.563   2.898 -1.5196  0.3635 -0.1281
10200TIP3   OH252014   4.706   3.716   0.150 -0.1393 -0.1115  0.1131
10200TIP3    H152015   4.616   3.683   0.148 -0.5166  0.9550 -2.3293
10200TIP3    H252016   4.757   3.649   0.104 -0.4682  1.4248 -2.5287
10201TIP3   OH252017   5.321   4.359   1.989 -0.3737 -0.1769  0.2814
10201TIP3    H152018   5.282   4.273   2.008 -0.7865 -0.0180  0.1531
10201TIP3    H252019   5.409   4.353   2.025  0.4881 -1.5374 -1.9509
10202TIP3   OH252020   5.204   4.785   1.059 -0.0214 -0.3077  0.1384
10202TIP3    H152021   5.164   4.772   0.973  2.7965  0.8441 -1.4261
10202TIP3    H252022   5.170   4.870   1.089 -1.7462 -1.1454  0.6509
10203TIP3   OH252023   6.394   6.565  14.333 -0.2276  0.0844  0.3987
10203TIP3    H152024   6.480   6.575  14.374 -0.0820  0.4093  0.0181
10203TIP3    H252025   6.412   6.565  14.239 -0.6229 -0.0277  0.3224
10204TIP3   OH252026   2.795   5.237   2.550 -0.0473 -0.2926 -0.3867
10204TIP3    H152027   2.840   5.211   2.469  0.3395 -1.6182  0.2390
10204TIP3    H252028   2.863   5.231   2.618 -0.6927 -0.4212  0.2455
10205TIP3   OH252029   6.671   2.994   4.113 -0.2504  0.5664 -0.3543
10205TIP3    H152030   6.589   3.009   4.065 -0.5028  0.9823  0.1930
10205TIP3    H252031   6.673   2.899   4.127 -0.0736  0.4188 -1.3489
10206TIP3   OH252032   0.123   0.184   0.631 -0.1482  0.4061  0.1401
10206TIP3    H152033   0.213   0.205   0.608 -0.1927  1.0059  0.4921
10206TIP3    H252034   0.093   0.125   0.562  0.9100 -0.7823  0.7005
10207TIP3   OH252035   0.988   3.696  11.779 -0.1237 -0.1305  0.1220
10207TIP3    H152036   0.986   3.610  11.822  0.6423 -1.2548 -2.0042
10207TIP3    H252037   1.023   3.678  11.692  1.3930  2.5541  0.1054
10208TIP3   OH252038   0.567   3.920   5.578  0.0653  0.2956 -0.0639
10208TIP3    H152039   0.534   3.987   5.638  1.6493  0.4318  0.6767
10208TIP3    H252040   0.494   3.859   5.567 -1.0131  1.5398  0.1412
10209TIP3   OH252041   0.696   1.413  13.726  0.7700 -0.5789 -0.1190
10209TIP3    H152042   0.674   1.491  13.777  0.8198 -0.8648  0.3408
10209TIP3    H252043   0.777   1.437  13.680  0.8502 -0.4038  0.1127
10210TIP3   OH252044   1.538   4.910   2.406 -0.0198 -0.0821  0.0158
10210TIP3    H152045   1.507   4.920   2.496 -0.2492 -0.9387  0.0376
10210TIP3    H252046   1.462   4.876   2.359  0.3522 -0.4429 -0.3222
10211TIP3   OH252047   5.961   0.652  14.886  0.0517 -0.3997  0.1497
10211TIP3    H152048   5.915   0.672  14.967  1.0330 -0.2141  0.6668
10211TIP3    H252049   5.974   0.737  14.843 -0.6796 -0.5224 -0.3180
10212TIP3   OH252050   1.617   2.905   0.508  0.3126  0.1097 -0.4074
10212TIP3    H152051   1.555   2.893   0.580  1.0190 -0.2796  0.1445
10212TIP3    H252052   1.579   2.975   0.454  0.7889  1.8507  1.4602
10213TIP3   OH252053   0.669   2.106   1.199 -0.2255 -0.2706  0.2227
10213TIP3    H152054   0.735   2.148   1.253 -0.4317  1.2260 -0.6841
10213TIP3    H252055   0.622   2.049   1.260  1.6142 -1.0523  0.9566
10214TIP3   OH252056   0.934   5.324  15.495 -0.3139 -0.7916 -0.1507
10214TIP3    H152057   0.841   5.345  15.504 -0.6704 -1.2265 -2.4359
10214TIP3    H252058   0.975   5.364  15.571 -2.2374  0.2756  0.3627
10215TIP3   OH252059   4.123   6.228  13.201  0.3003 -0.1486  0.0264
10215TIP3    H152060   4.084   6.158  13.253  1.3998  0.2432  1.3912
10215TIP3    H252061   4.216   6.206  13.196  0.1146 -0.5616 -2.4001
10216TIP3   OH252062   3.698   1.282  15.164 -0.1518  0.5792 -0.1020
10216TIP3    H152063   3.722   1.205  15.112  0.1612  0.2941  0.4485
10216TIP3    H252064   3.671   1.246  15.249  1.2225  1.1348  0.6001
10217TIP3   OH252065   3.175   0.035   6.634 -0.2186  0.4075 -0.6010
10217TIP3    H152066   3.172   0.116   6.582 -0.4952  0.8629  0.1137
10217TIP3    H252067   3.178   0.065   6.725  1.2957 -0.3790 -0.3832
10218TIP3   OH252068   6.601   6.377   0.690 -0.4073  0.0836  0.7474
10218TIP3    H152069   6.547   6.428   0.630 -2.5592 -0.3055  2.2652
10218TIP3    H252070   6.617   6.437   0.763  1.5472  0.3075  0.1519
10219TIP3   OH252071   4.889   2.155  14.056 -0.2610  0.0684 -0.1963
10219TIP3    H152072   4.975   2.140  14.097 -0.1157 -0.2302 -0.6064
10219TIP3    H252073   4.905   2.227  13.995 -0.6624  1.0515  0.8433
10220TIP3   OH252074   3.881   5.849  14.112  0.2362  0.0266 -0.4079
10220TIP3    H152075   3.883   5.774  14.052  1.0337 -0.5618  0.3399
10220TIP3    H252076   3.965   5.893  14.098  1.3681 -1.3450  1.7999
10221TIP3   OH252077   1.350   4.806   1.527 -0.4274 -0.3207  0.6369
10221TIP3    H152078   1.386   4.749   1.595  1.3602 -1.4934 -1.2069
10221TIP3    H252079   1.303   4.747   1.468 -0.2392  0.3638 -0.2197
10222TIP3   OH252080   3.636   4.558  11.196 -0.0695 -0.0791  0.2233
10222TIP3    H152081   3.575   4.607  11.250  0.3736 -0.8500  1.4434
10222TIP3    H252082   3.680   4.624  11.143 -1.6255  0.5168 -0.3287
10223TIP3   OH252083   2.997   3.328  12.654 -0.2996 -0.1897 -0.1171
10223TIP3    H152084   3.057   3.402  12.643 -0.4169 -0.1626 -0.5540
10223TIP3    H252085   3.053   3.258  12.689 -0.5171  0.5956  1.8576
10224TIP3   OH252086   1.723   0.016   2.375  0.6537 -0.0728  0.6799
10224TIP3    H152087   1.714  -0.071   2.413  0.9730 -0.0696  0.7625
10224TIP3    H252088   1.811   0.017   2.338  0.0820 -0.3472 -0.7513
10225TIP3   OH252089   1.435   3.989   6.360  0.1409  0.0690  0.1423
10225TIP3    H152090   1.410   4.075   6.394 -0.2315  0.3109 -0.7232
10225TIP3    H252091   1.518   4.005   6.314 -0.4407  0.1845 -0.8967
10226TIP3   OH252092   1.034   3.979  14.691 -0.1737  0.2548 -0.5940
10226TIP3    H152093   0.992   4.015  14.769  1.3205  0.5265  0.1182
10226TIP3    H252094   1.062   3.892  14.717 -1.4209 -0.4106 -1.4666
10227TIP3   OH252095   1.760   1.081   4.157 -0.1894 -0.0515  0.3914
10227TIP3    H152096   1.780   1.132   4.079 -0.7333 -0.1377  0.1962
10227TIP3    H252097   1.831   1.017   4.163  0.2093  0.3801  0.3404
10228TIP3   OH252098   1.844   4.138  15.150  0.1029  0.2831  0.3638
10228TIP3    H152099   1.790   4.067  15.185  1.1955 -0.3465  0.7951
10228TIP3    H252100   1.926   4.096  15.125 -0.8386  0.6025 -3.5149
10229TIP3   OH252101   0.053   1.437   2.299  0.1880 -0.2867  0.7308
10229TIP3    H152102   0.070   1.390   2.380  0.1101  0.0188  0.9245
10229TIP3    H252103  -0.034   1.406   2.271  0.9671 -1.7015 -0.1626
10230TIP3   OH252104   5.585   5.532   0.190 -0.8031 -0.3558  0.2528
10230TIP3    H152105   5.679   5.544   0.193 -0.9377  1.3458 -1.6391
10230TIP3    H252106   5.571   5.460   0.128 -0.7895 -0.3387  0.2303
10231TIP3   OH252107   5.200   1.692   0.985 -0.4564  0.0258  0.0155
10231TIP3    H152108   5.183   1.598   0.979 -0.6306 -0.0726  1.8887
10231TIP3    H252109   5.295   1.700   0.993 -0.4207  0.0302 -0.3987
10232TIP3   OH252110   4.162   2.936   4.403  0.1090  0.3353  0.2099
10232TIP3    H152111   4.155   2.921   4.497 -1.1431  0.5927  0.1719
10232TIP3    H252112   4.201   3.023   4.395 -3.5761  2.1002  0.5604
10233TIP3   OH252113   0.812   0.291  10.620 -0.1857  0.4148  0.1840
10233TIP3    H152114   0.755   0.217  10.599  1.2208 -1.2061  1.9354
10233TIP3    H252115   0.753   0.359  10.650 -1.5416  0.1684 -1.8228
10234TIP3   OH252116   0.586   3.261   0.536 -0.1721 -0.4035 -0.2785
10234TIP3    H152117   0.513   3.276   0.596 -1.4003  0.6586 -1.9703
10234TIP3    H252118   0.553   3.291   0.451  1.7031 -1.3675 -1.3772
10235TIP3   OH252119   4.830   1.403   5.540  0.2426  0.1086  0.0556
10235TIP3    H152120   4.886   1.379   5.614 -0.6124  1.0125  1.0215
10235TIP3    H252121   4.875   1.477   5.499 -0.3191  0.9515  0.9385
10236TIP3   OH252122   4.074   4.932   3.033 -0.2203  0.0382  0.3796
10236TIP3    H152123   4.055   5.024   3.011 -1.6990 -0.4480 -0.4670
10236TIP3    H252124   4.011   4.910   3.101  2.0480  0.4827  2.6634
10237TIP3   OH252125   4.483   0.524  16.848 -0.1379 -0.1395 -0.4268
10237TIP3    H152126   4.564   0.476  16.865 -0.5769 -1.2060 -1.2925
10237TIP3    H252127   4.462   0.566  16.932  1.1206 -0.1311 -0.1056
10238TIP3   OH252128   0.592   0.817   1.128  0.6952  0.0591 -0.0666
10238TIP3    H152129   0.511   0.866   1.144  1.1398  0.4629  1.0038
10238TIP3    H252130   0.585   0.787   1.037 -1.2641 -1.0424  0.4205
10239TIP3   OH252131   0.295   2.434  12.686  0.7227  0.2585  0.2974
10239TIP3    H152132   0.371   2.433  12.629  1.0280  3.2241  0.5916
10239TIP3    H252133   0.320   2.380  12.761  1.6833 -0.6154 -0.6453
10240TIP3   OH252134   0.037   5.357   0.979 -0.0294 -0.0893  0.4315
10240TIP3    H152135   0.050   5.450   0.960  0.4935 -0.1841  0.3083
10240TIP3    H252136  -0.022   5.355   1.054 -1.4682  0.3137 -0.6613
10241TIP3   OH252137   4.418   0.572  11.565 -0.3407 -0.6727  0.0440
10241TIP3    H152138   4.461   0.657  11.578 -1.3313 -0.4521  2.2101
10241TIP3    H252139   4.474   0.526  11.503  0.2422  1.5448 -1.1402
10242TIP3   OH252140   1.356   2.791   0.673 -0.3667  0.3641 -0.1642
10242TIP3    H152141   1.370   2.701   0.645  0.1690  0.7268 -1.0676
10242TIP3    H252142   1.325   2.783   0.763 -2.4330 -0.8289 -0.9447
10243TIP3   OH252143   2.367   5.540  15.322 -0.1261 -0.2639  0.1251
10243TIP3    H152144   2.431   5.491  15.374 -1.4062 -2.1665 -0.0322
10243TIP3    H252145   2.381   5.509  15.232 -0.3772  0.3098 -0.1140
10244TIP3   OH252146   1.128   6.180  15.092  0.2397 -0.2181  0.1507
10244TIP3    H152147   1.072   6.214  15.162 -0.6029 -0.7222 -0.2598
10244TIP3    H252148   1.196   6.246  15.081 -0.0567  0.2218  0.9350
10245TIP3   OH252149   2.085   3.443   2.095  0.0481 -0.5687  0.0692
10245TIP3    H152150   2.095   3.454   2.190  1.0650  1.2397 -0.2286
10245TIP3    H252151   2.065   3.531   2.063 -1.8559 -1.4419 -1.2253
10246TIP3   OH252152   4.227   2.196   5.514 -0.2426 -0.5041  0.5679
10246TIP3    H152153   4.152   2.141   5.490  0.2368 -1.4250  1.1248
10246TIP3    H252154   4.238   2.182   5.608  0.1780  0.1880  0.6245
10247TIP3   OH252155   3.068   4.576   2.470  0.1097 -0.1621  0.5328
10247TIP3    H152156   3.025   4.509   2.524  0.9230 -0.5907  0.6546
10247TIP3    H252157   3.044   4.659   2.512 -1.5110 -0.3152 -0.0500
10248TIP3   OH252158   4.154   0.351  11.426 -0.3215 -0.3999  0.2265
10248TIP3    H152159   4.138   0.445  11.433  0.0832 -0.1931 -1.4006
10248TIP3    H252160   4.067   0.313  11.414 -0.2826  0.0173 -1.5006
10249TIP3   OH252161   2.442   6.338   3.197  0.2865  0.8417 -0.0515
10249TIP3    H152162   2.353   6.303   3.199 -0.6052  3.0948  0.9276
10249TIP3    H252163   2.467   6.334   3.105 -1.2641  1.2629 -0.4991
10250TIP3   OH252164   2.249   0.616   2.665  0.0189 -0.2697  0.2885
10250TIP3    H152165   2.237   0.628   2.760 -1.9753 -0.3677  0.0644
10250TIP3    H252166   2.249   0.521   2.653 -0.9515 -0.2421  0.0481
10251TIP3   OH252167   3.391   1.939   4.272  0.0297 -0.0116 -0.2416
10251TIP3    H152168   3.486   1.930   4.258  0.1756  0.5379  0.3787
10251TIP3    H252169   3.362   1.850   4.294  0.3545 -0.2293 -0.6729
10252TIP3   OH252170   6.339   2.300   3.972 -0.1887 -0.3774 -0.5124
10252TIP3    H152171   6.424   2.276   3.934 -0.1094  0.7198 -1.0242
10252TIP3    H252172   6.345   2.394   3.986 -1.8000 -0.0900 -1.7116
10253TIP3   OH252173   2.775   1.571  10.561 -0.2767 -0.3074  0.6209
10253TIP3    H152174   2.735   1.490  10.530  0.1042 -0.2225 -0.0893
10253TIP3    H252175   2.707   1.638  10.548  0.3573 -0.0142 -1.3268
10254TIP3   OH252176   6.669   4.568  16.696  0.3991  0.1968  0.2999
10254TIP3    H152177   6.665   4.539  16.787 -1.8413 -1.1019 -0.1859
10254TIP3    H252178   6.660   4.663  16.701  3.2838  0.4603  1.6012
10255TIP3   OH252179   1.505   4.251  13.205 -0.2689 -0.7209 -0.2924
10255TIP3    H152180   1.464   4.164  13.205 -0.4911 -0.6440  1.7490
10255TIP3    H252181   1.433   4.311  13.226  0.0286 -0.1203 -0.9908
10256TIP3   OH252182   0.940   2.998   2.961 -0.2674 -0.2581  0.1262
10256TIP3    H152183   1.018   2.957   2.925 -0.4684  0.1236 -0.7495
10256TIP3    H252184   0.959   3.008   3.054  1.2138  0.9566 -0.2884
10257TIP3   OH252185   3.491   5.159   5.852 -0.3852  0.4572 -0.0366
10257TIP3    H152186   3.444   5.203   5.781  0.7080  2.9234  0.7229
10257TIP3    H252187   3.433   5.166   5.927 -0.8737 -0.7956 -0.2831
10258TIP3   OH252188   5.538   5.686  14.684  0.8071  0.3581  0.5567
10258TIP3    H152189   5.597   5.614  14.665  0.4336 -0.3750  2.1072
10258TIP3    H252190   5.459   5.644  14.719  0.1846  1.4591  0.5028
10259TIP3   OH252191   3.966   5.301   5.861  0.0652 -0.9100  0.1380
10259TIP3    H152192   4.045   5.309   5.915  0.6002 -0.6528 -0.6600
10259TIP3    H252193   3.896   5.337   5.914  1.0832  1.9760 -0.4109
10260TIP3   OH252194   3.461   6.147  15.835 -0.3760  0.3470  0.2012
10260TIP3    H152195   3.532   6.089  15.864  0.5241  0.3467 -1.8671
10260TIP3    H252196   3.398   6.146  15.906 -0.5354 -3.4490  0.0895
10261TIP3   OH252197   6.600   2.921  13.111 -0.4377  0.2646  0.0218
10261TIP3    H152198   6.682   2.956  13.076  0.0184  0.1389  0.9382
10261TIP3    H252199   6.536   2.990  13.096  0.0790  0.8022  0.2777
10262TIP3   OH252200   1.824   6.235   0.864  0.0069 -0.2038 -0.0318
10262TIP3    H152201   1.848   6.157   0.813  0.7342  0.0597 -0.0846
10262TIP3    H252202   1.742   6.210   0.907 -0.3809 -0.5895 -0.9708
10263TIP3   OH252203   4.495   3.686  13.923 -0.1208  0.2392 -0.2056
10263TIP3    H152204   4.552   3.745  13.874 -1.5462  1.2053 -0.7056
10263TIP3    H252205   4.550   3.655  13.996  0.9209  1.4407 -0.4656
10264TIP3   OH252206   1.415   3.975   5.718  0.0814 -0.4233  0.5937
10264TIP3    H152207   1.494   3.937   5.757 -0.2285 -1.8929 -0.1753
10264TIP3    H252208   1.405   3.929   5.635 -1.4966 -0.1231  0.6059
10265TIP3   OH252209   4.306   4.996   5.430  0.0540 -0.1473 -0.1150
10265TIP3    H152210   4.232   4.999   5.491 -0.2404 -1.6253 -0.3597
10265TIP3    H252211   4.268   5.018   5.345  0.5413  2.2957  0.2852
10266TIP3   OH252212   4.939   6.043   4.539  0.3460  0.9145 -0.2366
10266TIP3    H152213   5.015   6.014   4.487 -0.4426 -0.1929 -0.7950
10266TIP3    H252214   4.888   6.097   4.479 -0.2906  0.0699 -0.4731
10267TIP3   OH252215   5.017   1.155  16.971 -0.6177  0.3453 -0.6165
10267TIP3    H152216   5.068   1.119  16.898 -0.4602  2.3072 -1.5020
10267TIP3    H252217   4.940   1.099  16.976  0.3265 -1.0158 -1.0024
10268TIP3   OH252218   4.459   1.261  12.955 -0.4779 -0.2231 -0.7932
10268TIP3    H152219   4.403   1.190  12.923 -0.0104 -1.2579  0.6390
10268TIP3    H252220   4.435   1.271  13.047  0.1879  0.7802 -0.7237
10269TIP3   OH252221   0.359   0.713  15.154 -0.3433  0.5228 -0.6814
10269TIP3    H152222   0.342   0.802  15.122  1.5319  0.6690 -1.3449
10269TIP3    H252223   0.439   0.722  15.206 -0.0637 -0.8035 -0.8733
10270TIP3   OH252224   0.965   1.111  15.526 -0.0353 -0.2929 -0.1811
10270TIP3    H152225   1.014   1.045  15.477  0.2630  0.2443 -0.6136
10270TIP3    H252226   0.904   1.061  15.580 -0.4894 -0.8884 -1.2360
10271TIP3   OH252227   0.953   2.869  11.953 -0.2797  0.1412  0.1187
10271TIP3    H152228   0.863   2.883  11.985 -0.4172 -2.0634  0.8042
10271TIP3    H252229   1.008   2.897  12.026 -0.5529 -2.7465  1.5234
10272TIP3   OH252230   0.230   6.633   3.417 -0.0063  0.0061  0.1366
10272TIP3    H152231   0.195   6.685   3.344  1.0702 -0.5771 -0.8029
10272TIP3    H252232   0.237   6.695   3.489  0.0154  0.8609 -0.5947
10273TIP3   OH252233   2.596   1.824   2.593 -0.1241  0.3551 -0.0807
10273TIP3    H152234   2.609   1.850   2.684 -1.7916  1.0934 -0.0283
10273TIP3    H252235   2.536   1.890   2.558  0.4224  0.0089 -1.6823
10274TIP3   OH252236   1.969   6.182  11.017 -0.1426 -0.3808 -0.3462
10274TIP3    H152237   1.996   6.125  10.945 -1.9221 -0.3550 -1.0423
10274TIP3    H252238   1.893   6.229  10.984  0.4895  1.4278  0.7037
10275TIP3   OH252239   5.708   0.422  12.779  0.1930 -0.0285 -0.2405
10275TIP3    H152240   5.690   0.403  12.871 -0.1628  0.9103 -0.1088
10275TIP3    H252241   5.623   0.450  12.743 -0.0812 -2.1185 -1.3100
10276TIP3   OH252242   6.072   6.435  11.497 -0.6264  0.1108 -0.0886
10276TIP3    H152243   6.067   6.402  11.407  0.4239 -0.6141  0.0976
10276TIP3    H252244   6.048   6.359  11.552 -0.0492  0.1896  0.2783
10277TIP3   OH252245   0.079   6.259  16.506  0.2238 -0.0942 -0.2791
10277TIP3    H152246   0.064   6.174  16.465 -2.1637  0.5554 -0.8470
10277TIP3    H252247   0.058   6.323  16.437 -1.0954  0.9641  1.0576
10278TIP3   OH252248   4.066   6.585  15.390  0.2840 -0.5590 -0.1903
10278TIP3    H152249   4.156   6.553  15.393  0.1819 -0.7462  1.6957
10278TIP3    H252250   4.020   6.533  15.455 -0.7856  0.7259  0.1054
10279TIP3   OH252251   1.754   5.200  15.053 -0.2544  0.0748 -0.3605
10279TIP3    H152252   1.836   5.152  15.047  0.6178  1.3959  0.7955
10279TIP3    H252253   1.688   5.132  15.068  0.3381 -1.1685 -3.1053
10280TIP3   OH252254   4.996   4.049  14.242 -0.1651  0.3706  0.0324
10280TIP3    H152255   4.950   4.010  14.167 -1.0675  0.1467  0.7044
10280TIP3    H252256   4.955   4.135  14.252  0.6022  0.7858 -0.3147
10281TIP3   OH252257   4.342   4.961  12.504  0.4070 -0.6551 -0.0600
10281TIP3    H152258   4.273   4.901  12.479 -1.3295  1.5069 -0.5810
10281TIP3    H252259   4.323   4.984  12.595  0.8125 -0.5410  0.0004
10282TIP3   OH252260   6.583   0.938  16.962 -0.0218 -0.2366  0.5779
10282TIP3    H152261   6.612   0.945  16.871 -0.7853  0.4318  0.3730
10282TIP3    H252262   6.663   0.939  17.014  0.4682 -1.6316 -0.1418
10283TIP3   OH252263   3.650   3.302  14.169 -0.3781  0.6337 -0.6798
10283TIP3    H152264   3.604   3.219  14.152 -0.0519  0.4050 -0.4509
10283TIP3    H252265   3.667   3.301  14.263  2.3159 -0.4525 -1.1271
10284TIP3   OH252266   0.225   6.709  10.411 -0.6072  0.3693  0.4258
10284TIP3    H152267   0.245   6.801  10.398  0.1668  0.1750  0.2072
10284TIP3    H252268   0.157   6.690  10.346 -2.1197  1.2323  1.7281
10285TIP3   OH252269   2.619   6.526   3.589  1.0118 -0.0878 -0.0569
10285TIP3    H152270   2.654   6.610   3.619  2.7638 -1.1210  0.9425
10285TIP3    H252271   2.621   6.471   3.668 -0.8440 -0.8340 -0.5217
10286TIP3   OH252272   0.975   4.109   3.473 -0.0637 -1.0976 -0.1656
10286TIP3    H152273   0.908   4.133   3.537  1.1787  1.4817  0.2249
10286TIP3    H252274   0.966   4.174   3.404  1.8924 -0.8442 -0.1969
10287TIP3   OH252275   6.372   1.413  16.496  0.3022  0.0585 -0.5381
10287TIP3    H152276   6.385   1.488  16.555 -2.4754  1.2929 -1.4378
10287TIP3    H252277   6.379   1.450  16.408  0.6883 -1.1074 -1.0093
10288TIP3   OH252278   6.742   1.425  14.355 -0.7963 -0.5761 -0.0014
10288TIP3    H152279   6.756   1.401  14.263  0.0129  2.6164 -0.7759
10288TIP3    H252280   6.733   1.520  14.354 -0.4235 -0.4434  3.2779
10289TIP3   OH252281   1.574   2.420  11.011 -0.6443  0.2558 -0.0488
10289TIP3    H152282   1.663   2.453  11.006 -0.7185  0.1941 -1.8323
10289TIP3    H252283   1.526   2.466  10.942 -2.1275  0.6712  1.2149
10290TIP3   OH252284   4.253   3.891  15.043 -0.0196 -0.5352 -0.3665
10290TIP3    H152285   4.160   3.913  15.044 -0.2609 -1.3557 -2.4067
10290TIP3    H252286   4.277   3.882  15.135 -1.8631  0.0431  0.1857
10291TIP3   OH252287   1.463   5.741  16.344 -0.4934  0.2883  0.0885
10291TIP3    H152288   1.388   5.710  16.293 -0.7745 -0.8835  1.1914
10291TIP3    H252289   1.470   5.678  16.416  0.0593  1.7803  1.3466
10292TIP3   OH252290   6.233   6.057   3.127  0.0810 -0.2350  0.3587
10292TIP3    H152291   6.249   6.090   3.215 -0.2016 -0.5197  0.5178
10292TIP3    H252292   6.290   5.981   3.120  2.0171  1.2742 -0.6191
10293TIP3   OH252293   3.709   1.406  16.680  0.0697  0.2522 -0.2849
10293TIP3    H152294   3.665   1.454  16.750  0.8824  0.4322  0.1090
10293TIP3    H252295   3.647   1.337  16.656 -0.2999  0.3148  0.4715
10294TIP3   OH252296   5.854   6.767  13.978  0.4444 -0.6171 -0.2461
10294TIP3    H152297   5.887   6.690  14.024 -0.8676 -1.3825 -0.5756
10294TIP3    H252298   5.911   6.776  13.902  1.9790  0.0552  0.9465
10295TIP3   OH252299   2.850   2.874   2.313 -0.1249 -0.3208 -0.2765
10295TIP3    H152300   2.910   2.816   2.359 -0.3071 -1.2739 -1.2130
10295TIP3    H252301   2.797   2.915   2.382  0.4829 -0.7323  0.4320
10296TIP3   OH252302   6.144   5.445  14.395  0.8227 -0.0828  0.1283
10296TIP3    H152303   6.145   5.537  14.369  1.0650 -0.0580  0.2204
10296TIP3    H252304   6.170   5.398  14.315 -0.5186 -0.1624 -0.2650
10297TIP3   OH252305   1.755   3.754  12.694  0.1307  0.1119  0.0207
10297TIP3    H152306   1.825   3.710  12.742  1.1664  1.8912  0.1664
10297TIP3    H252307   1.704   3.798  12.761  0.8574  1.5788 -0.3701
10298TIP3   OH252308   3.939   1.268  16.060 -0.1750  0.6068 -0.2893
10298TIP3    H152309   3.908   1.267  16.150  0.7806  3.0675  0.0971
10298TIP3    H252310   4.023   1.220  16.063 -1.0645 -0.9884 -0.2572
10299TIP3   OH252311   3.050   1.543   2.462 -0.4511 -0.1427 -0.3060
10299TIP3    H152312   3.092   1.628   2.478 -0.3036 -0.1473 -0.6570
10299TIP3    H252313   2.957   1.560   2.476 -0.3134 -0.1853  0.6828
10300TIP3   OH252314   0.853   6.728  14.716  0.2319  0.0296  0.0536
10300TIP3    H152315   0.831   6.661  14.781 -2.6113  1.3690  0.5508
10300TIP3    H252316   0.836   6.686  14.631 -1.4657  0.0803  0.3608
10301TIP3   OH252317   2.184   2.210  10.965  0.3027  0.8684 -0.3395
10301TIP3    H152318   2.158   2.146  11.031  1.7253  1.1700  0.5394
10301TIP3    H252319   2.124   2.283  10.977  0.0000  0.5623  0.0273
10302TIP3   OH252320   5.588   4.963  11.300  0.1024 -0.4217 -0.1882
10302TIP3    H152321   5.567   5.056  11.300  1.5402  0.0065 -4.3086
10302TIP3    H252322   5.539   4.927  11.226 -0.0722 -2.8712  1.0558
10303TIP3   OH252323   3.429   3.062  15.825 -0.1024 -0.3661 -0.0023
10303TIP3    H152324   3.507   3.116  15.837 -0.0213 -0.8260  1.7429
10303TIP3    H252325   3.451   3.002  15.754  1.5234 -1.1501  1.1186
10304TIP3   OH252326   5.195   1.129   3.976 -0.4738  0.6759 -0.3658
10304TIP3    H152327   5.273   1.185   3.970 -0.6006  0.7819 -1.1830
10304TIP3    H252328   5.229   1.040   3.970 -0.5401  0.7571 -2.6183
10305TIP3   OH252329   2.688   3.711  14.163  0.3146  1.1441  0.8328
10305TIP3    H152330   2.692   3.807  14.171 -0.0493  1.1770  0.6216
10305TIP3    H252331   2.604   3.687  14.201 -0.6107  1.1222 -1.1566
10306TIP3   OH252332   4.350   2.916  13.292 -0.0363  0.3927 -0.0628
10306TIP3    H152333   4.384   2.868  13.216  2.0726  1.4176  0.1937
10306TIP3    H252334   4.425   2.921  13.352 -1.2628  0.8884  1.4417
10307TIP3   OH252335   5.615   6.433   1.755  0.2238 -0.4481 -0.3011
10307TIP3    H152336   5.552   6.418   1.685  0.8526  1.1400 -1.2445
10307TIP3    H252337   5.578   6.390   1.831 -2.1827  0.7590 -0.7491
10308TIP3   OH252338   1.713   1.541   6.149  0.2662  0.4553  0.5127
10308TIP3    H152339   1.658   1.616   6.126 -0.7771 -0.1887  0.8546
10308TIP3    H252340   1.697   1.527   6.243 -0.5913 -1.0071  0.1762
10309TIP3   OH252341   2.666   0.634   3.948  0.3402  0.6785  0.3118
10309TIP3    H152342   2.676   0.681   3.865 -0.0498 -0.1953 -0.2389
10309TIP3    H252343   2.585   0.668   3.985 -0.3283 -0.0614 -0.4352
10310TIP3   OH252344   3.088   2.478  15.782  0.5089  0.9507  0.2391
10310TIP3    H152345   3.029   2.550  15.804 -0.9710  0.2104 -1.2504
10310TIP3    H252346   3.094   2.427  15.863  0.7164  2.1324  0.9848
10311TIP3   OH252347   0.226   3.057   4.751  0.0899  0.4522  0.1493
10311TIP3    H152348   0.212   3.078   4.659 -0.7515  1.8706  0.5775
10311TIP3    H252349   0.208   3.139   4.797 -0.4912 -0.4972  1.6556
10312TIP3   OH252350   3.164   0.789   2.552  0.4263  0.5337 -0.0099
10312TIP3    H152351   3.205   0.798   2.638 -0.4453  1.7678  0.2877
10312TIP3    H252352   3.202   0.859   2.499 -0.0244  0.6189 -0.2308
10313TIP3   OH252353   5.356   1.398   2.494 -0.6556  0.3095  0.5997
10313TIP3    H152354   5.410   1.440   2.561 -2.8460  1.3810  1.7524
10313TIP3    H252355   5.308   1.470   2.453 -2.0173 -0.7243  0.3416
10314TIP3   OH252356   1.949   2.085   0.881  0.1406  0.3852 -0.7064
10314TIP3    H152357   1.901   2.138   0.945 -2.1896 -1.9272 -0.4294
10314TIP3    H252358   2.031   2.062   0.925 -0.6380  0.3481  0.7526
10315TIP3   OH252359   5.939   4.531   3.743 -0.0450  0.0646 -0.6631
10315TIP3    H152360   5.932   4.436   3.732  0.9571 -0.3776  2.1048
10315TIP3    H252361   6.031   4.550   3.725 -0.2322  0.5282 -1.1555
10316TIP3   OH252362   4.221   0.614   5.098  0.5170 -0.2903 -0.0793
10316TIP3    H152363   4.226   0.575   5.185 -0.1582 -0.7864 -0.2550
10316TIP3    H252364   4.305   0.656   5.086  0.4208  0.2328  1.0251
10317TIP3   OH252365   1.544   2.492   3.947  0.1079 -0.5095 -0.1929
10317TIP3    H152366   1.569   2.489   4.039 -1.8301  0.5772  0.3910
10317TIP3    H252367   1.527   2.585   3.929  2.1254 -0.4600 -2.1210
10318TIP3   OH252368   1.800   6.720   1.529  0.4925 -0.4214 -0.0495
10318TIP3    H152369   1.728   6.734   1.468 -0.2903 -1.4028  0.6386
10318TIP3    H252370   1.860   6.661   1.482  0.3936 -0.3419 -0.2728
10319TIP3   OH252371   1.418   0.110   0.275  0.2384 -0.1520 -0.1647
10319TIP3    H152372   1.465   0.061   0.343  0.4934 -0.2641 -0.4195
10319TIP3    H252373   1.482   0.120   0.205  0.3448  0.9877  0.0923
10320TIP3   OH252374   3.077   1.940   1.413  0.5457  0.1869 -0.3871
10320TIP3    H152375   3.117   1.943   1.326  1.8419  0.8330  0.2181
10320TIP3    H252376   3.131   1.998   1.466 -0.4503  0.0702  0.7654
10321TIP3   OH252377   5.347   5.100  15.913  0.2371  0.5670  0.2363
10321TIP3    H152378   5.329   5.134  16.001  0.2854 -1.8274  1.2032
10321TIP3    H252379   5.264   5.061  15.885  0.5811  0.1651 -0.2368
10322TIP3   OH252380   3.954   3.650   5.173 -0.0507  0.1569 -0.7782
10322TIP3    H152381   4.046   3.639   5.149  0.1118 -0.6447  0.1750
10322TIP3    H252382   3.914   3.694   5.097  1.3319  1.4748 -0.7625
10323TIP3   OH252383   0.460   1.293  14.654  0.7848 -0.1849  0.3362
10323TIP3    H152384   0.390   1.228  14.663  0.3661  0.4035  1.3949
10323TIP3    H252385   0.537   1.242  14.627  1.1567 -1.5360  3.7552
10324TIP3   OH252386   5.440   1.660  17.061  0.3261 -0.1009  0.3049
10324TIP3    H152387   5.380   1.632  17.131 -1.4375  0.3685 -0.9915
10324TIP3    H252388   5.384   1.702  16.997  1.9366 -0.5064 -1.4092
10325TIP3   OH252389   4.813   5.124   4.699 -0.0874  0.0310 -0.4920
10325TIP3    H152390   4.872   5.049   4.693 -0.0150  0.1237 -0.9322
10325TIP3    H252391   4.871   5.199   4.708 -0.1750 -0.0353  0.7150
10326TIP3   OH252392   3.352   2.499   4.677  1.1188 -0.9038 -0.5917
10326TIP3    H152393   3.334   2.565   4.609  1.6888 -2.4822 -2.3277
10326TIP3    H252394   3.397   2.429   4.630  2.0369 -1.7891  1.5568
10327TIP3   OH252395   6.014   0.332  13.937 -0.0281 -0.3097  0.1072
10327TIP3    H152396   6.032   0.254  13.884  2.5395 -0.2967  0.8918
10327TIP3    H252397   6.025   0.303  14.027 -0.7812  0.5481  0.4822
10328TIP3   OH252398   2.066   4.015  16.319  0.3188 -0.7007  0.6922
10328TIP3    H152399   2.022   4.015  16.404 -0.9397  0.4728  0.0563
10328TIP3    H252400   1.997   3.996  16.256  1.0926 -0.7770 -0.1408
10329TIP3   OH252401   2.682   4.669   5.444  0.3396 -0.1351  0.1742
10329TIP3    H152402   2.615   4.736   5.426 -0.7984 -1.6855 -1.5320
10329TIP3    H252403   2.764   4.711   5.417 -0.6061 -0.1201 -2.9181
10330TIP3   OH252404   5.077   5.336   4.343 -0.0594  0.3014 -0.3312
10330TIP3    H152405   4.989   5.376   4.341  0.5227  1.6269 -0.1091
10330TIP3    H252406   5.137   5.410   4.336  1.0795 -0.4330  1.2580
10331TIP3   OH252407   1.142   6.739  14.114  0.3397 -0.3432 -0.1112
10331TIP3    H152408   1.109   6.678  14.048 -0.6744 -0.7865  0.7746
10331TIP3    H252409   1.165   6.683  14.189  0.5118  0.2452  0.2790
10332TIP3   OH252410   3.524   4.017   5.388 -0.6916 -0.3662  0.0883
10332TIP3    H152411   3.460   3.950   5.362 -1.6015  0.7173 -0.5046
10332TIP3    H252412   3.586   3.970   5.444 -1.3111 -1.7101 -0.3233
10333TIP3   OH252413   3.875   0.442  11.682  0.1441  1.4202 -0.5133
10333TIP3    H152414   3.797   0.396  11.709  0.7803  0.8028  0.2843
10333TIP3    H252415   3.911   0.389  11.610  0.6614  0.8815  0.1407
10334TIP3   OH252416   3.255   4.799   3.777 -0.1873 -0.1973  0.9076
10334TIP3    H152417   3.307   4.868   3.737  0.7469 -0.8894  0.9132
10334TIP3    H252418   3.208   4.843   3.848 -0.9777  0.7954 -0.2039
10335TIP3   OH252419   1.260   2.152   2.553  0.0685  0.2312  0.3632
10335TIP3    H152420   1.250   2.242   2.583  1.8794  0.9272 -1.0496
10335TIP3    H252421   1.353   2.143   2.531 -0.6192 -1.0613 -2.3316
10336TIP3   OH252422   2.428   4.434   0.147  0.1770  0.1406 -0.3013
10336TIP3    H152423   2.429   4.378   0.225 -0.1567  3.1387  1.9472
10336TIP3    H252424   2.386   4.514   0.176  0.1905  1.4012 -3.5768
10337TIP3   OH252425   5.758   4.053  14.158  0.1965 -0.0206  0.3075
10337TIP3    H152426   5.669   4.018  14.160  0.5858 -1.0342  0.3133
10337TIP3    H252427   5.778   4.066  14.065  0.3972 -0.7217  0.2526
10338TIP3   OH252428   3.848   3.480  11.695 -0.4652  0.4074  0.1658
10338TIP3    H152429   3.776   3.542  11.707  0.1636  0.7474  2.3650
10338TIP3    H252430   3.826   3.407  11.752 -1.6699 -1.8710 -3.1118
10339TIP3   OH252431   6.250   3.011  14.947  0.1997 -0.6149  0.3472
10339TIP3    H152432   6.254   3.073  15.021 -1.6643  1.5476 -1.2560
10339TIP3    H252433   6.162   3.025  14.910  0.8965 -2.0586 -1.9326
10340TIP3   OH252434   2.015   5.899  13.381 -0.3396  0.4258  0.6196
10340TIP3    H152435   2.000   5.814  13.340  0.1041 -0.3542  2.0440
10340TIP3    H252436   2.075   5.944  13.321  0.1170 -0.5990  0.2951
10341TIP3   OH252437   0.396   5.437  11.396 -0.1145 -0.0635  0.3541
10341TIP3    H152438   0.474   5.459  11.347 -1.1139  0.4930 -1.0129
10341TIP3    H252439   0.382   5.512  11.454  1.1917 -0.8219  1.7040
10342TIP3   OH252440   0.924   1.395  15.511 -0.1310  0.3289  0.0263
10342TIP3    H152441   0.908   1.302  15.525  0.5043  0.1866 -0.1511
10342TIP3    H252442   0.922   1.406  15.416 -0.9375  0.6335  0.0797
10343TIP3   OH252443   1.322   3.397   0.728 -0.9925 -0.5067 -0.1080
10343TIP3    H152444   1.293   3.316   0.769  0.1374 -1.0647 -0.4051
10343TIP3    H252445   1.256   3.416   0.661 -0.8070 -1.6240 -0.6071
10344TIP3   OH252446   6.511   5.529   3.119 -0.8435  0.2042 -0.1053
10344TIP3    H152447   6.565   5.518   3.041 -1.0034  0.5171 -0.2616
10344TIP3    H252448   6.444   5.460   3.110 -0.6688  0.0297 -0.0782
10345TIP3   OH252449   6.095   3.492   0.560  0.6449  0.9798 -0.5848
10345TIP3    H152450   6.015   3.473   0.609  0.9657 -1.1506 -0.8552
10345TIP3    H252451   6.127   3.574   0.597 -1.2455  1.4525  0.0560
10346TIP3   OH252452   3.895   1.455   0.913  0.4399  0.8957 -0.3224
10346TIP3    H152453   3.873   1.505   0.835  3.2793 -0.5512 -2.1308
10346TIP3    H252454   3.918   1.522   0.978 -0.4956  2.0690 -1.1763
10347TIP3   OH252455   3.376   4.000  15.318  0.1232 -0.0857 -0.1551
10347TIP3    H152456   3.391   4.018  15.225 -0.2924  1.0104 -0.0209
10347TIP3    H252457   3.461   3.972  15.351  0.9056  2.0343 -0.3016
10348TIP3   OH252458   1.115   5.313   0.177  0.2669  0.1097 -0.1006
10348TIP3    H152459   1.140   5.364   0.254  1.9446  0.6056 -0.9454
10348TIP3    H252460   1.050   5.367   0.132 -0.9431 -0.3129  1.0934
10349TIP3   OH252461   5.214   4.524   2.441 -0.2929 -0.4117 -0.7030
10349TIP3    H152462   5.169   4.564   2.515 -2.4328 -0.4816 -1.9313
10349TIP3    H252463   5.195   4.431   2.448  1.5814 -0.7602  0.0432
10350TIP3   OH252464   0.521   6.702   1.201 -0.1901 -0.4256 -0.4482
10350TIP3    H152465   0.452   6.749   1.155  0.3560 -1.0217 -1.9123
10350TIP3    H252466   0.511   6.727   1.293  0.1391  2.5585 -1.1998
10351TIP3   OH252467   0.377   0.202  13.183 -0.2595  0.5955  0.1618
10351TIP3    H152468   0.379   0.141  13.110  0.1560  1.9482 -0.9842
10351TIP3    H252469   0.312   0.268  13.157 -1.0537  0.3932  1.5855
10352TIP3   OH252470   4.208   2.860   5.430  0.3927  0.0004  0.1565
10352TIP3    H152471   4.129   2.808   5.444  0.6241 -0.3011  0.3586
10352TIP3    H252472   4.180   2.934   5.377 -0.0917  0.0653  0.5063
10353TIP3   OH252473   1.201   5.125  14.261 -0.2825 -0.4702 -0.0163
10353TIP3    H152474   1.237   5.178  14.190  0.8554 -0.0241  0.8766
10353TIP3    H252475   1.276   5.106  14.317 -0.8612 -2.2350  0.1869
10354TIP3   OH252476   5.045   4.617   2.896  0.4636  0.1817  0.1138
10354TIP3    H152477   5.051   4.599   2.990 -0.9831  0.2189  0.2138
10354TIP3    H252478   4.990   4.695   2.889 -1.8647 -1.4987 -0.8991
10355TIP3   OH252479   4.172   3.724  10.839 -0.0844  0.2557  0.7659
10355TIP3    H152480   4.259   3.698  10.810 -0.6733 -0.6192 -0.2719
10355TIP3    H252481   4.157   3.808  10.797  0.1440  0.2722  0.7171
10356TIP3   OH252482   4.853   1.878   1.360  0.5056 -0.1420 -0.4731
10356TIP3    H152483   4.843   1.851   1.269  0.7601  2.4554 -1.3281
10356TIP3    H252484   4.948   1.875   1.375  0.3910 -1.4481 -0.0051
10357TIP3   OH252485   4.019   0.584  16.577 -0.2737 -0.5606 -0.3842
10357TIP3    H152486   4.018   0.643  16.502 -2.7076 -0.7687 -0.5356
10357TIP3    H252487   4.068   0.507  16.545  3.4159  1.4817  0.0030
10358TIP3   OH252488   0.280   0.101  13.657 -0.6587  0.2331  0.1288
10358TIP3    H152489   0.242   0.104  13.569 -0.3133  0.6384 -0.0098
10358TIP3    H252490   0.226   0.038  13.704 -0.5526 -0.3350 -0.5108
10359TIP3   OH252491   4.737   5.723  11.752  0.3788  0.0174  0.0904
10359TIP3    H152492   4.818   5.736  11.703  0.3466 -2.6041 -0.7691
10359TIP3    H252493   4.765   5.691  11.838  0.3092  0.2624  0.2025
10360TIP3   OH252494   6.116   2.445  11.044 -0.1832  0.1334 -0.3920
10360TIP3    H152495   6.085   2.415  10.959 -0.0022  2.8040 -1.4308
10360TIP3    H252496   6.209   2.422  11.046 -0.4889 -1.1684 -0.3078
10361TIP3   OH252497   6.454   1.409  14.525  0.5073 -0.1103  0.0766
10361TIP3    H152498   6.405   1.491  14.513  1.1072  0.4131  1.0734
10361TIP3    H252499   6.530   1.435  14.577  0.2215 -1.4796  1.1843
10362TIP3   OH252500   1.097   4.513   0.852  0.7275  0.1405 -0.0661
10362TIP3    H152501   1.127   4.590   0.804  0.5475 -0.6231 -1.4247
10362TIP3    H252502   1.060   4.455   0.785 -0.5473 -0.4620  1.1288
10363TIP3   OH252503   6.073   5.963  11.642 -0.0807 -0.3208  0.5488
10363TIP3    H152504   6.161   5.937  11.615 -0.4008  0.8816 -1.7789
10363TIP3    H252505   6.016   5.896  11.604 -0.5265  1.3304 -1.8101
10364TIP3   OH252506   1.682   3.932   6.250  0.0290  0.0430  0.2988
10364TIP3    H152507   1.733   3.852   6.264  0.9414  0.7537  1.1628
10364TIP3    H252508   1.732   4.001   6.295 -0.0737  1.3364 -1.5052
10365TIP3   OH252509   2.581   5.648  11.654 -0.2930  0.0587 -0.1366
10365TIP3    H152510   2.654   5.695  11.614  0.0922 -0.0762  0.4029
10365TIP3    H252511   2.588   5.559  11.620  0.2432 -0.1450  0.5059
10366TIP3   OH252512   2.253   6.627  15.296 -0.7155  0.4353 -0.0342
10366TIP3    H152513   2.166   6.618  15.335 -0.2443 -0.1008  0.9233
10366TIP3    H252514   2.301   6.551  15.329  0.3226  1.0993 -0.0076
10367TIP3   OH252515   0.967   5.234  10.459 -0.3686  0.4247  0.0077
10367TIP3    H152516   0.888   5.204  10.505 -1.5771 -0.7512 -2.7471
10367TIP3    H252517   1.038   5.181  10.497 -1.5062 -1.3479 -0.2698
10368TIP3   OH252518   3.065   2.702  13.799  0.0246  0.1799  0.0870
10368TIP3    H152519   3.145   2.736  13.839  0.7438 -1.0322 -0.2913
10368TIP3    H252520   3.034   2.773  13.743  1.8857 -0.0123 -1.2357
10369TIP3   OH252521   1.776   4.002   2.205  0.2493 -0.3216 -0.9348
10369TIP3    H152522   1.682   4.014   2.196  0.5584  1.9362 -1.5245
10369TIP3    H252523   1.794   3.917   2.166 -1.4328 -0.3705 -1.6148
10370TIP3   OH252524   5.844   3.307   5.996 -0.0579 -0.3928  0.1634
10370TIP3    H152525   5.794   3.229   5.973  0.1696 -0.7570  0.8944
10370TIP3    H252526   5.920   3.274   6.044  0.3248  0.2385  0.0001
10371TIP3   OH252527   4.788   3.358  14.997  0.2691  0.8977 -0.2017
10371TIP3    H152528   4.769   3.282  14.941 -1.1734  0.8522  0.3329
10371TIP3    H252529   4.866   3.332  15.047 -0.8943 -0.6953  0.8232
10372TIP3   OH252530   2.969   1.608  15.367  0.3451  0.0038 -0.3297
10372TIP3    H152531   2.915   1.682  15.396 -0.9111 -0.0984 -2.3577
10372TIP3    H252532   3.056   1.628  15.402 -0.9144  0.2256  2.8709
10373TIP3   OH252533   1.192   2.835   0.444  0.0567  0.1008 -0.1492
10373TIP3    H152534   1.113   2.884   0.468  1.6303  2.9359 -0.5598
10373TIP3    H252535   1.250   2.843   0.519  0.6271 -0.5437 -0.5142
10374TIP3   OH252536   1.839   0.916  16.724 -0.5374  0.4220 -0.5141
10374TIP3    H152537   1.918   0.955  16.762 -1.4311  0.6288  1.1778
10374TIP3    H252538   1.857   0.822  16.724 -0.5947  0.4010  0.6354
10375TIP3   OH252539   0.514   3.384  11.755 -0.3028 -0.0187  0.5969
10375TIP3    H152540   0.427   3.369  11.792 -0.4399 -0.8307 -0.0397
10375TIP3    H252541   0.509   3.347  11.667 -0.0318  2.0581 -0.3140
10376TIP3   OH252542   5.203   4.329  10.277  0.5008 -0.3156  0.5859
10376TIP3    H152543   5.118   4.288  10.265  0.3520  0.6126 -1.8740
10376TIP3    H252544   5.197   4.372  10.362 -1.6511  0.0827  0.2688
10377TIP3   OH252545   4.114   0.207   4.210 -1.0875 -0.2831  0.0646
10377TIP3    H152546   4.131   0.136   4.271  1.3051 -0.3060 -0.6086
10377TIP3    H252547   4.032   0.182   4.166 -1.0191 -1.8988  0.8366
10378TIP3   OH252548   1.615   2.857   4.855 -0.3735  1.0054 -0.1716
10378TIP3    H152549   1.680   2.858   4.925 -1.4150  0.1657  0.8305
10378TIP3    H252550   1.547   2.917   4.885 -2.3041 -1.6701  1.0333
10379TIP3   OH252551   5.003   3.709  12.891  0.0815 -0.1682 -0.9210
10379TIP3    H152552   5.082   3.714  12.944  0.6402 -0.8344 -1.6667
10379TIP3    H252553   4.933   3.690  12.953  0.4351  0.8572 -0.2000
10380TIP3   OH252554   3.239   2.326  11.900  0.2800  0.2559  0.8322
10380TIP3    H152555   3.210   2.401  11.848  0.8170  1.0507  1.6581
10380TIP3    H252556   3.279   2.365  11.977 -1.6379 -0.9044  2.4800
10381TIP3   OH252557   6.673   4.286   1.603 -0.5265  0.3109  0.6808
10381TIP3    H152558   6.764   4.277   1.633 -0.9466 -0.0595  1.8657
10381TIP3    H252559   6.623   4.228   1.660 -1.4003 -0.1687 -0.5521
10382TIP3   OH252560   1.261   1.392  14.109  0.4267 -0.1149  0.7393
10382TIP3    H152561   1.339   1.339  14.127  1.4171  0.7089 -0.9783
10382TIP3    H252562   1.198   1.365  14.176  1.8862 -1.4043  1.6434
10383TIP3   OH252563   0.486   3.188   4.928 -0.0520 -0.1745  0.5440
10383TIP3    H152564   0.450   3.103   4.953  0.9818 -0.9379 -0.5342
10383TIP3    H252565   0.424   3.252   4.965 -1.1690 -1.3995  0.8284
10384TIP3   OH252566   3.466   4.744   2.221 -0.2059 -0.0034  0.0976
10384TIP3    H152567   3.390   4.686   2.230 -0.5222  0.4471  0.3705
10384TIP3    H252568   3.541   4.685   2.217 -0.5078 -0.4291  0.5669
10385TIP3   OH252569   0.474   1.758  14.204 -0.2358 -0.0826  0.0893
10385TIP3    H152570   0.524   1.839  14.191  0.4473 -0.6009 -0.5716
10385TIP3    H252571   0.477   1.714  14.119  1.5069 -1.9635  1.0652
10386TIP3   OH252572   0.785   4.188  17.166  0.2695  0.1044 -0.1893
10386TIP3    H152573   0.707   4.147  17.202  1.0992 -1.4536 -0.0997
10386TIP3    H252574   0.798   4.267  17.219 -0.6091 -0.2256  0.5277
10387TIP3   OH252575   5.526   1.098   4.261  0.3632  0.0167  0.2729
10387TIP3    H152576   5.439   1.060   4.270 -0.0459  0.9504  0.3174
10387TIP3    H252577   5.516   1.165   4.194  1.2885 -0.5662 -0.4692
10388TIP3   OH252578   2.181   3.374   0.298  0.2238 -0.8566 -0.1809
10388TIP3    H152579   2.269   3.367   0.261 -0.3274  0.0237 -1.6864
10388TIP3    H252580   2.188   3.334   0.385  2.6437  1.1588  0.6022
10389TIP3   OH252581   3.159   1.337   5.021  0.4348 -0.1950  0.5971
10389TIP3    H152582   3.249   1.359   5.000  0.7736 -0.7527  1.4440
10389TIP3    H252583   3.111   1.420   5.013  0.7553 -0.1574 -1.1833
10390TIP3   OH252584   3.794   4.040   4.353 -0.2374 -0.1310  0.1786
10390TIP3    H152585   3.775   3.948   4.332 -0.7601  0.1125 -0.4037
10390TIP3    H252586   3.761   4.089   4.278 -1.2422  0.6553  1.1165
10391TIP3   OH252587   1.905   4.752   1.565  0.1858  0.0130 -0.0786
10391TIP3    H152588   1.945   4.838   1.561  2.9571 -1.2706 -1.2809
10391TIP3    H252589   1.868   4.739   1.477 -1.5181  0.5527  0.5462
10392TIP3   OH252590   0.992   2.776  15.377 -0.8240  0.5817 -0.0687
10392TIP3    H152591   1.025   2.774  15.467  0.0507  2.5002 -0.3243
10392TIP3    H252592   1.004   2.867  15.349  0.9245 -0.4318 -2.8562
10393TIP3   OH252593   6.586   6.498   0.360  0.1876 -0.0367 -0.3056
10393TIP3    H152594   6.579   6.533   0.271 -0.1544 -0.8813 -0.6123
10393TIP3    H252595   6.506   6.526   0.403 -0.2477 -0.7205 -0.6564
10394TIP3   OH252596   5.092   0.749   0.072 -0.5068 -0.2503  0.2781
10394TIP3    H152597   5.014   0.782   0.025 -1.8714  0.0186  2.6599
10394TIP3    H252598   5.091   0.655   0.056  0.0781  0.0438 -1.6946
10395TIP3   OH252599   4.031   3.922  17.227  0.2499 -0.0460  0.2688
10395TIP3    H152600   4.048   3.929  17.321  0.5942  0.9578  0.1324
10395TIP3    H252601   3.938   3.941  17.217  0.4267  0.8656  0.2995
10396TIP3   OH252602   6.324   1.604   6.278 -0.4522  0.1562  0.2289
10396TIP3    H152603   6.274   1.526   6.305 -3.0592  1.4627 -0.6179
10396TIP3    H252604   6.305   1.669   6.346 -1.2395  1.1789 -0.9506
10397TIP3   OH252605   6.556   5.968   3.367 -0.5767 -0.4499  0.0674
10397TIP3    H152606   6.507   5.887   3.353 -2.0455  0.2303  1.2255
10397TIP3    H252607   6.591   5.989   3.280 -1.5316 -1.4529 -0.5751
10398TIP3   OH252608   3.347   1.761  14.846  0.5219  0.7308  0.3365
10398TIP3    H152609   3.362   1.695  14.778 -4.1568 -0.7401  0.5038
10398TIP3    H252610   3.379   1.720  14.926  2.5730  0.9142 -0.3592
10399TIP3   OH252611   6.618   5.560  11.209  0.1026  0.8226  0.4207
10399TIP3    H152612   6.581   5.547  11.122 -1.2527 -2.1668  1.3492
10399TIP3    H252613   6.590   5.647  11.235 -2.3812  0.4134 -0.7778
10400TIP3   OH252614   1.292   1.513  13.879 -0.1369 -0.2030  0.0782
10400TIP3    H152615   1.281   1.459  13.957  0.3059 -0.6015 -0.1291
10400TIP3    H252616   1.374   1.560  13.894  0.2558 -0.7324 -0.4094
10401TIP3   OH252617   3.395   5.590   1.258 -0.4703  0.4424  0.2278
10401TIP3    H152618   3.374   5.500   1.282 -0.7739  0.8346  1.4944
10401TIP3    H252619   3.310   5.632   1.248 -0.3354  0.4632 -0.8835
10402TIP3   OH252620   4.360   4.841  10.202 -1.0451  0.0878  0.1066
10402TIP3    H152621   4.289   4.905  10.204 -0.8630  0.2994 -0.1129
10402TIP3    H252622   4.371   4.814  10.293 -0.1743  1.4165  0.4165
10403TIP3   OH252623   1.224   2.828   4.116  0.0714 -0.3233 -0.7233
10403TIP3    H152624   1.166   2.760   4.080  0.6114 -0.5924 -1.0852
10403TIP3    H252625   1.260   2.872   4.039 -0.0739  0.2045 -0.4907
10404TIP3   OH252626   3.363   5.418   0.597  0.1733  0.1454 -0.4382
10404TIP3    H152627   3.342   5.458   0.513 -1.6931  0.3299  0.0841
10404TIP3    H252628   3.294   5.448   0.656  1.0098 -0.6083  0.9714
10405TIP3   OH252629   4.294   2.155  12.982 -0.0355  0.0679 -0.1515
10405TIP3    H152630   4.302   2.067  13.018 -3.4473 -0.0471  0.4923
10405TIP3    H252631   4.228   2.148  12.914 -1.5576  2.4150  1.0035
10406TIP3   OH252632   5.790   1.442   1.464  0.0895 -0.5278  0.1526
10406TIP3    H152633   5.881   1.422   1.487  0.0735 -0.7834 -0.0081
10406TIP3    H252634   5.767   1.515   1.521  0.5835 -0.0851 -0.2116
10407TIP3   OH252635   5.645   0.474  16.219  0.0374  0.1121 -0.2733
10407TIP3    H152636   5.574   0.451  16.159 -0.0767  0.9089 -0.4544
10407TIP3    H252637   5.655   0.569  16.209  1.7533 -0.1285 -0.9208
10408TIP3   OH252638   5.288   1.827  11.315  0.2312  0.4714 -0.2321
10408TIP3    H152639   5.311   1.913  11.281 -0.7725  1.0089  0.4554
10408TIP3    H252640   5.234   1.788  11.246  1.3041  0.0798 -0.8719
10409TIP3   OH252641   0.315   5.192   4.167 -0.4005  0.0631 -0.9804
10409TIP3    H152642   0.298   5.150   4.083 -0.5362 -1.5203 -0.1846
10409TIP3    H252643   0.283   5.130   4.232  2.8990 -0.3447  0.3801
10410TIP3   OH252644   0.626   3.908   3.507  0.0792  0.0331 -0.1367
10410TIP3    H152645   0.595   3.914   3.598 -1.5793 -0.4059 -0.6560
10410TIP3    H252646   0.640   3.999   3.481 -0.2419  0.2072  0.2914
10411TIP3   OH252647   0.195   3.290   2.924  0.0946  0.6674 -0.5821
10411TIP3    H152648   0.225   3.256   3.008  0.6819  1.7614 -0.3333
10411TIP3    H252649   0.177   3.213   2.871  1.0432 -0.0157  0.0834
10412TIP3   OH252650   6.440   5.951  12.955  0.1961 -0.0806  0.2724
10412TIP3    H152651   6.529   5.928  12.926  0.4819  0.1494  0.9470
10412TIP3    H252652   6.383   5.888  12.911  0.8681 -1.3829  1.2327
10413TIP3   OH252653   5.703   1.169   2.505  0.5343  0.3504  0.5859
10413TIP3    H152654   5.650   1.200   2.432 -0.9696 -1.1430  1.0132
10413TIP3    H252655   5.739   1.249   2.544  2.7704  1.0733 -2.8069
10414TIP3   OH252656   6.751   2.750   3.500 -0.4493 -0.1995  0.5321
10414TIP3    H152657   6.807   2.695   3.555 -0.2452  0.0381  0.5575
10414TIP3    H252658   6.766   2.718   3.411 -0.2359 -0.1000  0.5324
10415TIP3   OH252659   2.299   0.386  11.976  0.3254 -0.4229 -1.0503
10415TIP3    H152660   2.315   0.293  11.987  0.3390 -0.2999 -0.0183
10415TIP3    H252661   2.209   0.391  11.943  0.0395 -0.7553 -0.3233
10416TIP3   OH252662   1.628   5.183   0.381 -0.0879 -0.2447  0.4308
10416TIP3    H152663   1.571   5.259   0.371 -0.0861 -0.4396 -1.2782
10416TIP3    H252664   1.575   5.109   0.351  0.2939 -0.7622  1.0066
10417TIP3   OH252665   5.334   3.906   1.051 -0.0841  0.4576  0.0379
10417TIP3    H152666   5.335   3.823   1.100 -1.6882 -0.1683 -0.9762
10417TIP3    H252667   5.347   3.973   1.118  3.0552 -0.6603  0.6728
10418TIP3   OH252668   2.923   3.536   5.800  0.4436 -0.1745 -0.1050
10418TIP3    H152669   3.011   3.573   5.797 -1.1710  3.9744 -0.0767
10418TIP3    H252670   2.901   3.533   5.893 -1.0624  3.2707 -0.2444
10419TIP3   OH252671   2.497   4.179   3.116  0.1961 -0.3939  0.4744
10419TIP3    H152672   2.460   4.266   3.132  1.2868 -0.0175  0.9597
10419TIP3    H252673   2.570   4.172   3.177 -0.8107 -2.2565  1.5089
10420TIP3   OH252674   4.471   1.717  12.165  0.2347  0.0480  0.8040
10420TIP3    H152675   4.492   1.691  12.255 -0.9842  0.4583  1.2179
10420TIP3    H252676   4.382   1.684  12.151 -0.4193  1.9086  0.5069
10421TIP3   OH252677   2.431   6.465  15.480 -0.1398  0.0535 -0.5055
10421TIP3    H152678   2.422   6.391  15.421  0.8921 -1.3724  1.1016
10421TIP3    H252679   2.518   6.501  15.462  0.0380 -0.1728 -0.1191
10422TIP3   OH252680   5.775   3.787   4.967 -0.0760 -0.1979 -0.0495
10422TIP3    H152681   5.825   3.869   4.970  0.0205 -0.2920  1.0651
10422TIP3    H252682   5.691   3.812   4.928 -0.3404  0.5964  1.0151
10423TIP3   OH252683   0.577   2.058  11.540 -0.4782  0.0211 -0.2320
10423TIP3    H152684   0.636   1.984  11.555 -0.1854  0.5832  1.4630
10423TIP3    H252685   0.508   2.047  11.605 -0.5227  1.1420 -0.0812
10424TIP3   OH252686   0.333   3.333   4.550 -0.2216 -0.8907  0.0985
10424TIP3    H152687   0.307   3.274   4.480  0.1284 -0.9302  0.0003
10424TIP3    H252688   0.257   3.337   4.608 -0.8860 -0.0800 -0.7955
10425TIP3   OH252689   5.176   3.925   2.774  0.3244 -0.2878 -0.4027
10425TIP3    H152690   5.218   3.839   2.774 -0.4867 -0.6941 -0.9390
10425TIP3    H252691   5.135   3.931   2.861  0.6592 -0.3025 -0.2436
10426TIP3   OH252692   4.375   0.946  16.232  0.2471 -0.0877  0.6603
10426TIP3    H152693   4.458   0.993  16.221 -0.1794  0.6910  0.6880
10426TIP3    H252694   4.310   1.004  16.194 -0.2232 -0.9222  0.1882
10427TIP3   OH252695   0.274   4.066   1.797  0.2421  0.1689  0.2770
10427TIP3    H152696   0.236   4.019   1.723 -0.8559  2.3195 -0.5495
10427TIP3    H252697   0.369   4.057   1.784  0.0626 -1.2344 -0.2148
10428TIP3   OH252698   2.380   6.378  16.970  0.7237 -0.6580  0.0566
10428TIP3    H152699   2.375   6.306  17.033 -3.0202 -0.4973  0.0517
10428TIP3    H252700   2.332   6.345  16.894 -2.9547  2.5602  0.8606
10429TIP3   OH252701   4.722   1.321  13.231  0.5274 -0.1761 -0.3791
10429TIP3    H152702   4.628   1.301  13.222  0.3668 -0.3256  1.3793
10429TIP3    H252703   4.766   1.259  13.173 -0.4976  0.3770 -1.7785
10430TIP3   OH252704   2.744   4.161   6.483  0.5447  0.4065  0.1038
10430TIP3    H152705   2.686   4.128   6.414  1.1613 -2.2604  0.8407
10430TIP3    H252706   2.701   4.241   6.513 -1.4942 -0.2177 -1.0290
10431TIP3   OH252707   3.626   5.422  15.213 -0.2213 -0.1476  0.2446
10431TIP3    H152708   3.706   5.426  15.265 -0.4326  0.4021  0.5343
10431TIP3    H252709   3.656   5.431  15.122 -0.0688  1.4699  0.4394
10432TIP3   OH252710   0.324   4.932  16.455 -0.1168  0.3022 -0.1608
10432TIP3    H152711   0.242   4.980  16.459 -0.1099  0.3668 -0.7496
10432TIP3    H252712   0.299   4.840  16.469 -0.3361  0.2754 -0.7126
10433TIP3   OH252713   4.987   3.378   2.931  0.1114 -0.5739 -0.1997
10433TIP3    H152714   4.903   3.362   2.973  0.9454  0.8332  2.0492
10433TIP3    H252715   5.036   3.296   2.942  0.1468 -0.3698  1.1537
10434TIP3   OH252716   5.676   3.426   3.398  0.0195 -0.8351  0.3652
10434TIP3    H152717   5.754   3.388   3.439  0.0247 -0.2539  0.9039
10434TIP3    H252718   5.709   3.497   3.344 -0.2280  0.1018  1.4323
10435TIP3   OH252719   3.439   4.523   2.012 -0.2351  0.0907  0.3665
10435TIP3    H152720   3.463   4.477   2.093  0.5584 -0.0785  0.0440
10435TIP3    H252721   3.505   4.591   2.004  1.0357 -1.3094 -1.3170
10436TIP3   OH252722   0.738   1.629  13.359 -0.2889 -0.1583  0.4520
10436TIP3    H152723   0.686   1.699  13.398 -0.9319 -0.5723  0.3445
10436TIP3    H252724   0.673   1.565  13.328  0.3030 -0.9568  0.8398
10437TIP3   OH252725   3.718   4.392   1.848 -0.0452 -0.4036 -0.7991
10437TIP3    H152726   3.698   4.387   1.755  2.0041 -1.3690 -1.2171
10437TIP3    H252727   3.662   4.326   1.889 -0.6866 -0.2248 -1.3907
10438TIP3   OH252728   2.654   6.608  14.590 -0.2634 -0.6811 -0.4490
10438TIP3    H152729   2.575   6.647  14.628  0.5336  1.0116 -0.4915
10438TIP3    H252730   2.685   6.546  14.657 -0.3274  0.3557  0.5489
10439TIP3   OH252731   1.835   5.052  16.502  0.1757 -0.2483  0.4946
10439TIP3    H152732   1.912   5.058  16.445 -1.4070 -1.7318 -1.8710
10439TIP3    H252733   1.780   5.125  16.474 -0.4200 -0.7197  0.4529
10440TIP3   OH252734   5.252   2.184  15.251  0.2020  0.1004  0.0469
10440TIP3    H152735   5.217   2.122  15.315  0.5450 -0.8267 -0.6445
10440TIP3    H252736   5.287   2.129  15.181  0.5718  1.0789 -0.5550
10441TIP3   OH252737   6.055   5.840   3.724  0.1033 -0.1175  0.3058
10441TIP3    H152738   5.971   5.877   3.752 -0.4213  0.3578 -1.8478
10441TIP3    H252739   6.107   5.838   3.804 -1.3750  1.1827  1.3440
10442TIP3   OH252740   4.169   2.788  12.447  0.4911 -0.1265  0.2104
10442TIP3    H152741   4.115   2.844  12.391  0.1938 -0.9785 -0.3549
10442TIP3    H252742   4.228   2.849  12.492 -0.7713  0.7850  0.6475
10443TIP3   OH252743   6.699   3.218   4.694  0.4760 -0.2168 -0.2795
10443TIP3    H152744   6.707   3.144   4.635  2.1462 -1.7191  1.7283
10443TIP3    H252745   6.743   3.290   4.649  2.2284 -1.4825 -0.6097
10444TIP3   OH252746   3.741   5.583  11.463  0.3233  0.0370  0.2485
10444TIP3    H152747   3.707   5.663  11.503 -0.6135  0.9933 -2.3810
10444TIP3    H252748   3.814   5.612  11.409 -0.0499 -0.8843 -0.7622
10445TIP3   OH252749   2.051   2.209   5.608  0.1265 -0.4970 -0.3318
10445TIP3    H152750   2.019   2.299   5.609 -1.8993 -1.2039 -0.8829
10445TIP3    H252751   2.058   2.185   5.701  2.4128  0.7923 -0.1139
10446TIP3   OH252752   3.381   0.232  11.691  0.3117 -0.0808  0.7756
10446TIP3    H152753   3.449   0.183  11.646  0.3610 -0.7311  1.5381
10446TIP3    H252754   3.326   0.268  11.622  0.7353 -0.5581  0.1932
10447TIP3   OH252755   2.436   5.458  14.201 -0.0215 -0.3614 -0.0866
10447TIP3    H152756   2.359   5.450  14.257  1.2390  1.0093  1.9379
10447TIP3    H252757   2.485   5.377  14.214  0.1383 -0.1544  0.6256
10448TIP3   OH252758   4.854   4.630  16.142  0.0582 -0.1314 -0.1249
10448TIP3    H152759   4.848   4.535  16.148 -0.1626 -0.0216  1.7407
10448TIP3    H252760   4.920   4.654  16.206  0.0483  0.9785 -0.5267
10449TIP3   OH252761   0.202   3.999   3.734 -0.5366 -0.9409  0.1488
10449TIP3    H152762   0.166   4.072   3.684  1.2266  0.3737  0.7403
10449TIP3    H252763   0.179   3.921   3.684 -1.9600  0.0659 -0.7792
10450TIP3   OH252764   4.318   5.093   2.073 -0.7162 -0.4283  0.2813
10450TIP3    H152765   4.308   5.189   2.068 -1.0888 -0.4822 -0.0602
10450TIP3    H252766   4.230   5.060   2.058 -0.6553 -0.8182  0.7750
10451TIP3   OH252767   0.426   1.841  16.155 -0.1210  0.2570  0.0713
10451TIP3    H152768   0.384   1.803  16.232  0.4286  0.6257  0.5641
10451TIP3    H252769   0.516   1.807  16.157 -0.5020 -0.8766 -1.2094
10452TIP3   OH252770   4.411   0.426  15.119  0.1738  0.7618  0.4264
10452TIP3    H152771   4.386   0.375  15.196  0.7190 -0.7438 -0.3773
10452TIP3    H252772   4.478   0.486  15.151  0.2555  0.2830  1.1657
10453TIP3   OH252773   4.688   0.947   3.580 -0.3002 -0.1962  0.4272
10453TIP3    H152774   4.701   1.010   3.651  2.2283  0.2040 -0.3536
10453TIP3    H252775   4.684   0.862   3.624 -2.0906  0.3240  1.3292
10454TIP3   OH252776   6.249   3.923  10.744  0.3487 -0.1582 -0.1466
10454TIP3    H152777   6.215   3.973  10.670 -0.3027 -0.6270 -0.1742
10454TIP3    H252778   6.343   3.915  10.727  0.6351  1.9337  0.3899
10455TIP3   OH252779   0.794   0.370  14.879 -0.0932 -0.2031  0.0042
10455TIP3    H152780   0.749   0.324  14.808  1.0999 -0.6211 -0.5016
10455TIP3    H252781   0.793   0.308  14.952  1.5857 -1.0947 -0.7027
10456TIP3   OH252782   2.071   0.214   4.469 -0.6059 -0.4711  0.2366
10456TIP3    H152783   2.045   0.229   4.560 -0.0736 -0.0897  0.3297
10456TIP3    H252784   2.034   0.288   4.421 -3.0460 -1.9691 -0.2895
10457TIP3   OH252785   4.356   5.277  13.001 -0.4934 -0.6480 -0.4376
10457TIP3    H152786   4.311   5.336  13.060  2.0670  0.8869  0.0363
10457TIP3    H252787   4.367   5.196  13.051  0.4530  0.1856  0.7315
10458TIP3   OH252788   0.276   5.771   0.791 -0.5658 -0.3507 -0.0838
10458TIP3    H152789   0.369   5.751   0.780 -0.6816 -0.5338 -0.7611
10458TIP3    H252790   0.268   5.864   0.773 -0.0880  0.2639  2.6770
10459TIP3   OH252791   2.024   6.511  15.862 -0.2915 -0.5917  0.1713
10459TIP3    H152792   1.941   6.500  15.907 -0.0517  0.2381  0.8316
10459TIP3    H252793   2.010   6.587  15.804 -0.0353 -0.5244  0.1930
10460TIP3   OH252794   3.887   3.490   5.465 -0.1580  0.0774  0.0397
10460TIP3    H152795   3.815   3.495   5.529 -0.5337  0.5284 -0.4121
10460TIP3    H252796   3.924   3.403   5.477 -2.2704 -1.0660 -1.3196
10461TIP3   OH252797   1.430   3.539  15.078 -0.2362  0.0184 -0.1786
10461TIP3    H152798   1.366   3.558  15.147  0.5205 -0.1973  0.5844
10461TIP3    H252799   1.414   3.448  15.056 -0.0540 -0.0904  0.1470
10462TIP3   OH252800   4.528   4.360   1.111 -0.3087  0.0351 -1.0916
10462TIP3    H152801   4.508   4.270   1.136 -1.9337  0.2745 -1.4702
10462TIP3    H252802   4.543   4.356   1.017  1.0023 -0.0693 -0.8774
10463TIP3   OH252803   3.209   4.234   4.024 -0.2837 -0.7719  0.2224
10463TIP3    H152804   3.239   4.314   3.981  0.0704 -1.1624 -0.2664
10463TIP3    H252805   3.114   4.245   4.033  0.0204  0.5469  1.9317
10464TIP3   OH252806   1.316   4.306   0.430 -0.3116 -0.7027 -0.1540
10464TIP3    H152807   1.276   4.222   0.408  1.1341 -2.4382  3.4440
10464TIP3    H252808   1.402   4.282   0.466  0.6241  2.3961 -0.2426
10465TIP3   OH252809   6.094   6.142  15.067  0.5169  0.1804  0.2787
10465TIP3    H152810   6.166   6.178  15.119  0.1258  0.7213  0.4584
10465TIP3    H252811   6.118   6.161  14.976  1.7094 -1.6990  0.1770
10466TIP3   OH252812   2.273   3.241   0.537 -0.1240  0.1538  0.3698
10466TIP3    H152813   2.271   3.233   0.632  0.0259  0.4519  0.3961
10466TIP3    H252814   2.364   3.265   0.516 -0.1955  0.2472  0.1629
10467TIP3   OH252815   1.624   4.161  14.334  0.0413  0.0752 -0.1312
10467TIP3    H152816   1.694   4.096  14.332  0.5297  0.5994  0.1839
10467TIP3    H252817   1.544   4.109  14.325  0.5055 -0.4548 -1.3929
10468TIP3   OH252818   2.781   4.188  15.508  0.5443  0.0631  0.0878
10468TIP3    H152819   2.745   4.252  15.570  1.3995 -0.3257  1.0108
10468TIP3    H252820   2.758   4.103  15.546 -2.9005 -0.2717 -2.4666
10469TIP3   OH252821   6.594   2.029  14.733  0.0666 -0.4803 -0.7471
10469TIP3    H152822   6.587   1.982  14.816  1.4699 -1.0983 -0.9641
10469TIP3    H252823   6.504   2.058  14.715 -0.3941 -1.0007  0.5869
10470TIP3   OH252824   1.521   3.087  12.079 -0.3972  0.3902  0.5098
10470TIP3    H152825   1.499   2.994  12.072  0.7161  0.2505 -2.2502
10470TIP3    H252826   1.468   3.129  12.011  1.5094  1.2321 -0.5123
10471TIP3   OH252827   6.449   1.864  10.964  0.4444  0.0106  0.7051
10471TIP3    H152828   6.450   1.842  10.871 -0.2506  3.0083 -0.0589
10471TIP3    H252829   6.356   1.861  10.987  0.5937 -0.4612  1.2551
10472TIP3   OH252830   1.665   2.958  12.451  0.0294 -0.4669  0.4190
10472TIP3    H152831   1.636   3.029  12.393  0.1549 -0.9682 -0.2561
10472TIP3    H252832   1.741   2.920  12.407  0.1901 -0.7835  0.9651
10473TIP3   OH252833   5.897   4.080  16.348  0.0346 -0.0005  0.6956
10473TIP3    H152834   5.857   4.007  16.301 -0.6522  1.1101 -0.4760
10473TIP3    H252835   5.977   4.043  16.386 -0.2288 -1.3162  0.0123
10474TIP3   OH252836   4.888   0.113  13.759 -0.0249 -0.4776  0.6712
10474TIP3    H152837   4.969   0.064  13.743 -0.0275  0.1555 -1.5795
10474TIP3    H252838   4.917   0.204  13.766 -0.5308 -0.2339 -0.2765
10475TIP3   OH252839   1.068   0.155   6.405  0.0662  0.1043 -0.8111
10475TIP3    H152840   1.092   0.091   6.472  1.3826  0.4277 -0.9563
10475TIP3    H252841   1.119   0.233   6.426  0.3181  0.2902 -2.0513
10476TIP3   OH252842   0.236   1.215  12.232 -0.3144  0.4595  0.1615
10476TIP3    H152843   0.186   1.256  12.303  2.3573  2.2393  1.1244
10476TIP3    H252844   0.195   1.130  12.219 -3.5306  1.8377  0.8810
10477TIP3   OH252845   2.958   3.365   3.075 -0.7513 -0.0635  0.0712
10477TIP3    H152846   3.012   3.329   3.145  0.7713  2.1761  0.1194
10477TIP3    H252847   2.949   3.458   3.097 -0.2990  0.6844 -2.6413
10478TIP3   OH252848   4.304   3.909   6.030 -0.7811  0.1371 -0.1212
10478TIP3    H152849   4.215   3.943   6.025 -0.1654  2.1293  1.8804
10478TIP3    H252850   4.347   3.962   6.097  1.6605 -1.3825 -0.4075
10479TIP3   OH252851   0.495   0.723   1.377 -0.4367  0.1254  0.2499
10479TIP3    H152852   0.517   0.783   1.448 -1.6482  1.0520 -0.1401
10479TIP3    H252853   0.558   0.744   1.308 -1.1999  1.3460 -0.0923
10480TIP3   OH252854   6.770   0.435  12.160  0.1907 -0.8035 -0.2974
10480TIP3    H152855   6.675   0.439  12.174  0.3545  1.5005  0.2908
10480TIP3    H252856   6.801   0.371  12.223 -0.6987  0.1107  1.0907
10481TIP3   OH252857   5.679   3.374  16.872  0.3712 -0.0874 -0.2747
10481TIP3    H152858   5.736   3.372  16.795 -0.0537 -0.5363 -0.5850
10481TIP3    H252859   5.592   3.355  16.837  0.6299 -3.5062  0.7434
10482TIP3   OH252860   6.200   5.368  15.845 -0.5397 -0.5569 -0.1662
10482TIP3    H152861   6.105   5.381  15.837 -0.7490 -1.0166  1.3818
10482TIP3    H252862   6.210   5.276  15.869  0.3691 -0.7483 -1.2125
10483TIP3   OH252863   0.420   3.810   2.511 -0.1634 -0.0441  0.3661
10483TIP3    H152864   0.344   3.752   2.515  0.1960 -0.4731  0.9137
10483TIP3    H252865   0.451   3.816   2.601  1.8795 -1.7654 -0.1832
10484TIP3   OH252866   5.720   1.641  12.852 -0.4394  0.4113 -0.0253
10484TIP3    H152867   5.741   1.683  12.769  0.0184  0.7276  0.2466
10484TIP3    H252868   5.726   1.712  12.917 -1.0317  0.2226  0.2415
10485TIP3   OH252869   0.080   3.398  12.062 -0.1273 -0.0455 -0.4707
10485TIP3    H152870   0.067   3.459  12.134  1.2635  0.1005 -0.3141
10485TIP3    H252871   0.052   3.314  12.097 -0.3048  0.1870 -0.0507
10486TIP3   OH252872   5.453   4.050   2.585  0.1050  0.2790  0.8721
10486TIP3    H152873   5.535   4.049   2.633  0.7806 -1.4243 -0.2485
10486TIP3    H252874   5.388   4.019   2.648  0.3043  1.6048  1.7525
10487TIP3   OH252875   4.967   0.237  14.298  0.0969 -0.3777 -0.3134
10487TIP3    H152876   4.984   0.307  14.235  0.6788 -2.0134 -2.0334
10487TIP3    H252877   5.050   0.227  14.346 -0.5024  1.2110  1.1138
10488TIP3   OH252878   6.448   3.639  16.390  0.2658 -0.1085 -0.2752
10488TIP3    H152879   6.372   3.604  16.343  0.5720  0.3144 -1.0878
10488TIP3    H252880   6.524   3.603  16.344  0.5650 -0.0152  0.1413
10489TIP3   OH252881   4.493   0.685   5.020  0.7710 -0.0866  0.4622
10489TIP3    H152882   4.510   0.750   4.952 -2.3618  1.9104  1.4834
10489TIP3    H252883   4.496   0.601   4.975 -0.2975  1.1405 -1.9792
10490TIP3   OH252884   4.269   4.261   4.475  0.7913  0.3385 -0.0781
10490TIP3    H152885   4.254   4.353   4.453 -1.0961 -0.2070 -1.2295
10490TIP3    H252886   4.204   4.243   4.544  0.3698 -0.4173 -0.6635
10491TIP3   OH252887   0.814   4.554  14.677  0.1565  0.3603 -0.4611
10491TIP3    H152888   0.816   4.459  14.670 -0.4325  0.1779  1.7183
10491TIP3    H252889   0.721   4.577  14.673  0.2697  0.8125 -0.5635
10492TIP3   OH252890   1.701   3.388   5.836 -0.5979  0.3955  0.3600
10492TIP3    H152891   1.784   3.391   5.884  0.0681 -1.1325 -0.6766
10492TIP3    H252892   1.695   3.473   5.794 -0.3610  1.1236  1.7681
10493TIP3   OH252893   5.019   2.513  13.022 -0.3195  0.5703  0.3229
10493TIP3    H152894   4.975   2.459  12.956  1.1585 -1.7075  1.1639
10493TIP3    H252895   4.982   2.600  13.009 -1.8450 -0.3531 -1.8966
10494TIP3   OH252896   5.280   6.734  11.926  0.1722 -0.3117 -0.1778
10494TIP3    H152897   5.224   6.725  12.003 -1.3208  2.2473 -0.9069
10494TIP3    H252898   5.345   6.800  11.951  1.4529 -1.5223 -0.1791
10495TIP3   OH252899   4.162   1.179   3.780 -0.1065 -0.9681  0.1313
10495TIP3    H152900   4.114   1.150   3.858  0.9881  0.8034  1.5050
10495TIP3    H252901   4.239   1.224   3.815  0.0970  0.3612 -1.9815
10496TIP3   OH252902   0.983   1.380   5.108  0.0217  0.0837 -0.5076
10496TIP3    H152903   0.929   1.449   5.070 -0.6984 -0.3497 -0.2809
10496TIP3    H252904   0.964   1.302   5.055 -0.1730 -0.2630  0.0706
10497TIP3   OH252905   5.856   3.507  15.968  0.0762 -0.0962  0.4907
10497TIP3    H152906   5.932   3.538  16.017  0.8828  1.8567 -1.9010
10497TIP3    H252907   5.870   3.413  15.960  1.0816 -0.0942  1.9913
10498TIP3   OH252908   4.684   1.959   5.987 -0.5975 -0.1602  0.2474
10498TIP3    H152909   4.679   1.951   6.082 -1.2554 -0.7414  0.1672
10498TIP3    H252910   4.774   1.986   5.970 -1.0366  2.0959  1.1845
10499TIP3   OH252911   2.676   6.113  15.574  0.7461 -0.3343  0.1239
10499TIP3    H152912   2.724   6.183  15.529 -0.2852 -0.7585 -1.6788
10499TIP3    H252913   2.745   6.056  15.609  1.5682  0.3850 -0.2903
10500TIP3   OH252914   3.228   1.594  15.927  0.1762  0.2303 -0.4045
10500TIP3    H152915   3.203   1.607  16.018  0.1160 -2.3120 -0.0048
10500TIP3    H252916   3.160   1.537  15.892  1.4338 -0.7006 -1.3782
10501TIP3   OH252917   3.979   5.055   2.658  0.0966 -1.0297  0.4319
10501TIP3    H152918   3.960   4.963   2.677 -2.7413 -0.5666 -0.0146
10501TIP3    H252919   3.928   5.074   2.579  0.1801  1.1173  0.8888
10502TIP3   OH252920   0.062   0.601   5.137  0.7014  0.3585  0.1523
10502TIP3    H152921   0.001   0.532   5.110  1.5297 -0.5258  0.5015
10502TIP3    H252922   0.080   0.651   5.057  0.0284  0.2156 -0.0873
10503TIP3   OH252923   0.965   2.159  15.698  0.1104  0.6505  0.0255
10503TIP3    H152924   0.923   2.093  15.643 -0.4302  0.4832  0.6365
10503TIP3    H252925   0.896   2.221  15.719  0.0134  0.0898  1.4702
10504TIP3   OH252926   5.917   1.656   5.422  0.2596  0.3726 -0.1951
10504TIP3    H152927   5.977   1.727   5.440  1.0596 -0.4469  0.4191
10504TIP3    H252928   5.862   1.650   5.500  0.3908  0.1201 -0.1220
10505TIP3   OH252929   6.188   1.409   4.598 -0.2178  0.4710  0.1773
10505TIP3    H152930   6.232   1.469   4.658  1.4237  1.2687 -1.7542
10505TIP3    H252931   6.250   1.337   4.587  0.7376  1.6586 -2.6666
10506TIP3   OH252932   2.170   5.420  13.446 -0.4957  0.4559  0.5278
10506TIP3    H152933   2.141   5.335  13.414 -0.2676 -0.0917  1.7415
10506TIP3    H252934   2.168   5.412  13.542  1.8079  1.0000  0.6730
10507TIP3   OH252935   3.001   4.192   5.755 -0.2660  0.0884 -0.2712
10507TIP3    H152936   3.002   4.110   5.805  1.3769  1.1279  1.4756
10507TIP3    H252937   3.029   4.167   5.667 -0.9162 -1.3991 -0.0732
10508TIP3   OH252938   5.415   2.569   0.532 -0.6706 -0.6923 -0.0208
10508TIP3    H152939   5.458   2.486   0.513 -1.5486 -1.3730  0.8937
10508TIP3    H252940   5.453   2.631   0.470  0.2351 -1.7025 -0.4841
10509TIP3   OH252941   4.135   3.029   2.358 -0.1369  0.1944  0.1527
10509TIP3    H152942   4.126   2.938   2.329 -0.3949 -0.5868  2.5800
10509TIP3    H252943   4.078   3.078   2.300  0.5148 -1.0804 -1.6253
10510TIP3   OH252944   1.757   6.475   6.108  0.7367  0.3543 -0.2189
10510TIP3    H152945   1.811   6.549   6.135  1.4554  0.1096 -0.9798
10510TIP3    H252946   1.806   6.432   6.039  0.6558 -1.2408  0.6682
10511TIP3   OH252947   3.374   4.736  16.183 -0.4312  0.1301 -0.2190
10511TIP3    H152948   3.373   4.744  16.087 -1.7091  0.7074 -0.1734
10511TIP3    H252949   3.343   4.821  16.214  0.9248  0.2765  0.7418
10512TIP3   OH252950   5.127   4.946  15.817  0.6158  0.6877  0.7166
10512TIP3    H152951   5.147   4.869  15.763  1.5407  1.4547 -0.0616
10512TIP3    H252952   5.104   4.910  15.902  1.7715 -0.4177  0.5815
10513TIP3   OH252953   5.373   6.059  16.927 -0.2747  0.2509 -0.0105
10513TIP3    H152954   5.374   6.011  17.010  1.2771  1.0649  0.4642
10513TIP3    H252955   5.329   6.000  16.865  2.5344 -2.2862  0.2962
10514TIP3   OH252956   2.236   6.231  15.074 -0.0035 -0.2946 -0.1377
10514TIP3    H152957   2.192   6.155  15.111 -0.2623  0.5974  1.4479
10514TIP3    H252958   2.176   6.263  15.006 -1.3251  0.2578  1.2552
10515TIP3   OH252959   0.912   0.647   3.070 -0.1829  0.0287 -0.0040
10515TIP3    H152960   0.906   0.560   3.110  0.8500  0.3339  0.8149
10515TIP3    H252961   0.928   0.629   2.977  2.0755 -0.6611  0.4939
10516TIP3   OH252962   5.145   0.822   5.268  0.4510  0.0664 -0.1853
10516TIP3    H152963   5.138   0.737   5.312  0.4850 -0.3178 -0.9238
10516TIP3    H252964   5.235   0.825   5.236  0.2867  0.1463 -0.6363
10517TIP3   OH252965   1.626   0.179  11.990 -0.2179  0.5330 -0.2498
10517TIP3    H152966   1.648   0.224  12.072 -0.2711 -0.2897  0.2259
10517TIP3    H252967   1.706   0.185  11.937  0.3681 -0.3377  0.5122
10518TIP3   OH252968   3.011   0.181   6.860 -0.3865  0.3399  0.2690
10518TIP3    H152969   3.095   0.190   6.905  0.1362  0.0127 -0.6403
10518TIP3    H252970   3.017   0.240   6.785 -0.5632 -0.5101 -0.4097
10519TIP3   OH252971   0.187   6.442  10.299 -0.5416 -0.2095 -0.5422
10519TIP3    H152972   0.216   6.354  10.324  0.4623  0.1725 -0.3537
10519TIP3    H252973   0.263   6.498  10.314 -1.4043  0.8272  0.0487
10520TIP3   OH252974   0.965   6.577   5.036 -0.3081 -0.0788 -0.2128
10520TIP3    H152975   0.973   6.648   5.100  0.0050 -0.9619  0.7376
10520TIP3    H252976   0.874   6.581   5.007 -0.3172  0.6496 -0.0852
10521TIP3   OH252977   0.960   5.633   1.158  0.8736  0.5050  0.1522
10521TIP3    H152978   0.916   5.635   1.243  0.2163 -1.6952 -0.1059
10521TIP3    H252979   0.989   5.723   1.144 -1.1650  1.4352  1.5899
10522TIP3   OH252980   2.401   0.621  12.594  0.3138  0.3596 -0.5904
10522TIP3    H152981   2.307   0.614  12.612  0.1774  2.2638 -0.5177
10522TIP3    H252982   2.441   0.644  12.678  0.6455  1.1464 -0.9573
10523TIP3   OH252983   0.487   6.151   4.968  0.2183 -0.3307 -0.2383
10523TIP3    H152984   0.553   6.220   4.977 -0.7555  0.6617 -0.5408
10523TIP3    H252985   0.451   6.141   5.057  1.6903 -1.8265  0.2142
10524TIP3   OH252986   6.266   1.966  13.014  0.1501 -0.0356 -0.3807
10524TIP3    H152987   6.279   1.950  13.108 -0.6590  0.0638 -0.2521
10524TIP3    H252988   6.259   1.878  12.976  0.9396 -0.0902 -0.4244
10525TIP3   OH252989   2.619   1.019   4.223 -0.4524 -1.0701  0.3203
10525TIP3    H152990   2.532   1.020   4.262 -0.3326 -0.4687  0.5726
10525TIP3    H252991   2.603   1.015   4.129 -0.7596 -0.1725  0.3311
10526TIP3   OH252992   3.951   4.806   2.686 -0.2217 -0.4265  0.1007
10526TIP3    H152993   4.042   4.775   2.684 -0.1869 -0.2479 -1.2917
10526TIP3    H252994   3.900   4.728   2.711  0.4343 -0.1932  2.2935
10527TIP3   OH252995   3.073   0.424   0.135  0.8112  0.2463  0.3876
10527TIP3    H152996   3.076   0.345   0.189  0.8149  1.5362  2.2808
10527TIP3    H252997   3.156   0.423   0.087  0.8669 -0.8251  0.4879
10528TIP3   OH252998   2.623   1.742  16.274  0.3053 -0.5841  0.4029
10528TIP3    H152999   2.606   1.835  16.261  1.8764 -0.0731  1.7892
10528TIP3    H253000   2.677   1.716  16.199 -0.3964 -0.4482 -0.1459
10529TIP3   OH253001   5.542   0.730   2.053 -0.6100 -0.5404  0.4924
10529TIP3    H153002   5.489   0.807   2.074  0.2797  0.3182 -0.3488
10529TIP3    H253003   5.594   0.715   2.132 -1.5023 -0.8976  1.0253
10530TIP3   OH253004   3.406   3.474  13.632  0.1127  0.3302  0.3729
10530TIP3    H153005   3.358   3.463  13.550 -0.6288 -0.3384  0.8982
10530TIP3    H253006   3.497   3.489  13.604 -0.4948  2.2862 -0.6381
10531TIP3   OH253007   5.864   5.741  17.188  0.1607  0.2444 -0.3215
10531TIP3    H153008   5.910   5.823  17.206  0.3010 -0.1413  1.0719
10531TIP3    H253009   5.817   5.759  17.106 -0.4587  2.0019  0.3864
10532TIP3   OH253010   1.142   0.493  16.913  0.0500 -0.4171  0.4715
10532TIP3    H153011   1.124   0.429  16.982 -0.2232 -1.0474 -0.1774
10532TIP3    H253012   1.213   0.454  16.862  1.1259  0.6198  1.1389
10533TIP3   OH253013   0.125   2.129   1.612 -0.1648 -0.4465  0.2552
10533TIP3    H153014   0.180   2.058   1.644 -0.0661 -0.5524 -0.1489
10533TIP3    H253015   0.084   2.165   1.691 -1.1926 -1.7571  0.3460
10534TIP3   OH253016   2.123   4.937   3.050 -0.1912 -0.2940 -0.1399
10534TIP3    H153017   2.052   4.873   3.046 -0.2876 -0.1202 -1.7611
10534TIP3    H253018   2.131   4.969   2.960  1.2407  0.4569  0.2360
10535TIP3   OH253019   3.228   3.625   5.824 -0.0791  0.4281 -0.4193
10535TIP3    H153020   3.191   3.650   5.739 -0.1949  0.8288 -0.2509
10535TIP3    H253021   3.307   3.678   5.833  0.8371 -0.8052 -1.0128
10536TIP3   OH253022   0.186   3.384  14.410 -0.6188 -0.2028 -0.6748
10536TIP3    H153023   0.237   3.372  14.331 -0.8783 -0.9335 -0.7354
10536TIP3    H253024   0.208   3.472  14.440  2.1072 -1.1347  0.3142
10537TIP3   OH253025   2.181   1.836   4.646  0.0059  0.1790  0.1436
10537TIP3    H153026   2.166   1.821   4.739  0.5993 -1.8855 -0.0783
10537TIP3    H253027   2.100   1.807   4.604  1.4347 -3.3422 -0.3505
10538TIP3   OH253028   6.677   4.113  15.820  0.0344  0.0704 -0.0364
10538TIP3    H153029   6.661   4.179  15.753 -0.9145 -0.7405 -0.6101
10538TIP3    H253030   6.638   4.149  15.899 -0.8269  0.0266 -0.4401
10539TIP3   OH253031   1.056   3.411  11.230 -0.1460 -0.2571  0.4938
10539TIP3    H153032   1.071   3.468  11.155 -0.6515  0.3531  0.8600
10539TIP3    H253033   1.134   3.422  11.284 -0.6834  0.8137  1.0397
10540TIP3   OH253034   4.521   6.642   2.556  0.0893 -0.5002 -0.1545
10540TIP3    H153035   4.569   6.616   2.635  1.2233 -0.4438 -0.8189
10540TIP3    H253036   4.447   6.581   2.553 -0.5383  0.1375  1.4904
10541TIP3   OH253037   0.132   3.096  13.912 -0.4149  0.4440 -0.3748
10541TIP3    H153038   0.184   3.066  13.838 -1.3394 -1.1043 -0.4176
10541TIP3    H253039   0.049   3.123  13.875 -0.1814  1.4945 -0.1324
10542TIP3   OH253040   5.927   1.637   2.595 -0.2300 -0.0268  0.4311
10542TIP3    H153041   5.870   1.687   2.653 -0.0846  0.4032  0.2103
10542TIP3    H253042   5.978   1.704   2.549  0.5453 -0.4155  0.7279
10543TIP3   OH253043   5.597   4.059   5.062  0.7012  0.0407 -0.1552
10543TIP3    H153044   5.639   4.038   4.978  0.6739  1.2323 -0.4882
10543TIP3    H253045   5.503   4.048   5.045  0.5027  2.6856 -1.0462
10544TIP3   OH253046   3.186   4.148  14.849 -1.3125  0.1507 -0.4069
10544TIP3    H153047   3.115   4.141  14.912 -0.9822 -3.8725 -0.3645
10544TIP3    H253048   3.145   4.132  14.764 -0.5828 -1.4706 -0.4577
10545TIP3   OH253049   2.556   6.261  12.085 -0.5405  0.3774  0.2827
10545TIP3    H153050   2.468   6.273  12.120 -0.9301  0.2155 -0.6046
10545TIP3    H253051   2.604   6.340  12.111 -0.9925  0.5288  0.6555
10546TIP3   OH253052   6.223   1.309   1.913 -0.5604 -0.1264 -0.5471
10546TIP3    H153053   6.174   1.230   1.935  0.2212 -0.2829  0.7397
10546TIP3    H253054   6.263   1.290   1.828 -1.8063 -0.4253 -1.0679
10547TIP3   OH253055   0.938   2.707   0.008  0.0831 -0.2695  0.0676
10547TIP3    H153056   0.851   2.700   0.048  0.2583  2.5592  1.0496
10547TIP3    H253057   0.993   2.741   0.078  1.6033 -0.3687 -1.0659
10548TIP3   OH253058   2.912   1.188   6.599  0.1403  0.0498  0.7192
10548TIP3    H153059   2.944   1.144   6.678  0.1242  1.2938  1.4351
10548TIP3    H253060   2.977   1.168   6.532  0.5421 -0.4008  1.2447
10549TIP3   OH253061   0.752   4.715   3.748 -0.4239  0.0322  0.2444
10549TIP3    H153062   0.778   4.702   3.657  0.5434 -0.0867  0.5292
10549TIP3    H253063   0.835   4.726   3.795 -0.5250 -5.4592  2.0411
10550TIP3   OH253064   4.068   4.168  11.679 -0.9275  0.4928 -0.4003
10550TIP3    H153065   4.024   4.105  11.622  0.7417  1.0054 -2.3277
10550TIP3    H253066   4.016   4.248  11.670 -1.0638  0.3714 -0.7053
10551TIP3   OH253067   6.752   0.960  15.435 -0.3504  0.4314 -0.3267
10551TIP3    H153068   6.702   1.042  15.427 -1.2932 -0.3133 -2.4517
10551TIP3    H253069   6.843   0.986  15.419 -0.4289  1.3143  0.6058
10552TIP3   OH253070   0.944   0.951  11.134 -0.5659  0.6938  0.3925
10552TIP3    H153071   1.001   0.917  11.065  0.1126  0.4123  1.0839
10552TIP3    H253072   0.865   0.979  11.089 -1.0699 -1.6463 -0.2069
10553TIP3   OH253073   5.953   4.542  16.000  0.0815 -0.1616  0.1598
10553TIP3    H153074   5.888   4.567  16.065 -1.0249  1.4461 -1.5142
10553TIP3    H253075   5.922   4.459  15.965 -0.8791  0.3881 -0.3263
10554TIP3   OH253076   5.528   1.923  11.135  0.5440  0.5161 -0.6228
10554TIP3    H153077   5.550   1.846  11.083 -1.2105 -1.1863  1.0749
10554TIP3    H253078   5.440   1.948  11.106 -0.0810  0.1004  0.8576
10555TIP3   OH253079   0.024   2.600   3.275  0.2174  0.4133 -0.0667
10555TIP3    H153080   0.084   2.652   3.220 -0.9125  0.7648 -0.9840
10555TIP3    H253081   0.044   2.509   3.253  2.0921  0.4312  1.4223
10556TIP3   OH253082   0.113   2.884   2.473  0.1497  0.1763  1.0575
10556TIP3    H153083   0.044   2.880   2.407 -0.2296 -0.0886  1.4750
10556TIP3    H253084   0.194   2.889   2.422 -0.1682  0.3908  0.5709
10557TIP3   OH253085   3.449   1.209  11.925  0.3538 -0.0086  0.4941
10557TIP3    H153086   3.479   1.257  11.848  0.9116 -0.7036  0.2686
10557TIP3    H253087   3.362   1.243  11.943 -0.5630 -1.1759 -1.6007
10558TIP3   OH253088   1.364   6.206  16.177 -0.0086 -0.3567  0.3714
10558TIP3    H153089   1.433   6.148  16.210  0.4815 -1.9842 -3.2321
10558TIP3    H253090   1.411   6.281  16.141 -0.3153 -0.1005  0.5027
10559TIP3   OH253091   1.270   4.219   4.413  0.2320 -0.2744 -0.3348
10559TIP3    H153092   1.307   4.266   4.487 -0.9386  0.5924 -0.2881
10559TIP3    H253093   1.236   4.287   4.355 -1.0791 -1.0261 -0.4729
10560TIP3   OH253094   0.556   1.984   2.745  0.2911  0.3619 -0.3748
10560TIP3    H153095   0.623   2.047   2.719 -0.5581  1.2479 -0.4419
10560TIP3    H253096   0.476   2.036   2.755 -0.5679 -0.7901 -1.0393
10561TIP3   OH253097   5.312   0.481   1.710  0.0558 -0.4032  0.1878
10561TIP3    H153098   5.307   0.385   1.713 -3.0797 -0.2763  0.6680
10561TIP3    H253099   5.389   0.502   1.762  1.5157 -2.7064 -0.9505
10562TIP3   OH253100   3.590   4.862   4.421 -0.1733  0.0710  0.7022
10562TIP3    H153101   3.588   4.837   4.514  2.4311  1.2088  1.1162
10562TIP3    H253102   3.618   4.954   4.422 -0.1999  0.1097 -1.2225
10563TIP3   OH253103   5.479   4.501   0.830 -0.0477  0.0759  0.2492
10563TIP3    H153104   5.430   4.547   0.898  0.5692 -0.0379  0.7699
10563TIP3    H253105   5.473   4.408   0.854 -1.3550 -0.1472 -0.8409
10564TIP3   OH253106   4.340   4.711   3.496 -0.0765  0.1005 -0.0330
10564TIP3    H153107   4.422   4.747   3.463  0.2052 -0.2047  0.3234
10564TIP3    H253108   4.350   4.712   3.591 -0.0744 -0.8606 -0.0135
10565TIP3   OH253109   6.088   2.337  14.294 -0.0227 -0.1171  0.4287
10565TIP3    H153110   6.127   2.397  14.231  0.0031 -0.2771  0.2930
10565TIP3    H253111   6.145   2.342  14.371  0.1867 -0.2521  0.2805
10566TIP3   OH253112   6.739   2.937  12.386 -0.3350  0.6864 -0.3752
10566TIP3    H153113   6.643   2.944  12.383 -0.3003  0.7954 -2.2265
10566TIP3    H253114   6.757   2.847  12.358  0.0471 -0.0471  2.1131
10567TIP3   OH253115   4.695   4.603   1.380  0.1499  0.1930 -0.3559
10567TIP3    H153116   4.709   4.522   1.331  0.8745  1.0253 -1.5621
10567TIP3    H253117   4.751   4.668   1.336 -1.5598  1.7095 -0.3721
10568TIP3   OH253118   4.441   1.770  14.784  0.0909  0.0301  0.2726
10568TIP3    H153119   4.529   1.798  14.812  1.0963 -0.8958 -1.8675
10568TIP3    H253120   4.396   1.853  14.766  0.3818  0.5323  1.7404
10569TIP3   OH253121   2.504   2.879   1.762  0.2240 -0.0290  0.1208
10569TIP3    H153122   2.591   2.887   1.801  0.8040 -2.8265 -0.4772
10569TIP3    H253123   2.493   2.958   1.709  2.1569  0.6212  0.6588
10570TIP3   OH253124   3.063   5.348   2.658 -0.1549  0.4243  0.1210
10570TIP3    H153125   3.072   5.308   2.571  3.2763  0.0701  0.5683
10570TIP3    H253126   3.115   5.429   2.652  2.3284 -0.9227  2.5890
10571TIP3   OH253127   0.583   2.526  16.664 -0.0432 -0.0043  1.0543
10571TIP3    H153128   0.568   2.620  16.655  1.0584  0.1953  1.2045
10571TIP3    H253129   0.552   2.505  16.752 -0.4387  0.1902  0.9592
10572TIP3   OH253130   5.821   2.306  14.525 -0.5647 -0.0110 -0.3859
10572TIP3    H153131   5.827   2.376  14.461 -1.5749  0.1786 -0.2789
10572TIP3    H253132   5.846   2.347  14.608  4.4989 -1.1222 -1.1945
10573TIP3   OH253133   3.528   4.774   4.687  0.4130  0.2147 -0.6397
10573TIP3    H153134   3.438   4.804   4.673  0.3876 -0.2005 -1.4063
10573TIP3    H253135   3.519   4.689   4.730  0.4420  0.1948 -0.6729
10574TIP3   OH253136   4.049   1.199  16.603 -0.1617  0.0113 -0.5354
10574TIP3    H153137   4.029   1.174  16.694  0.5055  0.5432 -0.2356
10574TIP3    H253138   4.144   1.211  16.602 -0.1781  0.0819 -1.2889
10575TIP3   OH253139   5.616   5.706   1.299 -0.7911  0.5920  0.1440
10575TIP3    H153140   5.578   5.623   1.329 -1.3097  0.0531 -1.9271
10575TIP3    H253141   5.648   5.748   1.379 -2.3026 -0.7006  1.4618
10576TIP3   OH253142   4.763   1.970  15.928  0.5436 -0.0213  0.1750
10576TIP3    H153143   4.725   2.034  15.988  1.7089 -1.6242  2.7267
10576TIP3    H253144   4.826   2.019  15.876 -1.9656  1.8205 -1.2633
10577TIP3   OH253145   0.883   1.366  14.064  0.6574  0.1387  0.3952
10577TIP3    H153146   0.801   1.359  14.014  1.0131  0.2107 -0.2106
10577TIP3    H253147   0.895   1.460  14.077  0.9517  0.1610 -0.0368
10578TIP3   OH253148   0.700   0.831  15.162  0.0745  0.3574 -0.3670
10578TIP3    H153149   0.675   0.788  15.244 -0.5927  1.9443  0.2839
10578TIP3    H253150   0.688   0.764  15.095  1.8592 -1.3535  0.9880
10579TIP3   OH253151   2.765   0.039   5.094 -0.4573 -0.1632 -0.4471
10579TIP3    H153152   2.804   0.126   5.094 -0.3500 -0.2112 -0.6501
10579TIP3    H253153   2.839  -0.020   5.086 -0.4894 -0.2913  0.1916
10580TIP3   OH253154   3.852   4.096   1.621  0.4079  0.0038 -0.3683
10580TIP3    H153155   3.759   4.102   1.600  0.1163 -1.1262  0.5189
10580TIP3    H253156   3.873   4.179   1.662  0.0715  0.7124 -1.5956
10581TIP3   OH253157   6.786   6.495  13.427 -0.4385  1.1407 -0.6289
10581TIP3    H153158   6.757   6.556  13.495  0.6857  0.5876  0.3516
10581TIP3    H253159   6.838   6.549  13.367 -0.2619  1.3386 -0.2960
10582TIP3   OH253160   2.134   4.035  12.739 -0.3692  0.0427  0.2179
10582TIP3    H153161   2.218   4.005  12.772 -0.8947 -0.2753  1.2985
10582TIP3    H253162   2.075   4.031  12.815 -0.8628  2.2461 -0.0134
10583TIP3   OH253163   4.278   3.209  11.377  0.4195 -0.2284 -0.1405
10583TIP3    H153164   4.302   3.280  11.436  2.8695 -1.8063  0.8277
10583TIP3    H253165   4.339   3.216  11.304  1.3137 -1.8602  0.4106
10584TIP3   OH253166   6.747   2.227   5.209  0.5632  0.2969 -0.1311
10584TIP3    H153167   6.795   2.150   5.181 -0.2627 -0.6361  0.9488
10584TIP3    H253168   6.786   2.251   5.293 -0.6774 -0.3386  0.6500
10585TIP3   OH253169   3.983   5.602  13.726  0.3459  0.2223 -0.0197
10585TIP3    H153170   3.979   5.509  13.702 -0.9320  0.2704 -0.0233
10585TIP3    H253171   3.902   5.639  13.692  0.8166  1.3335  0.0469
10586TIP3   OH253172   1.249   6.735   2.199 -0.4204 -0.0187 -0.8872
10586TIP3    H153173   1.336   6.702   2.179 -0.7496 -0.7424 -1.1373
10586TIP3    H253174   1.255   6.829   2.186  0.2337 -0.1079 -1.2244
10587TIP3   OH253175   1.703   2.116  15.558  0.3046  0.2282  0.2606
10587TIP3    H153176   1.745   2.086  15.477  0.5666 -0.5973  0.6931
10587TIP3    H253177   1.653   2.040  15.588 -1.4105  1.1547 -0.1762
10588TIP3   OH253178   1.039   3.382   0.898  0.2480  0.0493  0.0130
10588TIP3    H153179   0.979   3.343   0.835  1.1716  0.6230 -1.2391
10588TIP3    H253180   1.125   3.376   0.856  1.2708 -1.7895  2.2503
10589TIP3   OH253181   0.815   1.919   2.411 -0.1611 -0.1116 -0.7349
10589TIP3    H153182   0.833   1.991   2.349 -0.2290 -0.7347 -1.4904
10589TIP3    H253183   0.888   1.922   2.472 -0.2457  0.7063 -0.6666
10590TIP3   OH253184   3.453   3.828   3.702 -0.2562  0.5120 -0.0330
10590TIP3    H153185   3.382   3.880   3.739  0.1863 -0.1370  1.7642
10590TIP3    H253186   3.527   3.888   3.699  0.1395  0.1336  1.6459
10591TIP3   OH253187   2.785   6.360  12.788  0.3055 -0.4477  0.2939
10591TIP3    H153188   2.727   6.321  12.723  0.2213  0.4314 -0.1651
10591TIP3    H253189   2.861   6.391  12.737 -0.1648  1.0448  0.4681
10592TIP3   OH253190   4.681   3.255   5.058 -0.7072  0.2938 -0.3012
10592TIP3    H153191   4.736   3.321   5.099  0.0478 -1.7270  2.0008
10592TIP3    H253192   4.736   3.215   4.991  0.1481 -0.6789  0.9692
10593TIP3   OH253193   5.615   3.565   1.325 -0.5838  0.3434 -0.1708
10593TIP3    H153194   5.600   3.632   1.391 -0.3406 -0.2634  0.5026
10593TIP3    H253195   5.633   3.614   1.245 -1.7967  1.0807 -0.0054
10594TIP3   OH253196   6.295   2.140   0.948 -0.2114 -0.8186 -0.1742
10594TIP3    H153197   6.209   2.098   0.939 -0.2353 -0.8981  0.4074
10594TIP3    H253198   6.358   2.069   0.936 -0.2644 -1.3584  2.3302
10595TIP3   OH253199   3.197   1.086   4.008  0.5189  0.1879 -0.2176
10595TIP3    H153200   3.138   1.112   4.079  1.4570 -1.0206  1.0424
10595TIP3    H253201   3.262   1.155   4.005  0.3297  0.3741 -0.0648
10596TIP3   OH253202   1.018   5.993   5.482 -0.2604  0.1644  0.2768
10596TIP3    H153203   1.037   6.072   5.532  1.5339 -0.0166 -0.0752
10596TIP3    H253204   1.105   5.957   5.460 -1.0351 -1.9229  0.4950
10597TIP3   OH253205   1.504   5.470  11.603 -0.2648 -0.5424 -0.7268
10597TIP3    H153206   1.588   5.457  11.647  0.0941  1.0296 -0.9017
10597TIP3    H253207   1.515   5.429  11.517 -0.4286 -2.2429  0.0561
10598TIP3   OH253208   4.143   2.513  12.468  0.3158  0.3795 -0.0540
10598TIP3    H153209   4.134   2.600  12.430 -0.2281  0.1804 -0.3788
10598TIP3    H253210   4.197   2.465  12.405 -1.7913 -0.3911 -1.3113
10599TIP3   OH253211   0.532   3.964  10.643  0.1836 -0.3476  0.1801
10599TIP3    H153212   0.476   3.984  10.569 -0.2469 -0.3372  0.5079
10599TIP3    H253213   0.621   3.977  10.610  0.0145 -0.9231 -0.5023
10600TIP3   OH253214   3.165   4.121  16.412  0.0516  0.3200  0.2012
10600TIP3    H153215   3.247   4.114  16.363 -0.7160  0.0813 -1.0657
10600TIP3    H253216   3.140   4.213  16.404 -0.4779  0.1145 -0.5185
10601TIP3   OH253217   0.557   3.062  15.608  0.0549  0.1759 -0.0964
10601TIP3    H153218   0.526   3.138  15.657  0.4797  1.3356 -1.5968
10601TIP3    H253219   0.587   3.001  15.675 -0.8371  1.0760  1.1528
10602TIP3   OH253220   5.750   0.541   5.698  0.0351  1.2174 -0.4694
10602TIP3    H153221   5.811   0.522   5.770 -0.7808  1.6086  0.3450
10602TIP3    H253222   5.806   0.562   5.624  0.8972  1.1059  0.1393
10603TIP3   OH253223   1.764   6.154   3.638  0.0288 -0.4081 -0.2497
10603TIP3    H153224   1.674   6.123   3.643 -0.2718  0.6963  1.6134
10603TIP3    H253225   1.756   6.245   3.609  0.3352  0.5201  2.4306
10604TIP3   OH253226   6.621   5.042  14.324  0.0413 -0.5786 -0.5644
10604TIP3    H153227   6.585   5.007  14.243 -0.1263 -1.5225 -0.0836
10604TIP3    H253228   6.545   5.070  14.375  0.0383 -1.6587  0.0324
10605TIP3   OH253229   1.821   2.287   4.820 -0.2969  0.0738  0.1760
10605TIP3    H153230   1.876   2.364   4.808  0.1049 -0.2866 -0.3476
10605TIP3    H253231   1.732   2.319   4.810 -0.1484  0.5356  0.3240
10606TIP3   OH253232   1.930   1.136   5.561  0.0317 -0.2700  0.9490
10606TIP3    H153233   1.985   1.101   5.490 -1.5295  0.1948 -0.5343
10606TIP3    H253234   1.876   1.062   5.587  0.0649 -0.2356  1.1124
10607TIP3   OH253235   2.590   6.509   4.872  0.0249  0.1433  0.4734
10607TIP3    H153236   2.531   6.479   4.942  0.7217 -1.2048  0.4864
10607TIP3    H253237   2.586   6.440   4.806  0.4086  0.7867 -0.2291
10608TIP3   OH253238   4.889   1.153   5.345  0.2013  0.1853  0.3181
10608TIP3    H153239   4.883   1.247   5.365  0.8465  0.2016  0.4449
10608TIP3    H253240   4.962   1.122   5.399  0.2509 -0.3075 -0.0347
10609TIP3   OH253241   5.902   0.192   5.689  0.7435  0.8801  0.2052
10609TIP3    H153242   5.888   0.192   5.784 -0.0064 -0.0658  0.0951
10609TIP3    H253243   5.836   0.254   5.656  0.6657  0.8172  0.2439
10610TIP3   OH253244   3.589   3.960  12.306 -0.2461  0.1661  0.2559
10610TIP3    H153245   3.563   3.907  12.231  0.5694 -0.3440  0.3304
10610TIP3    H253246   3.573   4.050  12.278 -0.2660 -0.0404 -0.4053
10611TIP3   OH253247   4.052   0.153  16.712  0.0802  0.7098  0.3400
10611TIP3    H153248   4.048   0.177  16.804  0.9192 -1.9709  1.1477
10611TIP3    H253249   4.139   0.112  16.702 -1.1134 -1.6364 -0.9131
10612TIP3   OH253250   6.448   0.215   1.669  0.2707 -0.2640 -0.7824
10612TIP3    H153251   6.356   0.235   1.650  0.0720 -0.9600 -0.5764
10612TIP3    H253252   6.456   0.227   1.764  0.6881  0.9421 -0.9626
10613TIP3   OH253253   4.350   1.262  14.803 -0.0393 -0.3304 -0.1687
10613TIP3    H153254   4.324   1.232  14.716 -1.7839 -0.9176  0.5470
10613TIP3    H253255   4.404   1.339  14.786 -0.8323 -0.1056 -1.7532
10614TIP3   OH253256   2.720   5.484   1.758 -0.0618 -0.0410  0.2271
10614TIP3    H153257   2.640   5.434   1.738  0.4299 -0.2169 -1.3727
10614TIP3    H253258   2.790   5.420   1.752  0.3817  0.4715 -0.1336
10615TIP3   OH253259   5.465   2.840   0.022  0.0791  0.6185  0.6649
10615TIP3    H153260   5.553   2.867   0.046  0.5351  1.3422 -1.7366
10615TIP3    H253261   5.435   2.905  -0.041 -0.2426 -2.3041 -2.3699
10616TIP3   OH253262   0.874   5.744  12.011 -0.1121  0.2857 -0.5718
10616TIP3    H153263   0.960   5.703  12.007  1.0535  2.6405 -0.4110
10616TIP3    H253264   0.866   5.792  11.928 -0.3505  1.8122  0.3146
10617TIP3   OH253265   3.793   6.402   0.799 -0.2151  0.5266  0.1204
10617TIP3    H153266   3.842   6.436   0.874 -0.4209 -0.1994  0.5863
10617TIP3    H253267   3.797   6.473   0.734  3.9312 -0.6340 -0.9903
10618TIP3   OH253268   0.109   1.946  15.764 -0.0704 -0.6492 -0.4608
10618TIP3    H153269   0.017   1.953  15.740 -0.2650 -0.7415  0.2513
10618TIP3    H253270   0.128   2.029  15.809  0.2834 -0.4919 -0.8913
10619TIP3   OH253271   2.968   5.055   2.722 -0.4495 -0.8161 -0.8230
10619TIP3    H153272   3.034   5.043   2.790  0.9228  2.3803 -1.5302
10619TIP3    H253273   2.889   5.015   2.759  0.7819 -0.9607  1.7921
10620TIP3   OH253274   2.623   0.284   2.093 -0.2686 -0.1242  0.2562
10620TIP3    H153275   2.689   0.324   2.037  1.1875 -1.8726  0.7027
10620TIP3    H253276   2.613   0.346   2.165  0.3389  0.5000 -0.1920
10621TIP3   OH253277   2.921   0.734  15.365  0.1069 -0.5222 -0.3021
10621TIP3    H153278   2.974   0.812  15.348  1.1678 -1.3108 -0.6945
10621TIP3    H253279   2.844   0.744  15.309  0.9625 -0.4700 -1.4958
10622TIP3   OH253280   3.776   5.368  14.532  0.1105 -0.6568  0.2418
10622TIP3    H153281   3.868   5.365  14.559 -0.2765 -0.8309  1.5722
10622TIP3    H253282   3.771   5.442  14.472  0.6668  0.7474  1.9022
10623TIP3   OH253283   4.967   0.477  11.818  0.1414 -0.0898 -0.4939
10623TIP3    H153284   5.017   0.435  11.748 -0.5821 -1.3823 -0.2417
10623TIP3    H253285   5.023   0.470  11.895 -0.4034 -1.5381 -0.2115
10624TIP3   OH253286   0.575   5.221  12.378 -0.7541 -0.5711 -0.4186
10624TIP3    H153287   0.606   5.280  12.309 -2.8323  1.9497  0.6877
10624TIP3    H253288   0.613   5.257  12.458 -2.2326 -0.5534  0.2913
10625TIP3   OH253289   5.064   6.566   0.574  0.1768  0.2918  0.2511
10625TIP3    H153290   5.095   6.545   0.485 -1.9678 -0.9898 -0.2400
10625TIP3    H253291   5.119   6.512   0.631 -0.0709 -0.7562 -0.4773
10626TIP3   OH253292   1.308   1.233   0.923 -0.6127 -0.0663 -0.5485
10626TIP3    H153293   1.399   1.204   0.920  0.2323  2.4599 -0.4274
10626TIP3    H253294   1.285   1.252   0.832 -0.2194  1.5431 -0.3396
10627TIP3   OH253295   4.990   4.037  13.631 -0.2193 -0.3469  0.0898
10627TIP3    H153296   4.918   3.979  13.604  2.1494 -3.6241  0.5799
10627TIP3    H253297   4.979   4.046  13.726 -0.5391 -0.0470  0.0250
10628TIP3   OH253298   0.386   0.064  14.842 -0.0834 -0.8422 -0.2138
10628TIP3    H153299   0.341  -0.017  14.866  0.4272 -1.4938 -1.4434
10628TIP3    H253300   0.317   0.129  14.837 -0.4822 -1.1665  0.9099
10629TIP3   OH253301   1.810   5.127   4.791  0.3784  0.3054  0.1851
10629TIP3    H153302   1.741   5.078   4.835  2.9538 -2.1094  1.6542
10629TIP3    H253303   1.861   5.167   4.862  1.7306  0.3043 -0.7571
10630TIP3   OH253304   4.518   2.532  11.770  0.2943  0.2108 -0.3899
10630TIP3    H153305   4.516   2.571  11.683  0.5133  0.7967 -0.1314
10630TIP3    H253306   4.434   2.487  11.779  0.3124  0.0711 -0.9366
10631TIP3   OH253307   1.945   0.581   1.815 -0.2839  0.3126  0.5006
10631TIP3    H153308   1.919   0.579   1.907 -0.8894 -0.0746  0.3265
10631TIP3    H253309   2.034   0.617   1.816  0.1149 -0.6657  1.3293
10632TIP3   OH253310   0.747   5.674   4.506  0.3552 -0.6292  0.1347
10632TIP3    H153311   0.742   5.763   4.543  0.6334 -0.7144  0.3785
10632TIP3    H253312   0.660   5.658   4.470 -0.6817 -1.4923  2.9076
10633TIP3   OH253313   5.553   5.259   5.479 -0.4980  0.3600 -0.2759
10633TIP3    H153314   5.617   5.207   5.528 -2.7467 -0.2544  2.0828
10633TIP3    H253315   5.563   5.348   5.514 -1.7767  0.0149  0.9909
10634TIP3   OH253316   3.121   2.660  11.177 -0.1029  0.0932 -0.0491
10634TIP3    H153317   3.200   2.661  11.123 -0.8416 -1.7234 -1.2126
10634TIP3    H253318   3.050   2.676  11.115 -0.8992 -1.2795  0.5084
10635TIP3   OH253319   0.795   0.940   1.783 -0.0792 -0.2716  0.1853
10635TIP3    H153320   0.818   0.869   1.843 -0.4778 -0.1345  0.5010
10635TIP3    H253321   0.720   0.983   1.824 -0.1759 -0.0020 -0.2706
10636TIP3   OH253322   4.450   5.526  14.224 -0.3284 -0.5192  0.9050
10636TIP3    H153323   4.389   5.567  14.162 -0.9545 -1.6166  0.7959
10636TIP3    H253324   4.457   5.589  14.296 -1.4781 -0.3219  0.8548
10637TIP3   OH253325   1.749   0.762   3.173  0.2252  0.2670 -0.2432
10637TIP3    H153326   1.768   0.782   3.081  0.3805  1.6792  0.0997
10637TIP3    H253327   1.827   0.716   3.204 -0.5323 -1.8205 -1.2922
10638TIP3   OH253328   2.040   1.596   2.554 -0.0241 -0.0335  0.0852
10638TIP3    H153329   2.081   1.675   2.589  0.5179  0.2976 -1.2638
10638TIP3    H253330   2.065   1.594   2.462 -2.9844  0.1539 -0.7903
10639TIP3   OH253331   3.262   3.240   0.917 -0.5624 -0.2909  0.9645
10639TIP3    H153332   3.196   3.287   0.968 -1.4701 -0.7689  0.2484
10639TIP3    H253333   3.212   3.200   0.846  0.6212 -0.0220 -0.0197
10640TIP3   OH253334   3.598   1.653  15.635  0.1327  0.2059  0.2016
10640TIP3    H153335   3.645   1.736  15.643 -0.7102  0.7545 -0.4138
10640TIP3    H253336   3.667   1.587  15.624  0.7576  1.0026 -0.7588
10641TIP3   OH253337   1.228   4.718   3.140 -0.0615  0.9100  0.1372
10641TIP3    H153338   1.302   4.775   3.122  1.0407 -0.8207 -1.0200
10641TIP3    H253339   1.201   4.741   3.229  0.8833  2.6151  0.0088
10642TIP3   OH253340   4.165   3.787  10.436  0.1271  0.0739  0.2251
10642TIP3    H153341   4.225   3.858  10.455 -0.8248  1.2077 -0.8995
10642TIP3    H253342   4.079   3.829  10.428  0.0132 -0.6796 -3.5349
10643TIP3   OH253343   4.159   0.577   1.835 -0.4432  0.0787  0.2712
10643TIP3    H153344   4.215   0.502   1.854  0.4913  0.5490 -0.6458
10643TIP3    H253345   4.096   0.544   1.771  0.0592  0.1146 -0.2440
10644TIP3   OH253346   4.159   0.158  14.738  0.6780  0.0583  0.5094
10644TIP3    H153347   4.142   0.236  14.791  0.4675 -0.8195  1.7756
10644TIP3    H253348   4.252   0.140  14.751  1.3853  1.6201 -1.9386
10645TIP3   OH253349   2.837   3.356   4.194 -0.1697  0.0688  0.0066
10645TIP3    H153350   2.752   3.396   4.212  0.4143  0.1932  2.7492
10645TIP3    H253351   2.822   3.262   4.202  0.1023  0.1266  1.3461
10646TIP3   OH253352   3.843   3.678   1.655  0.3545  0.1287 -0.5033
10646TIP3    H153353   3.859   3.596   1.701  0.6404 -0.1736 -1.1250
10646TIP3    H253354   3.897   3.671   1.576  0.6867  1.0872 -0.3615
10647TIP3   OH253355   0.205   2.679   6.447  0.0438 -0.2353  0.9938
10647TIP3    H153356   0.115   2.711   6.440 -0.4020 -1.0463  2.5942
10647TIP3    H253357   0.205   2.595   6.400  0.0680 -0.0252  0.6221
10648TIP3   OH253358   5.357   3.660   2.748 -0.8297 -0.4417  0.0263
10648TIP3    H153359   5.300   3.588   2.721 -0.7888 -0.0954 -0.9987
10648TIP3    H253360   5.387   3.699   2.666  0.5146 -0.3306  0.5551
10649TIP3   OH253361   3.883   5.180   0.301  0.3983 -0.0925  0.4695
10649TIP3    H153362   3.810   5.211   0.354 -1.0282 -1.3553 -0.6981
10649TIP3    H253363   3.842   5.141   0.224  2.2459 -1.9408  0.3695
10650TIP3   OH253364   1.538   3.565  12.664  0.6397  0.4698  0.1982
10650TIP3    H153365   1.618   3.615  12.681  0.7000  0.4970 -0.1532
10650TIP3    H253366   1.563   3.503  12.596  0.8245 -0.7352  1.3618
10651TIP3   OH253367   2.626   0.113  15.762  0.7193  0.5048 -0.3186
10651TIP3    H153368   2.586   0.125  15.849  1.6358 -2.6542  0.6131
10651TIP3    H253369   2.710   0.158  15.768  0.7973  0.2676  0.4867
10652TIP3   OH253370   1.919   4.401  14.127  0.2284  0.1509 -0.3223
10652TIP3    H153371   1.909   4.393  14.222 -0.2975  1.4978 -0.2599
10652TIP3    H253372   1.963   4.485  14.114  1.2446 -0.5049 -1.2211
10653TIP3   OH253373   0.850   2.005  14.707  0.6850  0.1680  0.0561
10653TIP3    H153374   0.882   2.059  14.779 -1.0979  0.2697  0.7987
10653TIP3    H253375   0.794   2.063  14.656  0.3948 -0.4240 -0.3099
10654TIP3   OH253376   3.724   0.282   3.687 -0.3499  0.4281 -0.1463
10654TIP3    H153377   3.755   0.326   3.608  0.9272  0.3495  0.3047
10654TIP3    H253378   3.803   0.249   3.729 -1.0276  0.3691  1.1107
10655TIP3   OH253379   4.227   1.019  13.588  0.3339  0.6021 -0.0869
10655TIP3    H153380   4.290   0.949  13.569  0.1224  0.9538 -2.2100
10655TIP3    H253381   4.149   0.996  13.538  0.4219  2.5612 -1.1970
10656TIP3   OH253382   4.673   2.013   3.271  0.5751 -0.0115  0.0259
10656TIP3    H153383   4.652   1.922   3.249 -2.5578  0.7644 -0.5446
10656TIP3    H253384   4.739   2.038   3.207 -1.4727 -0.7202 -2.4584
10657TIP3   OH253385   4.452   3.869  14.842 -0.0147 -0.1097  0.0293
10657TIP3    H153386   4.386   3.871  14.910 -0.8901  0.2839 -0.8205
10657TIP3    H253387   4.534   3.892  14.887 -0.0685 -2.6595  1.4867
10658TIP3   OH253388   5.417   2.516  10.539 -0.8347  0.2403  0.4279
10658TIP3    H153389   5.337   2.565  10.521 -2.1138 -1.5086  1.2379
10658TIP3    H253390   5.396   2.426  10.514  0.4785 -0.4569  1.7783
10659TIP3   OH253391   6.543   1.895   1.149 -0.2971 -0.4258  0.1502
10659TIP3    H153392   6.475   1.869   1.211 -1.8977  0.7356 -1.0699
10659TIP3    H253393   6.616   1.836   1.167 -1.0215 -0.6065  2.5963
10660TIP3   OH253394   0.029   2.939  11.553 -0.4301 -0.2802 -0.3079
10660TIP3    H153395   0.115   2.967  11.585 -0.0927 -0.0027 -1.4471
10660TIP3    H253396  -0.028   3.014  11.569 -0.3177 -0.2317 -0.1298
10661TIP3   OH253397   2.845   4.670  12.394 -0.8081  0.2456  0.0319
10661TIP3    H153398   2.832   4.718  12.312  1.1705  1.1802  0.2335
10661TIP3    H253399   2.771   4.696  12.449 -1.2790  0.8627 -0.8731
10662TIP3   OH253400   3.321   0.516  14.447 -0.1758  0.2456  0.0593
10662TIP3    H153401   3.416   0.504  14.453 -0.2425 -0.7367 -0.6685
10662TIP3    H253402   3.285   0.466  14.521 -0.1338  0.4774  0.2354
10663TIP3   OH253403   1.092   1.643  16.737  0.0386 -0.1017  0.0616
10663TIP3    H153404   1.092   1.728  16.781  1.7478 -0.6556  1.1918
10663TIP3    H253405   1.099   1.664  16.644 -0.4494  1.0057  0.2631
10664TIP3   OH253406   1.222   5.852  16.871 -0.1072  0.0989  0.2415
10664TIP3    H153407   1.264   5.894  16.946  0.9379  3.1781 -1.9979
10664TIP3    H253408   1.140   5.900  16.859  0.9662  1.4203 -2.1680
10665TIP3   OH253409   1.212   4.512   4.664 -0.1890  0.5857  0.1685
10665TIP3    H153410   1.215   4.538   4.756  2.7040  1.8939 -0.2604
10665TIP3    H253411   1.294   4.464   4.650 -1.1317 -0.6019 -1.4626
10666TIP3   OH253412   5.600   2.227   5.582 -0.3033  0.8991 -0.0333
10666TIP3    H153413   5.684   2.271   5.569  0.1869 -0.2353 -0.7511
10666TIP3    H253414   5.582   2.184   5.499  0.0712 -1.6674  1.1636
10667TIP3   OH253415   4.639   3.014   2.424  0.5030  0.0880 -0.1028
10667TIP3    H153416   4.705   2.970   2.371 -0.9843 -1.2580 -0.8699
10667TIP3    H253417   4.596   3.074   2.363 -1.8784 -2.1766 -0.7349
10668TIP3   OH253418   2.872   2.555   0.588  0.2130  0.4369 -0.3858
10668TIP3    H153419   2.783   2.547   0.551 -0.0463  2.4385 -0.2475
10668TIP3    H253420   2.858   2.557   0.682  0.2991  1.7729 -0.3924
10669TIP3   OH253421   0.225   6.433   5.871 -0.0300 -0.4955  0.3562
10669TIP3    H153422   0.296   6.440   5.935 -1.3068 -0.3681  1.7745
10669TIP3    H253423   0.234   6.345   5.834  1.6043 -0.0465 -0.3688
10670TIP3   OH253424   5.845   2.099  11.210 -0.0579 -0.3505 -0.0533
10670TIP3    H153425   5.914   2.052  11.164  0.7840  1.1926 -0.4018
10670TIP3    H253426   5.764   2.072  11.167  0.5132 -0.7119 -0.9016
10671TIP3   OH253427   4.898   1.055   0.956 -0.2365  0.1999  0.8171
10671TIP3    H153428   4.874   1.142   0.988  0.5161  0.9043 -0.4541
10671TIP3    H253429   4.867   1.054   0.865 -0.7643 -1.0887  0.9958
10672TIP3   OH253430   1.919   2.429  12.273  0.9399  0.1811  0.6434
10672TIP3    H153431   1.854   2.388  12.215  0.6359  0.6748  0.6319
10672TIP3    H253432   1.963   2.355  12.315 -0.0934 -0.1561  1.1607
10673TIP3   OH253433   1.803   3.652   1.486 -0.3598 -0.3134 -0.2297
10673TIP3    H153434   1.889   3.645   1.444 -0.3191  0.0262 -0.2059
10673TIP3    H253435   1.813   3.723   1.549 -0.3090 -1.0819  0.6373
10674TIP3   OH253436   1.594   4.716   4.032  0.0955  0.9432  0.0451
10674TIP3    H153437   1.592   4.699   3.938  1.1825 -0.8193  0.3245
10674TIP3    H253438   1.686   4.738   4.050  0.0936  0.2848  0.8651
10675TIP3   OH253439   5.827   3.588  16.260  0.3105 -0.2123  0.1469
10675TIP3    H153440   5.797   3.594  16.169  0.4130 -0.7158  0.0839
10675TIP3    H253441   5.917   3.558  16.254  0.1965 -0.6039  0.4359
10676TIP3   OH253442   4.517   0.635  12.729 -0.4423  0.4014  0.4069
10676TIP3    H153443   4.574   0.558  12.720  0.8039  1.1359  1.8608
10676TIP3    H253444   4.472   0.623  12.812 -3.4041 -0.7782 -1.2902
10677TIP3   OH253445   3.893   3.384   5.182 -0.4797 -0.0507  0.2471
10677TIP3    H153446   3.984   3.381   5.212  0.4962 -1.3754 -2.6795
10677TIP3    H253447   3.875   3.477   5.169  1.2809  0.0721 -1.4542
10678TIP3   OH253448   2.520   5.701   3.460 -0.3907  0.2557  0.0467
10678TIP3    H153449   2.425   5.693   3.462 -0.4639  1.1930  0.3169
10678TIP3    H253450   2.537   5.789   3.427  0.4079 -0.3559 -1.2096
10679TIP3   OH253451   3.318   5.856  11.056  0.4812  0.1953 -0.3586
10679TIP3    H153452   3.374   5.841  10.980 -2.3623  0.6760 -2.6293
10679TIP3    H253453   3.307   5.951  11.060 -0.1854  0.1059  0.0164
10680TIP3   OH253454   1.962   0.574   4.684 -0.0906 -0.2404  0.3714
10680TIP3    H153455   1.871   0.568   4.712 -0.2945  2.3618  0.3299
10680TIP3    H253456   1.962   0.639   4.614  1.8277 -0.1221  0.4437
10681TIP3   OH253457   5.301   1.511  11.301 -0.2761 -0.2410  0.1354
10681TIP3    H153458   5.283   1.605  11.298  0.2231 -0.1404  0.2963
10681TIP3    H253459   5.330   1.489  11.213 -2.3019 -0.6308 -0.4485
10682TIP3   OH253460   5.127   0.624   5.029 -0.4771  0.6987 -0.3690
10682TIP3    H153461   5.137   0.574   4.948 -0.6200 -1.8889  1.1527
10682TIP3    H253462   5.216   0.651   5.052 -0.1262 -0.5892 -0.1652
10683TIP3   OH253463   4.009   6.525  12.771  0.2052 -0.6929  0.1997
10683TIP3    H153464   4.036   6.615  12.791 -3.3557  0.3020  0.9045
10683TIP3    H253465   3.997   6.485  12.857  0.7379 -1.5258 -0.1151
10684TIP3   OH253466   1.737   0.947  15.415 -0.1940  0.2634 -0.1702
10684TIP3    H153467   1.790   0.953  15.495  1.3432  2.1292 -1.2551
10684TIP3    H253468   1.741   1.036  15.378 -2.5460 -0.0588 -1.2815
10685TIP3   OH253469   3.043   0.049   1.435  0.1605 -0.1816  0.1346
10685TIP3    H153470   3.065   0.007   1.352 -2.0912 -0.5158 -0.3294
10685TIP3    H253471   3.077  -0.009   1.502  0.9586 -0.5035 -0.5520
10686TIP3   OH253472   5.891   0.013   0.419 -0.4331 -0.3468 -0.2868
10686TIP3    H153473   5.875   0.071   0.494  2.9458  0.2365  0.0527
10686TIP3    H253474   5.843   0.054   0.347 -0.3591  1.3747  0.6050
10687TIP3   OH253475   3.938   2.100   2.575 -0.0579 -0.0082 -0.2007
10687TIP3    H153476   3.960   2.187   2.608  2.1722 -0.2393 -1.0023
10687TIP3    H253477   4.009   2.043   2.606 -1.7444 -1.6529  0.7421
10688TIP3   OH253478   3.523   0.004  16.273 -0.1508 -0.2573  0.1700
10688TIP3    H153479   3.459   0.008  16.344  0.3041 -0.6816  0.6073
10688TIP3    H253480   3.604   0.038  16.312  0.3100 -1.2582  0.0886
10689TIP3   OH253481   2.136   5.445   2.373  0.2846  0.3824 -0.3421
10689TIP3    H153482   2.115   5.468   2.283  1.1053  1.6858 -0.2212
10689TIP3    H253483   2.121   5.351   2.379  3.3413 -0.3469 -2.7423
10690TIP3   OH253484   0.239   4.510   1.231 -0.2728 -0.5353 -0.7469
10690TIP3    H153485   0.184   4.588   1.242  0.7428 -0.0586  1.1953
10690TIP3    H253486   0.181   4.437   1.250 -0.8870 -0.1791 -1.2459
10691TIP3   OH253487   1.393   0.075  11.055  0.7396 -0.0892 -0.2898
10691TIP3    H153488   1.376   0.020  10.978 -0.6430 -1.4869  1.0046
10691TIP3    H253489   1.404   0.014  11.127 -0.0244  1.2857  1.0309
10692TIP3   OH253490   0.468   4.931   3.117  0.6097 -0.3826  0.2088
10692TIP3    H153491   0.530   4.907   3.048  1.1172  0.3664  0.3985
10692TIP3    H253492   0.382   4.921   3.077  0.8819 -0.5833 -0.3281
10693TIP3   OH253493   4.752   5.859  13.996  0.2285  0.3088 -0.2197
10693TIP3    H153494   4.831   5.851  14.049 -0.4198  1.4799  0.9219
10693TIP3    H253495   4.680   5.838  14.055 -0.5523  2.2554 -0.4415
10694TIP3   OH253496   6.597   2.313   3.873  0.4685  0.5361  0.0830
10694TIP3    H153497   6.570   2.278   3.788  0.0846  0.1407  0.3666
10694TIP3    H253498   6.682   2.273   3.890 -0.2268 -0.6925  0.6666
10695TIP3   OH253499   6.194   0.279   3.523  0.1191  0.3133  0.5274
10695TIP3    H153500   6.144   0.199   3.508  0.3841 -0.0378  1.5030
10695TIP3    H253501   6.131   0.339   3.565 -0.0909  0.6343 -0.2418
10696TIP3   OH253502   2.514   3.224   3.865 -0.0757 -0.1355  0.1518
10696TIP3    H153503   2.476   3.171   3.935 -1.4335 -0.9021 -1.1440
10696TIP3    H253504   2.594   3.177   3.841  1.5162  1.2250  2.5545
10697TIP3   OH253505   3.010   5.518   4.948  0.4934 -0.3117  0.4658
10697TIP3    H153506   2.979   5.548   4.863 -1.2340  0.1578  1.2246
10697TIP3    H253507   2.953   5.444   4.970 -0.1426  0.5705  1.9043
10698TIP3   OH253508   1.855   1.888   2.296 -0.0780  0.2987 -0.2108
10698TIP3    H153509   1.760   1.876   2.298 -0.0382  0.1419  1.8253
10698TIP3    H253510   1.890   1.801   2.277 -0.3220  0.2590 -0.4806
10699TIP3   OH253511   6.091   5.785  11.308 -0.1862 -0.1436  0.0435
10699TIP3    H153512   6.021   5.838  11.271  0.7028 -0.3928 -2.0773
10699TIP3    H253513   6.069   5.777  11.401 -1.7262  1.6943 -0.1367
10700TIP3   OH253514   0.240   4.072  15.335  0.0903 -0.2433  0.3197
10700TIP3    H153515   0.318   4.120  15.364  0.7871 -2.5031  2.3252
10700TIP3    H253516   0.272   4.012  15.268 -0.3190  0.2418 -0.3182
10701TIP3   OH253517   2.854   6.325   2.310  0.2565 -0.0531  0.0130
10701TIP3    H153518   2.836   6.384   2.384  0.1851 -0.4090  0.2818
10701TIP3    H253519   2.786   6.346   2.246  0.5667  0.5476 -0.1232
10702TIP3   OH253520   4.070   3.578  13.245  0.4194  0.0968  0.5343
10702TIP3    H153521   4.061   3.660  13.196  1.2112  0.5680  1.1646
10702TIP3    H253522   4.140   3.531  13.200 -0.2073 -0.3475  0.0196
10703TIP3   OH253523   0.997   2.550  16.881 -0.1789  0.3402 -0.1300
10703TIP3    H153524   1.028   2.502  16.958 -0.0571 -1.2433 -1.1351
10703TIP3    H253525   0.902   2.534  16.880 -0.1313  0.0855 -0.4948
10704TIP3   OH253526   2.100   4.870  15.695 -0.2208 -0.4052 -0.1850
10704TIP3    H153527   2.125   4.840  15.782  1.1893  2.2023  0.3533
10704TIP3    H253528   2.175   4.850  15.639 -0.3969 -0.4317 -0.4147
10705TIP3   OH253529   6.704   2.523   6.463 -0.6144  0.1940 -0.3529
10705TIP3    H153530   6.748   2.437   6.462  0.9207  0.9101  1.3148
10705TIP3    H253531   6.611   2.502   6.454 -0.2569 -1.6494 -0.1188
10706TIP3   OH253532   3.688   1.853   1.514 -0.3983  0.1198  0.6307
10706TIP3    H153533   3.763   1.893   1.557 -1.5119  3.7450 -0.6424
10706TIP3    H253534   3.690   1.887   1.425 -3.2402 -0.1329  0.4183
10707TIP3   OH253535   5.959   6.289   4.311  0.6112  0.5765  0.0523
10707TIP3    H153536   6.047   6.317   4.284  1.8788 -2.8601  0.4219
10707TIP3    H253537   5.943   6.338   4.391  1.8625  1.8122 -0.4170
10708TIP3   OH253538   2.457   5.533   2.602 -0.0025 -0.2607  0.1917
10708TIP3    H153539   2.483   5.517   2.512  3.1147  2.0221  0.5993
10708TIP3    H253540   2.463   5.447   2.645 -1.8881 -1.4305 -1.7897
10709TIP3   OH253541   6.323   2.817  12.358 -0.2802  0.1077 -0.5405
10709TIP3    H153542   6.376   2.742  12.331 -0.0582  0.2729 -0.5645
10709TIP3    H253543   6.361   2.843  12.442 -0.4362  0.1154 -0.4716
10710TIP3   OH253544   4.835   4.249   1.807  0.0969  0.1700 -0.3631
10710TIP3    H153545   4.876   4.311   1.746  0.1446 -0.1110 -0.6146
10710TIP3    H253546   4.767   4.206   1.756 -1.5896  1.7457  0.4572
10711TIP3   OH253547   5.989   2.242  13.343 -0.7281 -0.3217 -0.6282
10711TIP3    H153548   5.934   2.163  13.341  1.2251 -1.7283 -0.3785
10711TIP3    H253549   6.067   2.216  13.392  0.6731  1.2926 -1.9442
10712TIP3   OH253550   2.065   1.061   0.546  0.4225 -0.1162 -0.0168
10712TIP3    H153551   1.981   1.084   0.506 -0.2464 -0.7877  0.9808
10712TIP3    H253552   2.097   1.143   0.584 -0.1952 -0.0369  0.3396
10713TIP3   OH253553   5.662   4.058  12.705  0.1494  0.5715  0.2786
10713TIP3    H153554   5.698   3.970  12.713 -0.5437  0.0326 -2.1682
10713TIP3    H253555   5.587   4.059  12.766 -0.3199 -0.7839 -0.2543
10714TIP3   OH253556   3.469   2.263  13.666  0.0645  0.3598 -0.1513
10714TIP3    H153557   3.530   2.320  13.712  0.5540 -0.4099  0.1731
10714TIP3    H253558   3.523   2.222  13.597 -0.7705  1.8790 -1.7375
10715TIP3   OH253559   1.246   1.359  16.162  0.3305  0.4104 -0.1927
10715TIP3    H153560   1.210   1.447  16.150  0.2814  0.3247 -0.6923
10715TIP3    H253561   1.315   1.353  16.096  0.7302  0.2887  0.2373
10716TIP3   OH253562   0.488   6.036   0.264  0.4048 -0.2490 -0.0136
10716TIP3    H153563   0.456   6.104   0.324 -1.5220 -0.8078 -0.3751
10716TIP3    H253564   0.512   6.083   0.185  0.4766  0.1856  0.2668
10717TIP3   OH253565   2.402   6.280  13.297  0.1435  0.4457 -0.0949
10717TIP3    H153566   2.384   6.197  13.340  0.0534  0.1427 -0.7206
10717TIP3    H253567   2.488   6.268  13.257  1.6704  1.7886  2.6500
10718TIP3   OH253568   0.372   1.305  13.843  0.3091  0.0118  0.0349
10718TIP3    H153569   0.316   1.373  13.806  0.3423  0.6903  1.1879
10718TIP3    H253570   0.321   1.268  13.915 -0.3945 -2.3784 -1.6532
10719TIP3   OH253571   0.034   4.615   3.597  0.0570  0.1232  0.1211
10719TIP3    H153572  -0.044   4.638   3.548  0.5717  1.5915 -0.0307
10719TIP3    H253573   0.002   4.569   3.674 -0.8750 -0.3286 -0.5314
10720TIP3   OH253574   3.878   2.593  16.860  0.4921  0.3952 -0.0493
10720TIP3    H153575   3.913   2.566  16.945  1.0874 -0.5045 -0.5709
10720TIP3    H253576   3.916   2.531  16.798  2.5779  2.9184 -1.4024
10721TIP3   OH253577   2.512   1.950   4.470  0.0663 -0.3884 -0.0075
10721TIP3    H153578   2.505   1.903   4.387  0.7620 -0.2249 -0.1565
10721TIP3    H253579   2.502   1.882   4.537 -0.0769 -0.5810 -0.2231
10722TIP3   OH253580   3.747   4.910   2.912 -0.5841  0.1778  0.0582
10722TIP3    H153581   3.746   5.006   2.912  1.4441  0.2247 -1.4801
10722TIP3    H253582   3.794   4.887   2.832 -0.5609 -2.1015  0.7182
10723TIP3   OH253583   3.878   1.371  13.547  0.1745 -0.2705 -0.2428
10723TIP3    H153584   3.842   1.283  13.554  1.6878 -1.0588 -2.0251
10723TIP3    H253585   3.955   1.369  13.604  0.5947 -0.3112 -0.8099
10724TIP3   OH253586   0.674   0.751  16.175 -1.0654  0.3445  0.0830
10724TIP3    H153587   0.583   0.768  16.155 -0.8523  0.6119 -0.6802
10724TIP3    H253588   0.676   0.734  16.269 -2.0220 -0.5068 -0.0449
10725TIP3   OH253589   2.140   5.940  15.132 -0.6522 -0.0197  0.5122
10725TIP3    H153590   2.184   5.887  15.065 -0.3103  0.8807  0.0176
10725TIP3    H253591   2.182   5.914  15.214 -0.6485 -0.6850  0.3044
10726TIP3   OH253592   2.205   5.087  13.701 -0.3949  0.2763  0.1018
10726TIP3    H153593   2.137   5.077  13.635 -0.8676 -1.7091  0.8565
10726TIP3    H253594   2.276   5.030  13.671 -0.7280 -0.8542  1.4364
10727TIP3   OH253595   1.708   5.387   4.111 -0.2295  0.3375 -0.3596
10727TIP3    H153596   1.783   5.426   4.066 -0.6061  1.8494  0.3252
10727TIP3    H253597   1.698   5.301   4.069  0.1802  1.2266 -2.3213
10728TIP3   OH253598   2.866   0.055   2.277  0.1722 -0.6932 -0.7759
10728TIP3    H153599   2.921  -0.021   2.258 -0.0628 -0.9283 -0.5079
10728TIP3    H253600   2.777   0.020   2.283  0.1545 -0.5154  0.0584
10729TIP3   OH253601   0.599   5.455  12.928 -0.0867  0.9547 -0.1268
10729TIP3    H153602   0.624   5.378  12.979 -0.2281  1.6994  1.0927
10729TIP3    H253603   0.542   5.421  12.859  0.8126 -0.1832 -0.3303
10730TIP3   OH253604   2.286   3.499   3.609  0.1233  0.6332 -0.5007
10730TIP3    H153605   2.257   3.429   3.668  1.7176  1.8829  1.8391
10730TIP3    H253606   2.367   3.466   3.570 -1.2248 -0.4290 -2.5244
10731TIP3   OH253607   3.145   0.747  17.089  0.0247 -0.6797 -0.0224
10731TIP3    H153608   3.152   0.711  17.000  1.2871  0.4746 -0.4079
10731TIP3    H253609   3.235   0.749  17.121 -0.3394 -0.3383  0.9979
10732TIP3   OH253610   5.664   3.031   4.245  0.2042 -0.7726 -0.6809
10732TIP3    H153611   5.673   3.036   4.340 -1.2194  1.3929 -0.6168
10732TIP3    H253612   5.730   2.968   4.217  1.4920 -0.4795  1.6249
10733TIP3   OH253613   3.980   2.683  12.790  0.0346  0.0073 -0.0558
10733TIP3    H153614   4.023   2.656  12.709  0.4118 -0.5223  0.3127
10733TIP3    H253615   3.903   2.627  12.798 -0.1666  0.2647 -0.2046
10734TIP3   OH253616   0.720   5.948  16.513 -0.3716 -0.7000 -0.2759
10734TIP3    H153617   0.748   6.026  16.466 -0.1546 -1.7352 -1.8737
10734TIP3    H253618   0.671   5.982  16.588  0.6105  0.9838 -0.3824
10735TIP3   OH253619   0.953   1.911  13.773  0.0304 -0.4864 -0.2204
10735TIP3    H153620   0.916   1.897  13.686  1.0472  1.0418 -0.9148
10735TIP3    H253621   0.988   1.825  13.798 -0.6805 -1.0514 -1.1086
10736TIP3   OH253622   6.632   2.054  16.278 -0.2648 -0.2391  0.7142
10736TIP3    H153623   6.653   2.008  16.197  0.0647 -0.7265  1.0737
10736TIP3    H253624   6.618   2.144  16.251  0.2740 -0.3111  0.1738
10737TIP3   OH253625   5.188   2.198   2.475  0.0153 -0.3029  0.2214
10737TIP3    H153626   5.273   2.209   2.432 -0.2644 -2.8971 -1.0848
10737TIP3    H253627   5.206   2.215   2.568  2.2069 -1.8672  0.1275
10738TIP3   OH253628   3.467   4.206  11.907 -0.2234 -0.2171 -0.4471
10738TIP3    H153629   3.494   4.297  11.890  0.4160 -0.3020  0.0881
10738TIP3    H253630   3.373   4.212  11.923 -0.0412  0.4812  0.4564
10739TIP3   OH253631   2.448   2.377  13.130  0.1081 -0.0212 -0.2912
10739TIP3    H153632   2.527   2.403  13.177 -2.0097  0.2607  3.2859
10739TIP3    H253633   2.474   2.300  13.079  3.2802  1.5779 -1.2441
10740TIP3   OH253634   1.534   1.844   1.597 -0.1926 -0.4346  1.2201
10740TIP3    H153635   1.594   1.875   1.529 -1.5836 -0.8548 -0.2296
10740TIP3    H253636   1.520   1.752   1.576 -0.6960 -0.5478  2.0425
10741TIP3   OH253637   6.349   6.730   1.661  0.1140 -0.2183 -0.3960
10741TIP3    H153638   6.254   6.737   1.652  0.1518 -0.7148 -1.3115
10741TIP3    H253639   6.380   6.820   1.660 -0.3355 -0.0641 -0.3038
10742TIP3   OH253640   0.443   4.176  10.455  0.1391 -0.1574 -0.3497
10742TIP3    H153641   0.493   4.254  10.478  0.1470 -0.2011 -0.2145
10742TIP3    H253642   0.461   4.162  10.362 -0.7832  0.6739 -0.6746
10743TIP3   OH253643   2.293   4.392   3.167  0.7054 -0.6688  0.6377
10743TIP3    H153644   2.244   4.330   3.113  0.1429 -1.5542  2.1615
10743TIP3    H253645   2.234   4.467   3.178  0.0665 -1.3123  1.6392
10744TIP3   OH253646   3.202   3.146   4.627  0.1079 -0.1474 -0.1205
10744TIP3    H153647   3.268   3.133   4.694  1.7397  1.5518 -1.3413
10744TIP3    H253648   3.148   3.219   4.659 -1.2816 -1.5986  0.9222
10745TIP3   OH253649   5.537   0.568  11.045  0.1938  0.1957  0.2187
10745TIP3    H153650   5.509   0.477  11.031 -0.7710  0.6864 -1.0885
10745TIP3    H253651   5.630   0.568  11.024  0.5351 -0.7866  1.6254
10746TIP3   OH253652   0.801   1.774   0.002  0.6662 -0.1053  0.1424
10746TIP3    H153653   0.769   1.694   0.042  0.1971  0.4052  0.8114
10746TIP3    H253654   0.800   1.757  -0.092  1.3002 -1.1459  0.3198
10747TIP3   OH253655   4.981   5.253   2.525  0.5239  0.1415  0.3772
10747TIP3    H153656   4.975   5.344   2.496  2.4874  0.1709  0.0273
10747TIP3    H253657   4.895   5.216   2.505 -0.4292  2.0113  0.8757
10748TIP3   OH253658   0.155   6.657   0.234  0.1020 -1.1158 -0.0859
10748TIP3    H153659   0.227   6.705   0.275 -1.6396 -0.3380  2.1639
10748TIP3    H253660   0.154   6.572   0.278 -0.1691 -1.2428 -0.3323
10749TIP3   OH253661   1.888   0.095  13.786  0.5338  0.4828 -0.2863
10749TIP3    H153662   1.885   0.058  13.874  1.8407 -0.4822 -0.6257
10749TIP3    H253663   1.978   0.123  13.774  0.2683  1.0058 -1.1641
10750TIP3   OH253664   4.936   3.389   0.279  0.0980  0.1854 -0.2236
10750TIP3    H153665   5.026   3.412   0.259  0.3197  0.2581  0.8440
10750TIP3    H253666   4.885   3.426   0.207  0.7693  1.3820 -0.0888
10751TIP3   OH253667   3.374   3.350   2.689 -0.0793  0.0779 -0.6711
10751TIP3    H153668   3.442   3.384   2.630 -1.6493 -0.6552 -2.9652
10751TIP3    H253669   3.310   3.421   2.695  0.6969  0.6626  1.2762
10752TIP3   OH253670   0.747   5.026  15.779 -0.0175  0.0816  0.0775
10752TIP3    H153671   0.696   4.955  15.818 -1.3346  0.1494 -1.4400
10752TIP3    H253672   0.709   5.106  15.814 -0.4646  0.1086 -0.4576
10753TIP3   OH253673   3.324   5.372  12.458  0.2800  0.2174 -0.2275
10753TIP3    H153674   3.305   5.354  12.550 -0.4153  0.9471 -0.2233
10753TIP3    H253675   3.251   5.426  12.429  1.3116  1.3112 -0.7821
10754TIP3   OH253676   6.457   2.430   6.430 -0.1211  0.0031 -0.1653
10754TIP3    H153677   6.405   2.372   6.485 -0.5351  1.0785  0.5870
10754TIP3    H253678   6.409   2.512   6.429 -0.0160  0.0634 -1.9823
10755TIP3   OH253679   3.318   3.047  16.073 -0.2741 -0.7680 -0.1757
10755TIP3    H153680   3.230   3.074  16.050  0.6979  1.3847 -1.5424
10755TIP3    H253681   3.366   3.048  15.990  1.0765 -1.6706  0.5746
10756TIP3   OH253682   5.861   1.810  14.376 -0.1228  0.3670 -0.0723
10756TIP3    H153683   5.831   1.888  14.423  2.2541  1.2980 -0.0558
10756TIP3    H253684   5.830   1.823  14.286 -0.6516  0.8082  0.1724
10757TIP3   OH253685   2.134   3.071  16.077  0.0763  0.9625 -0.4100
10757TIP3    H153686   2.085   3.132  16.133 -0.8185  0.9739 -1.1865
10757TIP3    H253687   2.068   3.034  16.019  0.7110 -0.3492 -0.3080
10758TIP3   OH253688   0.912   6.428  13.020 -0.0496  0.0435  0.3613
10758TIP3    H153689   0.921   6.482  12.941 -0.5483 -0.2288  0.1158
10758TIP3    H253690   0.829   6.457  13.059  0.4382  0.5325  1.0610
10759TIP3   OH253691   5.023   6.463  13.031 -0.1006 -0.3766  0.4138
10759TIP3    H153692   4.989   6.531  13.089 -1.5812 -1.1611  0.5092
10759TIP3    H253693   4.999   6.492  12.943  1.1958  0.2858  0.2713
10760TIP3   OH253694   0.155   1.652   1.427  0.0501 -0.4449  0.3222
10760TIP3    H153695   0.093   1.636   1.498  1.2924 -0.9076  1.3247
10760TIP3    H253696   0.228   1.592   1.444  0.4473 -0.4470 -1.2542
10761TIP3   OH253697   4.739   4.360   3.700  0.0533 -0.0802 -0.0813
10761TIP3    H153698   4.832   4.372   3.680 -0.2811 -0.0151 -1.6249
10761TIP3    H253699   4.731   4.390   3.791  1.1493  1.9621 -0.6129
10762TIP3   OH253700   6.298   2.472   0.196  0.0492 -0.1429 -0.1348
10762TIP3    H153701   6.374   2.461   0.253 -0.6460 -1.2608  0.6097
10762TIP3    H253702   6.298   2.565   0.173  0.9115  0.1233  0.8994
10763TIP3   OH253703   1.124   6.102  11.097 -0.4018  0.0131 -0.5872
10763TIP3    H153704   1.056   6.157  11.058 -0.8218 -1.0224 -1.3360
10763TIP3    H253705   1.089   6.013  11.091 -0.3345 -0.1972  1.8924
10764TIP3   OH253706   3.227   2.835   5.223  0.3488  0.7765 -0.3181
10764TIP3    H153707   3.304   2.785   5.194 -0.0097 -2.8153  4.2977
10764TIP3    H253708   3.154   2.775   5.210 -1.1076  2.6202 -0.7837
10765TIP3   OH253709   0.782   5.014   1.626 -0.1873 -0.0908 -0.0128
10765TIP3    H153710   0.848   5.082   1.641 -0.1555 -0.4420  1.6474
10765TIP3    H253711   0.721   5.025   1.699  1.8006 -4.1180  2.4522
10766TIP3   OH253712   5.777   6.253  13.734  0.2508  0.5692  0.0697
10766TIP3    H153713   5.815   6.212  13.657 -0.9973 -0.3370 -0.0872
10766TIP3    H253714   5.850   6.298  13.776  1.1098  0.3898 -1.1899
10767TIP3   OH253715   1.753   1.256   3.139  0.0672 -0.3158  0.0513
10767TIP3    H153716   1.750   1.342   3.180 -0.8707 -0.4437  0.2661
10767TIP3    H253717   1.777   1.274   3.048 -1.1513  0.2709 -0.1562
10768TIP3   OH253718   5.759   5.139   1.280  0.8002 -0.6058 -0.1278
10768TIP3    H153719   5.754   5.171   1.370  0.0448 -1.9393  0.3089
10768TIP3    H253720   5.684   5.181   1.237  2.0167  1.2114 -0.5343
10769TIP3   OH253721   4.579   5.073   0.703 -0.0305 -0.2899  0.5155
10769TIP3    H153722   4.636   5.149   0.694 -0.2093  0.0059  1.7760
10769TIP3    H253723   4.609   5.012   0.636  1.1685  0.2311  0.5733
10770TIP3   OH253724   6.001   2.092  14.803 -0.0942  0.0531 -0.0640
10770TIP3    H153725   5.995   2.003  14.837 -1.8130  1.0438  2.4216
10770TIP3    H253726   5.910   2.121  14.795  0.4418  1.6808 -0.5703
10771TIP3   OH253727   2.764   4.391   5.684 -0.1294 -0.0105  0.2391
10771TIP3    H153728   2.696   4.333   5.717  0.3050 -0.2753  0.6664
10771TIP3    H253729   2.842   4.366   5.732  0.0232  1.0357  0.5366
10772TIP3   OH253730   4.536   5.668   2.065  0.1518 -0.1033  0.4297
10772TIP3    H153731   4.442   5.689   2.059 -0.3146 -1.6581  1.8783
10772TIP3    H253732   4.570   5.687   1.978 -1.2006  1.9437  0.3006
10773TIP3   OH253733   6.419   3.703   4.901 -0.2623 -0.0147 -0.3990
10773TIP3    H153734   6.365   3.631   4.933 -0.2198  0.5731  0.9938
10773TIP3    H253735   6.357   3.774   4.886  0.1903  0.8617  1.7885
10774TIP3   OH253736   4.454   6.384   1.182  0.0456  0.1994  0.1394
10774TIP3    H153737   4.445   6.378   1.277 -1.5215 -1.8960 -0.1074
10774TIP3    H253738   4.540   6.349   1.163 -0.1074 -0.4795  0.6932
10775TIP3   OH253739   6.770   0.160  13.039 -0.5401 -0.1236  0.0914
10775TIP3    H153740   6.730   0.074  13.022 -0.0556 -0.3207 -0.0539
10775TIP3    H253741   6.859   0.140  13.067 -0.6088  0.3104  0.6329
10776TIP3   OH253742   6.052   2.673  16.696 -0.0860  0.0326  0.2260
10776TIP3    H153743   6.108   2.636  16.764  2.5705 -0.6398 -2.2346
10776TIP3    H253744   5.986   2.606  16.681 -0.3081 -0.0915  1.6687
10777TIP3   OH253745   4.290   4.262  15.205 -0.5289 -0.0160  0.3040
10777TIP3    H153746   4.218   4.247  15.145 -2.7223  1.3278  2.5179
10777TIP3    H253747   4.248   4.284  15.288  2.3874  4.1846  0.8192
10778TIP3   OH253748   4.683   3.669   4.988  0.5937  0.5704  0.0865
10778TIP3    H153749   4.629   3.727   4.934 -0.9209 -0.7380  0.1703
10778TIP3    H253750   4.637   3.664   5.072  0.1506 -1.5412 -0.2544
10779TIP3   OH253751   6.588   6.459   5.086 -0.5066 -0.9712 -0.1615
10779TIP3    H153752   6.518   6.491   5.143 -0.3526  0.9099 -0.9918
10779TIP3    H253753   6.567   6.495   5.000  1.6939  0.0043 -0.3365
10780TIP3   OH253754   0.781   5.282  12.627  0.1600 -0.0439 -0.0648
10780TIP3    H153755   0.790   5.216  12.697 -1.0247 -0.8329 -0.6483
10780TIP3    H253756   0.694   5.319  12.640  0.8393  1.4769  0.2833
10781TIP3   OH253757   6.315   3.969   2.284  0.1603 -0.1640  0.7615
10781TIP3    H153758   6.284   3.923   2.207  0.0414  1.5592 -0.2460
10781TIP3    H253759   6.239   3.975   2.342  0.2763 -1.5419  1.0551
10782TIP3   OH253760   5.939   4.371   4.861  0.6550 -0.2250 -0.0140
10782TIP3    H153761   5.927   4.417   4.944  1.8576  0.3138 -0.1259
10782TIP3    H253762   6.033   4.379   4.843  1.2265 -4.1224  0.8058
10783TIP3   OH253763   3.040   5.902   0.323 -0.2231  0.1339  0.3734
10783TIP3    H153764   2.949   5.931   0.315 -0.4600 -0.9162 -0.9038
10783TIP3    H253765   3.088   5.981   0.346 -1.5361  0.6008  1.5818
10784TIP3   OH253766   2.060   5.938  14.216  0.0325 -0.3467  0.2677
10784TIP3    H153767   2.068   5.854  14.171  0.6784 -0.5882  0.8352
10784TIP3    H253768   2.104   5.926  14.299  2.7607  1.4125 -0.8474
10785TIP3   OH253769   4.101   2.492  14.374 -0.2273 -0.2337 -0.0924
10785TIP3    H153770   4.174   2.436  14.400 -0.0844 -0.9516 -1.9693
10785TIP3    H253771   4.034   2.431  14.342 -0.9755  0.5234  0.0268
10786TIP3   OH253772   6.614   5.244  12.072  0.0339  0.5446 -0.1678
10786TIP3    H153773   6.680   5.245  12.141  0.1419  1.3530 -0.2806
10786TIP3    H253774   6.661   5.212  11.995 -0.4717 -1.9327  0.5033
10787TIP3   OH253775   4.986   4.652   1.363 -0.1295 -0.7839  0.0913
10787TIP3    H153776   5.024   4.703   1.435  1.7934 -1.6123 -0.3069
10787TIP3    H253777   4.927   4.714   1.319  1.5343  0.8771  0.1101
10788TIP3   OH253778   6.456   3.178   1.135 -0.3557 -0.2482  0.7409
10788TIP3    H153779   6.478   3.107   1.195 -0.1165  0.6765  1.7704
10788TIP3    H253780   6.506   3.253   1.167 -0.8596  0.4757 -0.1323
10789TIP3   OH253781   3.181   3.715   2.823 -0.4128  0.3576  0.4590
10789TIP3    H153782   3.257   3.773   2.824 -0.3956  0.3370  0.3096
10789TIP3    H253783   3.189   3.663   2.902  0.2988 -0.3981 -0.1019
10790TIP3   OH253784   4.800   1.501   1.261 -0.2564 -0.4645  0.4155
10790TIP3    H153785   4.868   1.435   1.252  0.2887  0.2369 -0.7603
10790TIP3    H253786   4.821   1.567   1.195 -0.9539  0.7410  1.3623
10791TIP3   OH253787   4.368   0.051   3.163 -0.5126 -0.1482  0.1353
10791TIP3    H153788   4.402   0.065   3.252 -0.4237 -0.2217  0.1119
10791TIP3    H253789   4.381  -0.042   3.146  0.1591  0.0150 -0.2419
10792TIP3   OH253790   1.366   3.279  15.287  0.0317  0.3620  0.1122
10792TIP3    H153791   1.352   3.227  15.208  1.1668 -1.3761  1.0174
10792TIP3    H253792   1.406   3.218  15.349  0.4181  2.0531  1.5692
10793TIP3   OH253793   0.796   5.857  10.561 -0.3581  0.3431  0.0683
10793TIP3    H153794   0.862   5.841  10.494  1.3500  1.6967  1.3980
10793TIP3    H253795   0.713   5.833  10.518  0.9889 -1.8240 -1.4551
10794TIP3   OH253796   1.967   0.642   6.156  0.1257 -0.1939  0.1535
10794TIP3    H153797   2.048   0.687   6.180  0.0429  2.6502 -4.2893
10794TIP3    H253798   1.903   0.673   6.221  1.6749  0.6911  1.2900
10795TIP3   OH253799   4.663   4.412   3.436 -0.0457  0.0635 -0.8368
10795TIP3    H153800   4.567   4.413   3.441 -0.0847  0.6994 -1.5408
10795TIP3    H253801   4.691   4.386   3.523 -0.7624  3.9194  0.6162
10796TIP3   OH253802   3.962   3.909   4.070  0.4234 -0.2184 -0.1431
10796TIP3    H153803   4.008   3.957   4.139 -0.6843 -1.0247  1.1744
10796TIP3    H253804   3.888   3.868   4.114 -0.3871 -0.6396 -1.8438
10797TIP3   OH253805   0.344   0.622   0.643  0.5437  0.0232  0.6991
10797TIP3    H153806   0.378   0.585   0.724  1.1137  0.8234  0.8254
10797TIP3    H253807   0.420   0.663   0.601  0.3304 -0.6691 -0.4040
10798TIP3   OH253808   2.203   1.827   4.934  0.6891  0.5499  0.4660
10798TIP3    H153809   2.114   1.798   4.956 -0.0731  2.4192 -0.0953
10798TIP3    H253810   2.230   1.881   5.008  1.7874 -0.8670  1.1212
10799TIP3   OH253811   1.408   1.499  15.486  0.3718 -0.2913 -0.7197
10799TIP3    H153812   1.333   1.495  15.426 -1.2359 -0.2974  1.2260
10799TIP3    H253813   1.441   1.409  15.489  0.0637 -0.4214 -1.1215
10800TIP3   OH253814   0.352   0.619  11.947  0.8114 -0.3114  0.4674
10800TIP3    H153815   0.403   0.673  12.007  0.1047  1.6292 -0.6296
10800TIP3    H253816   0.352   0.669  11.865 -0.3107 -1.7388 -0.4093
10801TIP3   OH253817   1.332   6.674  12.481  0.1051 -0.1161 -0.2577
10801TIP3    H153818   1.372   6.621  12.550 -2.0253 -1.8128 -0.2697
10801TIP3    H253819   1.363   6.763  12.497  2.4866 -1.0972  0.7211
10802TIP3   OH253820   4.134   0.795   3.227  0.5177  0.1391  0.0488
10802TIP3    H153821   4.203   0.730   3.240 -0.0280 -0.3433  0.5719
10802TIP3    H253822   4.090   0.800   3.311  0.5264  1.1707  0.0079
10803TIP3   OH253823   3.250   2.340   2.659 -1.0076  0.4706 -0.1912
10803TIP3    H153824   3.294   2.294   2.731 -0.5631  0.2819 -0.5778
10803TIP3    H253825   3.246   2.275   2.589 -1.7642  0.5388 -0.2179
10804TIP3   OH253826   0.366   1.572   0.377  0.0418 -0.3612  0.2034
10804TIP3    H153827   0.375   1.519   0.456 -1.2948 -0.8146  0.0637
10804TIP3    H253828   0.280   1.549   0.342  0.1969  0.5795 -0.8354
10805TIP3   OH253829   0.603   2.529   6.309 -1.0612 -0.4289  0.5283
10805TIP3    H153830   0.547   2.503   6.236  0.7151 -1.4843 -0.4957
10805TIP3    H253831   0.589   2.461   6.375  0.2568 -1.6725 -0.4133
10806TIP3   OH253832   5.576   4.141  16.044  0.2827 -0.1316  0.0325
10806TIP3    H153833   5.645   4.115  15.984  0.2166 -0.7877  0.2396
10806TIP3    H253834   5.525   4.061  16.059 -0.1070  0.1845  0.4193
10807TIP3   OH253835   1.934   2.149  12.441  0.0303  0.5904  0.1818
10807TIP3    H153836   1.886   2.067  12.431  0.6848  0.0527  1.2992
10807TIP3    H253837   2.018   2.134  12.397  0.4797  0.3616  1.1070
10808TIP3   OH253838   0.991   0.735  12.812 -0.1229 -0.2620 -0.1860
10808TIP3    H153839   0.944   0.755  12.730 -1.5405 -1.0190  0.4181
10808TIP3    H253840   1.049   0.662  12.789  2.4250  2.0773 -1.4888
10809TIP3   OH253841   1.819   6.522   0.839 -0.0091  0.1643  0.1671
10809TIP3    H153842   1.888   6.573   0.881 -0.3342 -0.6266  1.6884
10809TIP3    H253843   1.841   6.431   0.858  0.8637 -0.3484 -2.9891
10810TIP3   OH253844   0.295   0.880   3.112 -0.4108 -0.3299  0.0251
10810TIP3    H153845   0.304   0.948   3.046 -2.2370 -1.5376 -1.5215
10810TIP3    H253846   0.302   0.926   3.196 -0.2271  1.5332 -0.9932
10811TIP3   OH253847   5.169   2.834   2.178 -0.0685  0.1926  0.1425
10811TIP3    H153848   5.169   2.899   2.108  1.9391  1.2371  1.0807
10811TIP3    H253849   5.100   2.772   2.153 -0.7795  1.6760 -1.6869
10812TIP3   OH253850   5.219   3.272   1.986  0.5078 -0.1306 -0.6034
10812TIP3    H153851   5.288   3.327   2.024 -0.1649 -0.4980  1.1613
10812TIP3    H253852   5.139   3.300   2.030 -0.0387 -1.6236 -0.6464
10813TIP3   OH253853   5.695   5.165   3.171  0.0184 -0.4012  0.5227
10813TIP3    H153854   5.728   5.148   3.082 -0.2620 -0.8295  0.5035
10813TIP3    H253855   5.603   5.139   3.168 -0.9506  2.8373 -0.0577
10814TIP3   OH253856   4.509   6.717  14.835  0.3128  0.1218 -0.4528
10814TIP3    H153857   4.601   6.723  14.860  0.2729  0.4921 -0.4009
10814TIP3    H253858   4.497   6.787  14.771 -0.0489  0.3769 -0.1073
10815TIP3   OH253859   2.080   3.133   3.927 -0.1903 -0.0996  0.2415
10815TIP3    H153860   2.152   3.070   3.922 -0.3496 -0.1845 -1.2396
10815TIP3    H253861   2.002   3.079   3.935 -0.2190 -0.0497  0.3000
10816TIP3   OH253862   1.215   3.931   3.804  0.2642  0.5493  0.0215
10816TIP3    H153863   1.229   3.836   3.805  0.2044  0.5462  0.8181
10816TIP3    H253864   1.202   3.952   3.711  0.0918 -0.2466 -0.1392
10817TIP3   OH253865   3.743   1.894   3.346  0.1856 -0.8764 -0.3955
10817TIP3    H153866   3.810   1.831   3.372  0.3273 -0.7911 -0.5602
10817TIP3    H253867   3.680   1.892   3.418  1.6960  0.9925  1.0419
10818TIP3   OH253868   4.897   4.978  14.394 -0.2255  0.5403  0.4712
10818TIP3    H153869   4.836   5.051  14.407  0.0094  1.0683 -1.2564
10818TIP3    H253870   4.980   5.010  14.428 -0.2047  0.9594  0.0330
10819TIP3   OH253871   1.466   2.067  16.710  0.0403  0.4678 -0.0856
10819TIP3    H153872   1.421   1.984  16.719  0.8377 -0.0252 -0.5375
10819TIP3    H253873   1.430   2.122  16.779 -0.5440 -0.2258  0.1625
10820TIP3   OH253874   0.711   1.268  16.742 -0.0411 -0.5815  0.0849
10820TIP3    H153875   0.687   1.354  16.777 -0.9159 -0.2996 -1.1885
10820TIP3    H253876   0.806   1.274  16.730 -0.0144  0.0118  0.5197
10821TIP3   OH253877   5.728   6.746  15.957  0.4383 -0.4197 -0.0412
10821TIP3    H153878   5.755   6.655  15.968  0.1204 -0.8777 -2.8625
10821TIP3    H253879   5.635   6.745  15.977  0.2013 -0.9237 -1.1625
10822TIP3   OH253880   3.435   2.560   0.906 -0.1356  0.1598  0.4078
10822TIP3    H153881   3.368   2.558   0.974  1.1732  2.1586  1.8067
10822TIP3    H253882   3.438   2.651   0.878  0.7348 -0.2640 -0.9365
10823TIP3   OH253883   6.092   5.216  14.584 -0.1579  0.2909 -0.4846
10823TIP3    H153884   6.099   5.285  14.519  0.1336  2.5521  1.8624
10823TIP3    H253885   6.002   5.184  14.575 -0.5619  1.5457 -1.0556
10824TIP3   OH253886   6.173   2.519   0.826 -0.6172 -0.0917  0.7009
10824TIP3    H153887   6.238   2.456   0.793 -1.7257 -1.4794  1.1171
10824TIP3    H253888   6.129   2.552   0.747 -0.9304 -0.8382  0.5585
10825TIP3   OH253889   3.495   2.647  15.959 -0.5170 -0.1309 -0.2034
10825TIP3    H153890   3.445   2.650  15.877 -0.6548 -0.5225 -0.1360
10825TIP3    H253891   3.470   2.727  16.006 -0.8859 -0.2017 -0.2826
10826TIP3   OH253892   2.699   3.584   0.780 -0.0472 -0.2424 -0.6189
10826TIP3    H153893   2.732   3.667   0.747 -0.3380 -0.5616 -1.7377
10826TIP3    H253894   2.612   3.575   0.741  0.0839 -1.1804 -0.7161
10827TIP3   OH253895   3.847   1.766   0.248 -0.4062  0.2238 -0.2428
10827TIP3    H153896   3.923   1.766   0.306 -0.1016  3.2559 -0.5569
10827TIP3    H253897   3.884   1.770   0.160 -0.9192 -1.0098 -0.5233
10828TIP3   OH253898   0.739   4.688   4.873  0.5170  0.0216  0.8122
10828TIP3    H153899   0.654   4.645   4.866  1.4289 -1.6382 -0.2136
10828TIP3    H253900   0.746   4.713   4.965 -0.3473 -1.3437  1.2528
10829TIP3   OH253901   1.115   5.713  17.178 -0.4262 -0.0181 -0.0033
10829TIP3    H153902   1.087   5.682  17.091 -1.4564 -0.7996  0.5983
10829TIP3    H253903   1.211   5.708  17.175 -0.4889 -0.9040 -0.7933
10830TIP3   OH253904   0.211   3.958   4.130 -0.0462  0.2718  0.0700
10830TIP3    H153905   0.191   3.882   4.075 -0.0716  0.2313  0.1363
10830TIP3    H253906   0.138   3.963   4.192 -0.2545  0.5888 -0.1950
10831TIP3   OH253907   5.606   3.143  15.003 -0.3237 -0.3993 -0.1188
10831TIP3    H153908   5.556   3.061  14.998 -0.5562 -0.1593 -2.0103
10831TIP3    H253909   5.697   3.115  15.014 -0.4797 -0.8916 -0.0517
10832TIP3   OH253910   4.797   1.532  12.103 -0.1053 -0.1237 -0.1195
10832TIP3    H153911   4.834   1.455  12.146  1.3408  0.5558 -0.1203
10832TIP3    H253912   4.797   1.600  12.170 -1.2091 -0.0564 -0.1721
10833TIP3   OH253913   0.013   5.613  17.195  0.1857 -1.0122  0.2501
10833TIP3    H153914   0.004   5.605  17.290 -1.0927  2.2297  0.4768
10833TIP3    H253915  -0.059   5.560  17.160 -0.8705 -0.2287  1.1940
10834TIP3   OH253916   1.716   5.735  15.558  0.1869  0.1908  0.9979
10834TIP3    H153917   1.666   5.812  15.527 -1.8979 -1.4862  0.0095
10834TIP3    H253918   1.747   5.693  15.477 -0.2188 -0.9746  1.4395
10835TIP3   OH253919   3.374   0.342   2.247 -0.2218  0.3174 -0.6865
10835TIP3    H153920   3.346   0.412   2.305 -2.2333 -2.5297  1.9002
10835TIP3    H253921   3.304   0.334   2.182 -0.5833 -0.1101 -0.2447
10836TIP3   OH253922   2.561   2.244  15.001 -0.4394 -0.3355  0.0706
10836TIP3    H153923   2.554   2.149  15.005 -0.1114 -0.3814 -0.4370
10836TIP3    H253924   2.609   2.268  15.080  2.0945 -0.8480 -1.2815
10837TIP3   OH253925   6.247   5.037  13.250 -0.1493 -0.2693  0.1602
10837TIP3    H153926   6.207   4.973  13.308 -0.5853 -0.2610 -0.1260
10837TIP3    H253927   6.231   5.122  13.291 -0.4559 -0.2637  0.0287
10838TIP3   OH253928   0.965   4.277  14.207  0.2408  0.2167 -0.6006
10838TIP3    H153929   0.977   4.221  14.131  1.7027  0.6735 -0.7321
10838TIP3    H253930   1.052   4.314  14.223 -0.7501  2.6917 -0.7226
10839TIP3   OH253931   6.135   5.191  17.175  0.5705  0.3136  0.4350
10839TIP3    H153932   6.050   5.171  17.136  1.5320 -0.5093 -1.3001
10839TIP3    H253933   6.148   5.284  17.157 -0.2287  0.5848  1.2445
10840TIP3   OH253934   1.692   4.402  16.561 -0.1543  0.4376  0.2453
10840TIP3    H153935   1.727   4.396  16.472 -1.1449  0.2172 -0.1354
10840TIP3    H253936   1.754   4.352  16.614  0.3293  0.3933 -0.3562
10841TIP3   OH253937   0.353   0.182  11.681  0.3294 -0.1520  0.5352
10841TIP3    H153938   0.327   0.251  11.741 -0.3113 -0.8042  1.0202
10841TIP3    H253939   0.286   0.184  11.612  0.5368 -0.0191  0.3386
10842TIP3   OH253940   5.671   0.808   3.313  0.3707 -0.1120  0.1619
10842TIP3    H153941   5.640   0.873   3.250  0.1963 -1.3908 -1.0950
10842TIP3    H253942   5.592   0.762   3.341  0.7531 -1.3081 -0.6982
10843TIP3   OH253943   1.087   0.700  15.258  0.2741  0.5707 -0.0970
10843TIP3    H153944   1.032   0.649  15.198  1.2430 -0.5782 -0.0377
10843TIP3    H253945   1.078   0.790  15.228 -2.8053  0.6208  0.8293
10844TIP3   OH253946   2.121   1.201  13.343 -0.0382 -0.1922  0.7436
10844TIP3    H153947   2.107   1.213  13.437 -1.4759  0.2758  0.4834
10844TIP3    H253948   2.055   1.257  13.302  0.8854 -0.0419 -0.5481
10845TIP3   OH253949   2.539   1.666   0.156 -0.5659 -0.3692  0.2906
10845TIP3    H153950   2.600   1.595   0.177 -1.4303 -2.0878 -2.6850
10845TIP3    H253951   2.478   1.668   0.229 -0.1742 -2.2968  0.7049
10846TIP3   OH253952   4.703   3.611  14.176  0.1157  0.1970  0.9131
10846TIP3    H153953   4.631   3.550  14.195 -0.6732  1.0587  0.7638
10846TIP3    H253954   4.683   3.689  14.229  0.9530  0.4307  0.8890
10847TIP3   OH253955   5.721   1.145  16.311 -0.3593  0.2111 -0.1938
10847TIP3    H153956   5.769   1.170  16.389 -1.1413  0.7558  0.1229
10847TIP3    H253957   5.650   1.209  16.305 -0.5153 -0.0373 -1.1484
10848TIP3   OH253958   4.556   2.338  16.690 -0.6287 -0.2830 -0.0028
10848TIP3    H153959   4.590   2.421  16.725 -0.9286 -0.1326 -0.0675
10848TIP3    H253960   4.614   2.271  16.726  1.1931  0.1747 -2.0084
10849TIP3   OH253961   5.114   6.508  14.292 -0.5987  0.5851 -0.1642
10849TIP3    H153962   5.173   6.579  14.318 -1.5430  0.9642  0.9701
10849TIP3    H253963   5.171   6.431  14.286  0.2200  1.1880 -0.2210
10850TIP3   OH253964   0.609   5.417   0.451 -0.1387  0.1857 -0.0530
10850TIP3    H153965   0.676   5.475   0.415 -1.4332  0.4371 -2.1773
10850TIP3    H253966   0.532   5.434   0.397 -1.1615 -1.9481  0.6844
10851TIP3   OH253967   1.677   3.021  14.131  0.2928 -0.4888  0.0708
10851TIP3    H153968   1.630   3.048  14.210 -1.9038 -0.0158 -1.3577
10851TIP3    H253969   1.767   3.053  14.144 -0.4560  1.0429  1.6408
10852TIP3   OH253970   5.035   5.727  16.492  0.2689 -0.2884  1.1751
10852TIP3    H153971   4.939   5.732  16.490  0.2829 -0.2195  0.7254
10852TIP3    H253972   5.053   5.652  16.549 -0.0452 -0.0541  1.5894
10853TIP3   OH253973   3.554   5.020   3.629 -0.0198 -0.0883 -0.2032
10853TIP3    H153974   3.605   4.974   3.563 -1.2321 -0.0158 -1.1995
10853TIP3    H253975   3.612   5.089   3.661  1.0480 -0.9675 -0.2164
10854TIP3   OH253976   0.939   2.478   3.695 -0.2998 -0.3749 -0.4757
10854TIP3    H153977   0.957   2.385   3.683  4.3490  0.3270 -0.1195
10854TIP3    H253978   0.924   2.488   3.789 -1.3209 -0.8380 -0.5899
10855TIP3   OH253979   4.019   0.653  13.308 -0.0058 -0.4174  0.2907
10855TIP3    H153980   4.094   0.621  13.358 -0.6324 -0.4632  1.2043
10855TIP3    H253981   3.970   0.708  13.370 -0.3718  0.1542 -0.4894
10856TIP3   OH253982   2.463   6.597   3.378  0.2406  0.1604 -0.1800
10856TIP3    H153983   2.461   6.520   3.320 -1.7799 -0.4324  0.6245
10856TIP3    H253984   2.523   6.572   3.448  1.8862  0.4763 -1.4538
10857TIP3   OH253985   5.895   6.566  10.782  0.4392 -0.0529  0.4521
10857TIP3    H153986   5.985   6.595  10.799  0.4580  0.6617 -0.7976
10857TIP3    H253987   5.898   6.471  10.790  0.8444  0.1108  2.4855
10858TIP3   OH253988   0.119   1.917   1.065  0.2833  0.3916  0.1268
10858TIP3    H153989   0.047   1.963   1.021 -1.5781 -1.0981  1.4978
10858TIP3    H253990   0.076   1.843   1.109  2.6680 -0.4983  1.0198
10859TIP3   OH253991   3.768   4.280   5.138 -0.0858 -0.9434 -0.1635
10859TIP3    H153992   3.764   4.184   5.142  1.3908 -1.0524 -1.0831
10859TIP3    H253993   3.683   4.309   5.171 -1.4495 -2.6274 -2.0995
10860TIP3   OH253994   4.324   3.166   3.488 -0.0160 -0.4552 -0.2323
10860TIP3    H153995   4.271   3.204   3.417 -1.0852  0.7541  1.1881
10860TIP3    H253996   4.267   3.170   3.565  2.1270  0.7691  1.3133
10861TIP3   OH253997   0.001   3.637  10.401  0.6071  0.1164 -0.4020
10861TIP3    H153998  -0.023   3.596  10.484  1.6781  2.5492  1.1775
10861TIP3    H253999  -0.083   3.668  10.366  0.4178  1.2677  1.0126
10862TIP3   OH254000   3.194   6.406  14.176  0.4982  0.7159  0.3275
10862TIP3    H154001   3.240   6.487  14.199  0.0149  0.4463  2.3660
10862TIP3    H254002   3.169   6.368  14.261 -1.5396 -0.2502 -0.6713
10863TIP3   OH254003   5.740   6.385  14.240  0.1601  0.5095 -0.3749
10863TIP3    H154004   5.713   6.295  14.226 -1.6988  1.2384 -1.7532
10863TIP3    H254005   5.739   6.397  14.335 -0.1458 -0.7409 -0.2203
10864TIP3   OH254006   0.748   2.739   2.929 -0.2970  0.1847 -0.0728
10864TIP3    H154007   0.759   2.730   2.835  0.0123  0.6847 -0.0891
10864TIP3    H254008   0.789   2.823   2.950 -1.2326  0.5430  0.3646
10865TIP3   OH254009   3.664   4.706   1.659 -0.0389  0.1869 -0.2877
10865TIP3    H154010   3.753   4.712   1.692  0.6788 -2.0020 -1.7398
10865TIP3    H254011   3.662   4.765   1.583 -0.0927  0.8706  0.2345
10866TIP3   OH254012   4.847   1.363   0.903 -0.4301  0.6535  0.3916
10866TIP3    H154013   4.799   1.430   0.952  1.5715  2.6168 -0.3087
10866TIP3    H254014   4.860   1.400   0.816 -1.6451 -1.7599 -0.8961
10867TIP3   OH254015   4.474   3.871  10.794 -0.1613  0.0668  0.1333
10867TIP3    H154016   4.546   3.826  10.839 -0.4117  0.3917  0.8740
10867TIP3    H254017   4.443   3.808  10.729 -1.1235 -1.1830  1.7852
10868TIP3   OH254018   1.380   6.293   0.810 -0.1198 -0.5141  0.6309
10868TIP3    H154019   1.365   6.279   0.716 -1.2076  0.1893  0.6919
10868TIP3    H254020   1.301   6.259   0.852 -0.3185  0.6098  1.1744
10869TIP3   OH254021   5.700   2.569   2.427  0.1297  0.0755 -0.2462
10869TIP3    H154022   5.683   2.476   2.416  0.3357 -0.1200  0.9696
10869TIP3    H254023   5.619   2.605   2.462  0.1761  0.2732 -0.3414
10870TIP3   OH254024   3.366   1.876  15.464 -0.0483 -0.2466 -0.5634
10870TIP3    H154025   3.427   1.823  15.413  1.7325  1.3569 -0.1596
10870TIP3    H254026   3.406   1.963  15.466 -0.6105 -0.0077  2.6507
10871TIP3   OH254027   4.812   2.641  11.932 -0.1343  0.3351  0.3301
10871TIP3    H154028   4.829   2.612  12.022 -0.3787  0.4301  0.4076
10871TIP3    H254029   4.717   2.632  11.922 -0.3006  1.7642  0.5837
10872TIP3   OH254030   1.541   0.566   0.654 -0.1029  0.3671 -0.4718
10872TIP3    H154031   1.446   0.568   0.645 -0.1995  0.2911  0.4509
10872TIP3    H254032   1.568   0.657   0.644 -0.4256  0.6071  0.6960
10873TIP3   OH254033   0.309   3.219   1.683  0.3162  0.4528  0.0688
10873TIP3    H154034   0.342   3.303   1.651  0.4248  0.2618 -0.3221
10873TIP3    H254035   0.384   3.180   1.730  0.3362  0.4726  0.0535
10874TIP3   OH254036   0.435   3.028   3.881 -0.0515 -0.4456 -0.0328
10874TIP3    H154037   0.425   3.112   3.836  1.4806 -0.1937  0.0826
10874TIP3    H254038   0.482   2.973   3.819 -2.9507 -1.9688 -1.0016
10875TIP3   OH254039   0.905   5.835   5.676 -0.0179  0.1128 -0.5035
10875TIP3    H154040   0.919   5.907   5.614 -3.5750  1.2658 -0.1230
10875TIP3    H254041   0.948   5.864   5.757 -2.8453  2.7468  0.1893
10876TIP3   OH254042   5.653   1.081   5.568 -0.2516 -0.5470  0.3570
10876TIP3    H154043   5.636   0.995   5.530  0.9487 -1.0011  0.8240
10876TIP3    H254044   5.635   1.071   5.661  1.6958 -0.8142  0.7219
10877TIP3   OH254045   2.772   3.570   5.381  0.4088  0.3783 -0.1933
10877TIP3    H154046   2.826   3.496   5.354 -0.4695 -0.4194  0.1940
10877TIP3    H254047   2.684   3.548   5.349  0.4544  2.0597 -1.6083
10878TIP3   OH254048   6.022   6.671  12.283  1.4091 -0.4868  0.3078
10878TIP3    H154049   5.959   6.676  12.354  2.9270  0.4788  1.6222
10878TIP3    H254050   5.971   6.686  12.203 -0.0344  0.0302  1.3257
10879TIP3   OH254051   6.658   2.396   1.524  0.0492  0.0628 -0.6432
10879TIP3    H154052   6.589   2.346   1.569  1.6519 -0.9112  0.7690
10879TIP3    H254053   6.661   2.358   1.436 -1.0884  0.0056 -0.6707
10880TIP3   OH254054   5.273   4.160  11.893  0.2506 -0.0942 -0.0798
10880TIP3    H154055   5.259   4.093  11.960 -0.8125  1.2320  1.0622
10880TIP3    H254056   5.196   4.154  11.837 -0.4757  1.0089  0.7760
10881TIP3   OH254057   5.382   0.511  16.711  0.4478  0.6844 -0.2317
10881TIP3    H154058   5.382   0.507  16.806  0.2222 -0.1780 -0.2708
10881TIP3    H254059   5.315   0.576  16.690  0.2094  0.5742  0.1787
10882TIP3   OH254060   4.884   1.300  12.569  0.1698 -0.4507  0.1400
10882TIP3    H154061   4.811   1.311  12.508  0.3092 -1.1050 -0.1421
10882TIP3    H254062   4.843   1.284  12.654 -0.0118 -0.6508  0.0135
10883TIP3   OH254063   4.185   1.866  12.464 -0.1329 -0.1749 -0.4154
10883TIP3    H154064   4.183   1.790  12.405 -1.8559 -0.6573  0.2444
10883TIP3    H254065   4.217   1.831  12.547 -1.6071 -0.3400  0.0946
10884TIP3   OH254066   6.456   3.230  14.462  0.7891  0.0871 -0.3077
10884TIP3    H154067   6.428   3.274  14.542 -0.7276 -0.3292 -0.5907
10884TIP3    H254068   6.549   3.249  14.455  0.6778  1.1213  0.9245
10885TIP3   OH254069   5.749   5.104  15.397  0.4379  0.0098 -0.2393
10885TIP3    H154070   5.812   5.123  15.328  0.0226 -0.0089 -0.6255
10885TIP3    H254071   5.669   5.150  15.371 -0.2023 -1.2340 -0.5718
10886TIP3   OH254072   4.912   2.933  16.640  0.6436 -0.3037 -0.8626
10886TIP3    H154073   4.841   2.870  16.625 -0.1738  0.2421  0.5737
10886TIP3    H254074   4.885   2.980  16.719  0.6989  2.6101 -2.5057
10887TIP3   OH254075   1.879   2.019   4.974 -0.4856 -0.2481 -0.4642
10887TIP3    H154076   1.859   2.107   4.942 -3.1743 -0.7181 -0.2152
10887TIP3    H254077   1.905   2.032   5.065 -2.2685  0.1862  0.0035
10888TIP3   OH254078   0.588   2.663  16.108  0.5123 -0.8413 -0.3757
10888TIP3    H154079   0.617   2.754  16.118  0.0677 -0.7069 -0.2961
10888TIP3    H254080   0.647   2.626  16.043  0.3363 -0.3323 -0.8330
10889TIP3   OH254081   5.682   2.628   3.982  0.1747  0.0639 -0.3356
10889TIP3    H154082   5.716   2.556   3.928 -1.4173 -0.4855 -0.6436
10889TIP3    H254083   5.743   2.633   4.055  0.3594 -1.5708 -0.3421
10890TIP3   OH254084   0.957   0.650  16.115 -0.3553 -0.2185  0.5468
10890TIP3    H154085   0.944   0.606  16.031  0.2308 -0.3636  0.5269
10890TIP3    H254086   0.869   0.666  16.148 -0.5850 -0.3203 -0.0153
10891TIP3   OH254087   0.249   6.605  14.816 -0.7887 -0.0954 -0.5772
10891TIP3    H154088   0.263   6.601  14.722 -1.6346  0.4040 -0.7291
10891TIP3    H254089   0.200   6.525  14.836 -1.9769  0.5668 -0.8095
10892TIP3   OH254090   1.455   1.466  11.817 -0.0053  0.0333 -0.3981
10892TIP3    H154091   1.496   1.384  11.790 -0.1634 -0.5144  0.9591
10892TIP3    H254092   1.418   1.503  11.737  0.0489 -1.2360 -1.0136
10893TIP3   OH254093   1.379   3.447  16.291  0.0825 -0.1111  0.3086
10893TIP3    H154094   1.342   3.513  16.232  1.2837  2.4394  2.3218
10893TIP3    H254095   1.374   3.487  16.377  0.3476 -2.9266  1.6640
10894TIP3   OH254096   1.593   2.105  11.918  0.0532 -0.6227  0.1741
10894TIP3    H154097   1.549   2.176  11.872  0.4365  0.4558  1.4319
10894TIP3    H254098   1.584   2.127  12.011  3.4238 -0.2309  0.4697
10895TIP3   OH254099   4.936   4.198  15.374 -0.0460 -0.5627  0.0126
10895TIP3    H154100   4.901   4.109  15.376 -2.5360  0.3942 -0.5461
10895TIP3    H254101   4.887   4.245  15.441  1.2918  0.4159  0.3452
10896TIP3   OH254102   1.648   5.782  12.283 -0.1344  0.1424  0.1098
10896TIP3    H154103   1.554   5.770  12.283 -0.2790  1.2105 -0.6935
10896TIP3    H254104   1.683   5.701  12.245 -0.8102  0.3383 -0.9393
10897TIP3   OH254105   5.491   1.199  13.714 -0.1725  0.0419 -0.9194
10897TIP3    H154106   5.550   1.191  13.639  3.0356 -1.7613  1.6690
10897TIP3    H254107   5.491   1.293  13.734 -2.2511  0.7776 -3.9814
10898TIP3   OH254108   4.305   2.346  12.314  0.1107 -0.2056 -0.4277
10898TIP3    H154109   4.326   2.254  12.328 -1.0160 -0.6124 -1.3098
10898TIP3    H254110   4.382   2.383  12.272  0.8966 -0.5408  0.6968
10899TIP3   OH254111   3.296   5.384  13.366  0.0673  0.3010  0.1735
10899TIP3    H154112   3.207   5.361  13.393 -0.4781  2.7147  0.5504
10899TIP3    H254113   3.313   5.328  13.291 -1.5104 -0.6773  0.5088
10900TIP3   OH254114   6.595   4.804  12.086  0.4435 -0.5825 -0.0386
10900TIP3    H154115   6.684   4.819  12.119 -0.5785 -0.0855  2.6098
10900TIP3    H254116   6.552   4.754  12.156 -1.7951  0.4526 -0.6440
10901TIP3   OH254117   5.519   2.247   4.937  0.4615  0.2142 -0.2437
10901TIP3    H154118   5.458   2.213   4.872  0.6100 -1.8120  0.6162
10901TIP3    H254119   5.601   2.259   4.890  0.5800 -1.2728 -0.4450
10902TIP3   OH254120   4.854   0.998  16.389 -0.7585 -0.9800  0.3146
10902TIP3    H154121   4.867   0.944  16.467  1.3765 -0.6202  0.2272
10902TIP3    H254122   4.940   1.001  16.347 -1.0242  1.8532 -0.0905
10903TIP3   OH254123   5.637   0.902  11.405  0.5366  0.3932  0.2184
10903TIP3    H154124   5.577   0.835  11.372  0.4851 -0.2749  1.6199
10903TIP3    H254125   5.693   0.924  11.330 -1.2115  0.7799 -1.0169
10904TIP3   OH254126   3.494   6.024  14.435  0.2211  0.3703 -0.1357
10904TIP3    H154127   3.492   6.087  14.364  3.5346  2.0056  1.1193
10904TIP3    H254128   3.561   5.960  14.409  0.6443  0.3490  0.9670
10905TIP3   OH254129   0.039   1.160  11.249 -0.2233  0.4802 -0.5315
10905TIP3    H154130   0.133   1.143  11.240 -0.1520  1.4226 -1.6132
10905TIP3    H254131   0.004   1.154  11.160 -1.1669  0.2606 -0.1540
10906TIP3   OH254132   5.530   1.473  14.133 -0.3735 -0.0997 -0.0791
10906TIP3    H154133   5.571   1.401  14.086 -0.4747  0.1841 -0.6087
10906TIP3    H254134   5.591   1.495  14.203 -0.4412 -0.8390  0.2087
10907TIP3   OH254135   1.840   2.082  13.927 -0.1678 -0.5765  0.3253
10907TIP3    H154136   1.904   2.151  13.947 -0.5362  0.2898 -1.3314
10907TIP3    H254137   1.884   2.027  13.862 -0.6950 -0.6290  0.0106
10908TIP3   OH254138   0.756   3.266  11.572 -0.5731 -0.2284  0.3315
10908TIP3    H154139   0.666   3.289  11.550 -0.3390  1.8331  1.4944
10908TIP3    H254140   0.749   3.214  11.652 -0.7431 -0.2196  0.3226
10909TIP3   OH254141   5.742   6.420   5.484  0.5116 -0.1375  0.0142
10909TIP3    H154142   5.813   6.435   5.423  0.6179  1.4234  0.5157
10909TIP3    H254143   5.780   6.363   5.552  0.7640 -0.7642 -0.6491
10910TIP3   OH254144   4.386   6.400   1.465  0.2967 -0.2316 -0.5400
10910TIP3    H154145   4.385   6.312   1.504  0.9344 -0.1740 -0.3756
10910TIP3    H254146   4.296   6.430   1.471 -0.1205 -1.2782 -1.5248
10911TIP3   OH254147   2.111   2.619  12.746 -0.5317  0.9587 -0.1668
10911TIP3    H154148   2.073   2.618  12.658  1.9268 -0.3286 -1.2414
10911TIP3    H254149   2.199   2.653  12.734  0.2684 -0.3959  1.6259
10912TIP3   OH254150   0.737   4.567  16.810 -0.2310 -0.2334 -0.3580
10912TIP3    H154151   0.779   4.650  16.790 -1.8790  0.4469 -1.0848
10912TIP3    H254152   0.737   4.563  16.905 -0.2602  0.6600 -0.3133
10913TIP3   OH254153   1.706   5.687  16.728  0.0838  0.4641  0.0423
10913TIP3    H154154   1.651   5.614  16.699  0.2087  0.3022  0.2116
10913TIP3    H254155   1.712   5.677  16.823  1.7558 -0.5031 -0.1229
10914TIP3   OH254156   3.670   0.424  12.730 -0.1643 -0.3325  0.4106
10914TIP3    H154157   3.701   0.448  12.643  0.3294  0.5452  0.8264
10914TIP3    H254158   3.723   0.348  12.754 -0.1920 -0.4776  0.0083
10915TIP3   OH254159   3.630   5.860  10.406 -0.1739 -0.5025  0.5265
10915TIP3    H154160   3.671   5.881  10.322 -1.9675  2.4127  0.2750
10915TIP3    H254161   3.694   5.886  10.472  0.2499 -0.4069  0.0770
10916TIP3   OH254162   4.992   4.628  11.455  0.0939  0.0793  0.7678
10916TIP3    H154163   4.904   4.590  11.452  0.5607 -1.1845  2.0619
10916TIP3    H254164   4.982   4.716  11.420 -1.4813 -0.4289 -0.1163
10917TIP3   OH254165   4.382   0.992   0.618  0.3943 -0.2103 -0.1560
10917TIP3    H154166   4.348   0.905   0.639  0.6946 -0.1638  0.5291
10917TIP3    H254167   4.308   1.037   0.578  0.5183 -1.1068 -1.4286
10918TIP3   OH254168   6.471   2.204  11.422  0.1076  0.6059  0.3814
10918TIP3    H154169   6.555   2.210  11.469  0.3520  1.5665 -0.1589
10918TIP3    H254170   6.465   2.113  11.395  2.0976  0.9873 -1.5524
10919TIP3   OH254171   3.551   5.951  14.054  0.2517 -0.8730 -0.0884
10919TIP3    H154172   3.510   5.992  14.131 -0.0683 -2.4719  0.6236
10919TIP3    H254173   3.635   5.995  14.045 -0.0161 -0.1817  0.7720
10920TIP3   OH254174   4.988   0.595   3.678 -0.2860  0.0748  0.1123
10920TIP3    H154175   4.994   0.512   3.725  0.6794 -0.5083 -1.0368
10920TIP3    H254176   5.019   0.576   3.590  0.4690  1.7733 -0.0114
10921TIP3   OH254177   6.742   6.193   1.630 -0.4157  0.1426  0.0910
10921TIP3    H154178   6.818   6.239   1.666 -0.0484 -0.0024 -0.5039
10921TIP3    H254179   6.703   6.149   1.706 -0.4320  0.9516  0.5608
10922TIP3   OH254180   2.781   1.103   1.239  0.2050 -0.1806  0.8167
10922TIP3    H154181   2.828   1.037   1.289 -0.3281  0.8188  2.6739
10922TIP3    H254182   2.726   1.054   1.178  2.0150 -1.3852  0.1198
10923TIP3   OH254183   6.061   0.126  16.117  0.1283 -0.5783 -0.2684
10923TIP3    H154184   5.997   0.190  16.149 -0.9417 -1.6596 -0.2057
10923TIP3    H254185   6.020   0.041  16.134  2.0746 -1.3313  0.8365
10924TIP3   OH254186   3.504   0.617   0.913 -0.4513 -0.4585  0.1049
10924TIP3    H154187   3.439   0.555   0.878 -1.2244  0.2158  0.3309
10924TIP3    H254188   3.474   0.702   0.883  1.3979 -0.3067 -1.4137
10925TIP3   OH254189   0.910   1.545   6.012  0.6888 -0.7704  0.2880
10925TIP3    H154190   0.822   1.554   6.050  0.9300 -0.5319  0.7929
10925TIP3    H254191   0.963   1.611   6.057  1.0620 -0.7170 -0.2203
10926TIP3   OH254192   2.171   0.945   1.315 -0.2839  0.1343 -0.4234
10926TIP3    H154193   2.181   0.991   1.232  0.7607 -0.5965 -0.7084
10926TIP3    H254194   2.176   1.014   1.382  2.1136  0.3468 -0.7989
10927TIP3   OH254195   4.302   2.007   0.069 -0.0571 -0.0383 -0.0536
10927TIP3    H154196   4.291   1.946   0.142 -0.9511 -0.2753 -0.3794
10927TIP3    H254197   4.261   2.088   0.099  0.0331  0.0209 -0.0915
10928TIP3   OH254198   5.964   1.146  14.269 -0.3552  0.6138  0.4244
10928TIP3    H154199   5.967   1.159  14.363 -0.2668 -1.2769  0.6978
10928TIP3    H254200   5.885   1.094  14.254 -0.1693  0.5866 -0.4918
10929TIP3   OH254201   0.893   6.617   2.687 -0.1198  0.6920 -0.4562
10929TIP3    H154202   0.985   6.620   2.712  0.6239  1.4625 -3.0647
10929TIP3    H254203   0.846   6.655   2.761  1.7164  0.8752  0.6400
10930TIP3   OH254204   5.184   2.771   0.040  0.2694 -0.3983 -0.1021
10930TIP3    H154205   5.139   2.753   0.123  1.4581  0.5196  0.7543
10930TIP3    H254206   5.277   2.760   0.059  0.6078  0.5080 -1.1338
10931TIP3   OH254207   6.407   5.903  12.150 -0.6070  0.0455 -0.5444
10931TIP3    H154208   6.440   5.893  12.061 -1.2576 -0.7254 -0.6988
10931TIP3    H254209   6.482   5.881  12.206 -0.5064 -0.4841 -0.8946
10932TIP3   OH254210   1.510   4.047  10.869  0.2550 -0.0622  0.3116
10932TIP3    H154211   1.426   4.001  10.864 -0.3081  0.9660  0.2419
10932TIP3    H254212   1.571   3.989  10.824 -0.9419  0.3656 -1.9456
10933TIP3   OH254213   2.738   1.830   5.879  0.2008 -0.3882 -0.0344
10933TIP3    H154214   2.697   1.858   5.797  0.9820 -0.5845 -0.5070
10933TIP3    H254215   2.832   1.828   5.858  0.4614  0.2223  1.0673
10934TIP3   OH254216   3.096   2.662   2.178 -0.3567 -0.1786 -0.2347
10934TIP3    H154217   3.118   2.752   2.155 -0.3048  0.1140  0.8988
10934TIP3    H254218   3.078   2.666   2.272  0.3731 -1.4959 -0.0382
10935TIP3   OH254219   6.234   2.590  13.289  0.2121 -0.1198  0.1617
10935TIP3    H154220   6.153   2.573  13.239  0.4561 -0.0758 -0.2513
10935TIP3    H254221   6.219   2.674  13.332 -1.0404 -1.3791  2.2834
10936TIP3   OH254222   5.098   0.492  17.230  0.2485  0.2371  0.4819
10936TIP3    H154223   5.152   0.494  17.151  0.1683  2.3512  0.4526
10936TIP3    H254224   5.031   0.426  17.213  1.1815 -0.4411 -0.5766
10937TIP3   OH254225   1.951   3.632   4.107  0.2986 -0.6426 -0.3340
10937TIP3    H154226   2.043   3.653   4.123  0.2195 -1.8007  1.8282
10937TIP3    H254227   1.904   3.715   4.121  0.9424 -0.1890 -0.8557
10938TIP3   OH254228   6.260   0.567   4.454 -0.3259 -0.1094 -0.0203
10938TIP3    H154229   6.318   0.531   4.521 -0.8613  0.4106  0.7151
10938TIP3    H254230   6.211   0.491   4.421 -1.0707 -0.1420  1.1581
10939TIP3   OH254231   1.300   1.382  14.763  0.2699 -0.1805 -0.1998
10939TIP3    H154232   1.308   1.450  14.830  1.1162  0.7816 -1.2601
10939TIP3    H254233   1.367   1.317  14.785 -0.3011 -0.5008  0.6049
10940TIP3   OH254234   2.491   4.971  16.505 -0.1999 -0.4512 -0.4245
10940TIP3    H154235   2.578   4.948  16.535  1.1073  2.3819 -1.8574
10940TIP3    H254236   2.454   5.024  16.575 -1.1048 -2.2867  0.5170
10941TIP3   OH254237   0.341   3.565   3.645  0.3148 -0.0952  0.3274
10941TIP3    H154238   0.394   3.533   3.572  0.0494 -1.0036  0.5309
10941TIP3    H254239   0.294   3.640   3.609  0.1743 -0.5446 -0.4428
10942TIP3   OH254240   4.692   3.479  15.540  0.3267  0.2804 -0.2051
10942TIP3    H154241   4.717   3.571  15.526 -1.2063  1.0088  1.5427
10942TIP3    H254242   4.775   3.432  15.546  1.1071  1.3220 -2.5521
10943TIP3   OH254243   2.375   0.630   5.201 -0.2728 -0.2916  0.4006
10943TIP3    H154244   2.361   0.539   5.174 -0.0606  0.2356 -1.6354
10943TIP3    H254245   2.296   0.675   5.171  1.1351  0.8080 -1.7478
10944TIP3   OH254246   2.089   2.292   5.198  0.6452  0.1881 -0.1388
10944TIP3    H154247   2.149   2.262   5.267 -0.4757 -1.6006  0.0995
10944TIP3    H254248   2.068   2.382   5.221  2.1845  0.3878  0.5141
10945TIP3   OH254249   2.387   4.444  11.754 -0.0420  0.3063  0.9122
10945TIP3    H154250   2.351   4.410  11.837 -0.1478  1.8124  1.4963
10945TIP3    H254251   2.310   4.454  11.698  0.0032 -0.5149  0.6918
10946TIP3   OH254252   2.621   5.656  14.153  0.3180 -0.3792  0.8906
10946TIP3    H154253   2.698   5.624  14.200 -0.5697 -0.5888  2.2537
10946TIP3    H254254   2.554   5.589  14.171 -0.8810  1.0265  1.7852
10947TIP3   OH254255   6.605   2.944   2.902  0.4626  0.1482 -0.9944
10947TIP3    H154256   6.583   2.926   2.811  1.2052 -0.5670 -1.0423
10947TIP3    H254257   6.575   2.867   2.950 -0.8053  0.9413 -0.4858
10948TIP3   OH254258   3.246   0.546   2.444  0.1255 -0.2762  0.1763
10948TIP3    H154259   3.303   0.513   2.513  0.8699 -0.7149 -0.6344
10948TIP3    H254260   3.212   0.628   2.479  1.3869  0.0805  0.6127
10949TIP3   OH254261   3.102   4.998   5.392 -0.4791  0.1563  0.3725
10949TIP3    H154262   3.082   5.084   5.430 -0.1028 -0.1270  1.2383
10949TIP3    H254263   3.196   5.000   5.377 -0.3162 -0.4433  1.2731
10950TIP3   OH254264   1.987   6.355  16.618  0.1267  0.3743  0.3927
10950TIP3    H154265   2.065   6.299  16.616  0.0557  0.2380  1.2425
10950TIP3    H254266   1.938   6.331  16.539 -0.4296 -1.5405  1.2826
10951TIP3   OH254267   2.102   5.689  16.067 -0.0043 -0.0584 -0.1740
10951TIP3    H154268   2.015   5.651  16.053 -1.4693  3.5430 -1.3780
10951TIP3    H254269   2.149   5.674  15.985  0.5537 -1.9464  0.4549
10952TIP3   OH254270   1.676   2.283  17.158  0.1553 -0.1915 -0.0001
10952TIP3    H154271   1.699   2.319  17.244 -1.2754 -0.7720  0.6476
10952TIP3    H254272   1.760   2.276  17.112  1.1979 -1.5130  1.9894
10953TIP3   OH254273   1.480   4.739   4.836  0.0382 -0.1830  0.4058
10953TIP3    H154274   1.403   4.762   4.888 -0.5069 -1.3119  0.1268
10953TIP3    H254275   1.508   4.654   4.871  0.6602 -0.1637 -0.0381
10954TIP3   OH254276   6.412   5.847   0.133  0.7609 -0.1409  0.0232
10954TIP3    H154277   6.383   5.884   0.216  0.4741 -1.9252  0.7548
10954TIP3    H254278   6.492   5.894   0.111 -0.7748  2.4254 -0.2211
10955TIP3   OH254279   1.023   1.553  15.891  0.4895 -0.2982 -0.2562
10955TIP3    H154280   0.961   1.558  15.817  1.1458 -0.7995 -0.8420
10955TIP3    H254281   1.054   1.463  15.890  2.3804  0.3367 -0.9066
10956TIP3   OH254282   4.955   0.806   4.249  0.0039 -0.1751  0.1170
10956TIP3    H154283   5.012   0.730   4.254  0.3200  0.1208  1.1656
10956TIP3    H254284   4.867   0.770   4.250  0.1441 -0.6397 -1.5869
10957TIP3   OH254285   4.334   5.543  12.454 -0.0685 -0.4863 -0.2616
10957TIP3    H154286   4.427   5.560  12.462 -0.4487  0.5179  2.6805
10957TIP3    H254287   4.320   5.462  12.504 -1.3766  1.6821  3.0573
10958TIP3   OH254288   2.972   1.335  11.289  0.3872  0.3261 -0.1731
10958TIP3    H154289   3.008   1.261  11.241  0.7959  0.8080 -0.6094
10958TIP3    H254290   2.909   1.375  11.228 -0.5758 -0.2508  0.4237
10959TIP3   OH254291   3.742   2.707  14.521  0.5213 -0.1249 -0.0581
10959TIP3    H154292   3.750   2.699  14.426  2.9632  0.7399  0.0460
10959TIP3    H254293   3.832   2.717  14.552 -0.3429  0.8726  2.2373
10960TIP3   OH254294   4.355   0.774  11.781 -0.2057 -0.0753  0.4402
10960TIP3    H154295   4.415   0.705  11.808  0.3093  0.1523 -0.1356
10960TIP3    H254296   4.332   0.752  11.691 -0.1487  0.4374  0.3043
10961TIP3   OH254297   3.158   4.465  15.773 -0.2383 -0.1590  0.8398
10961TIP3    H154298   3.230   4.415  15.737 -1.5303 -2.1804  0.9896
10961TIP3    H254299   3.114   4.405  15.833 -0.2874  1.9831  3.0387
10962TIP3   OH254300   4.802   2.826  14.956  0.1898 -0.0858 -0.1325
10962TIP3    H154301   4.790   2.764  15.027  0.2295  0.9403  0.7751
10962TIP3    H254302   4.779   2.776  14.877 -1.4050 -0.7772  0.7303
10963TIP3   OH254303   2.830   3.339  13.732 -0.2297 -0.8931 -0.6631
10963TIP3    H154304   2.911   3.340  13.682  1.7384 -0.4523  2.4075
10963TIP3    H254305   2.795   3.428  13.723 -0.0267 -0.8832 -1.3931
10964TIP3   OH254306   4.967   3.357   3.765 -0.3369 -0.4223 -0.3291
10964TIP3    H154307   4.957   3.449   3.741  2.0195  0.6482  2.4930
10964TIP3    H254308   5.013   3.359   3.849  0.6011 -4.2142 -0.6719
10965TIP3   OH254309   2.600   1.896   5.375  0.3570 -0.0291 -0.0481
10965TIP3    H154310   2.649   1.816   5.392 -0.9511 -0.9259 -0.4707
10965TIP3    H254311   2.668   1.964   5.366  1.4263 -0.9324  1.0753
10966TIP3   OH254312   3.365   1.696  15.105  0.2436 -0.1410  0.1642
10966TIP3    H154313   3.427   1.720  15.173 -0.0657 -0.0926  0.4260
10966TIP3    H254314   3.367   1.601  15.102  0.5548 -0.1293 -0.0354
10967TIP3   OH254315   0.993   3.567  16.956 -0.4605 -0.2460 -0.0884
10967TIP3    H154316   0.903   3.590  16.934 -0.5814 -0.4020  0.2546
10967TIP3    H254317   0.988   3.478  16.989 -0.1738 -0.2676 -0.1030
10968TIP3   OH254318   6.494   5.457  15.580  0.3428  0.2904 -0.1717
10968TIP3    H154319   6.493   5.362  15.570  2.0768  0.3439 -1.1592
10968TIP3    H254320   6.490   5.490  15.490  0.7901  1.1227  0.1055
10969TIP3   OH254321   0.826   1.237  14.809 -0.4442  0.1200 -0.4573
10969TIP3    H154322   0.815   1.332  14.821 -0.9335  0.2305 -1.7374
10969TIP3    H254323   0.769   1.216  14.735 -1.2310 -1.3782  0.5596
10970TIP3   OH254324   2.836   5.588   4.706  0.1235 -1.3707 -0.1408
10970TIP3    H154325   2.780   5.667   4.706  0.9129 -0.8005 -1.0396
10970TIP3    H254326   2.784   5.522   4.752 -0.0081  0.0556  1.8272
10971TIP3   OH254327   3.331   4.092  12.414 -0.1009 -0.8286  0.4283
10971TIP3    H154328   3.373   4.139  12.342  1.4430  0.4508  2.1249
10971TIP3    H254329   3.281   4.023  12.371  0.1180  0.4180 -1.9191
10972TIP3   OH254330   2.931   5.287   5.817  0.3666 -0.7067 -0.3143
10972TIP3    H154331   3.001   5.258   5.875  1.1499 -0.5786 -1.1945
10972TIP3    H254332   2.888   5.206   5.789 -0.2037 -0.7552  0.6562
10973TIP3   OH254333   0.194   1.218   3.836  0.2491  0.2287  0.3503
10973TIP3    H154334   0.272   1.236   3.888  2.5557 -1.1953 -2.4167
10973TIP3    H254335   0.172   1.127   3.856 -1.2548  0.8917  1.7765
10974TIP3   OH254336   5.435   0.707   2.542  0.6382 -0.8106 -0.0312
10974TIP3    H154337   5.379   0.705   2.620 -0.2795  1.5358 -0.5928
10974TIP3    H254338   5.494   0.632   2.553  0.3139 -0.7036  2.7586
10975TIP3   OH254339   0.752   4.605   4.421 -0.1818  0.5727 -0.1221
10975TIP3    H154340   0.827   4.586   4.477 -0.0810  0.2988 -0.3516
10975TIP3    H254341   0.676   4.584   4.475 -0.0960  0.8575  0.1113
10976TIP3   OH254342   6.647   4.519  15.880  0.5746 -0.0669  0.1921
10976TIP3    H154343   6.729   4.507  15.833  0.1808  1.5503 -0.9284
10976TIP3    H254344   6.590   4.564  15.818  0.1278  2.3451  2.2912
10977TIP3   OH254345   5.904   5.584  15.020 -0.5286 -0.3851  0.5535
10977TIP3    H154346   5.963   5.659  15.031 -1.4698  0.4120  0.3574
10977TIP3    H254347   5.843   5.613  14.952 -0.1159 -1.8450 -0.4464
10978TIP3   OH254348   2.280   5.370   1.319  0.0103 -0.4472  0.1508
10978TIP3    H154349   2.226   5.373   1.398 -2.1587 -2.4022 -1.1649
10978TIP3    H254350   2.327   5.286   1.326 -0.7761 -0.9970 -0.9571
10979TIP3   OH254351   1.144   1.631   0.956  0.4904  0.6793 -0.2138
10979TIP3    H154352   1.137   1.695   0.886  0.7854  0.2408 -0.6516
10979TIP3    H254353   1.200   1.673   1.022 -0.4333  1.3955  0.1107
10980TIP3   OH254354   4.159   0.226   5.806  0.4258  0.1226  0.6827
10980TIP3    H154355   4.243   0.193   5.774 -0.2099 -0.2452 -0.6280
10980TIP3    H254356   4.097   0.204   5.737 -0.5097  1.6155  1.0365
10981TIP3   OH254357   3.928   1.136  10.576 -0.5484 -0.6555 -0.1273
10981TIP3    H154358   3.857   1.197  10.557 -0.9583 -0.3092  2.4033
10981TIP3    H254359   3.898   1.053  10.538 -2.2404 -0.4652  0.7287
10982TIP3   OH254360   1.474   6.334  14.639 -0.2489  0.7559  0.4565
10982TIP3    H154361   1.492   6.412  14.587  4.7842  0.2554  1.1691
10982TIP3    H254362   1.526   6.265  14.597 -1.6111 -1.3283  2.0869
10983TIP3   OH254363   2.634   5.734   5.603 -0.0637  0.2315 -0.1133
10983TIP3    H154364   2.563   5.759   5.544 -0.0272  1.5543  0.3949
10983TIP3    H254365   2.694   5.683   5.549 -0.9563 -0.1362 -0.7625
10984TIP3   OH254366   4.206   0.976   0.325  0.4960 -0.2975 -0.5935
10984TIP3    H154367   4.211   0.910   0.394  1.9262  0.9258  0.5008
10984TIP3    H254368   4.186   1.058   0.370  0.5831  0.3665 -1.7274
10985TIP3   OH254369   0.024   3.912  15.395  0.0163 -0.3315  0.3598
10985TIP3    H154370   0.069   3.832  15.367 -0.4483 -0.7105  0.6666
10985TIP3    H254371   0.090   3.981  15.389  0.3245 -0.6783 -0.2379
10986TIP3   OH254372   0.463   2.153  14.467 -0.6265 -0.7560  0.1321
10986TIP3    H154373   0.433   2.086  14.405 -2.5519 -0.8889  1.1666
10986TIP3    H254374   0.394   2.157  14.533  0.2774  1.0570  1.0021
10987TIP3   OH254375   2.925   6.212  10.725  0.3015 -0.3984 -0.5176
10987TIP3    H154376   2.912   6.124  10.689 -0.3513 -0.1595 -0.8793
10987TIP3    H254377   2.843   6.258  10.706  1.1469  0.7074 -1.5884
10988TIP3   OH254378   3.944   6.392   6.495 -0.4549 -0.1384 -0.2363
10988TIP3    H154379   3.976   6.325   6.556 -0.1661 -0.1267 -0.3724
10988TIP3    H254380   3.980   6.474   6.528  0.0854 -0.1935 -0.6886
10989TIP3   OH254381   1.877   1.185   0.753 -0.1662 -0.6263  0.3282
10989TIP3    H154382   1.887   1.263   0.699  2.9530 -1.6035 -0.6130
10989TIP3    H254383   1.815   1.130   0.704 -1.2293  0.5833  0.2729
10990TIP3   OH254384   6.775   2.032   1.398 -0.1178  0.0702  0.2401
10990TIP3    H154385   6.685   2.049   1.424 -0.0022  1.8124 -0.3978
10990TIP3    H254386   6.827   2.086   1.458  0.3085  1.7344 -1.5871
10991TIP3   OH254387   6.478   5.096  13.793  0.0114  0.3779  0.4989
10991TIP3    H154388   6.392   5.107  13.753  1.1764  0.1759 -2.1298
10991TIP3    H254389   6.530   5.051  13.727  2.0311  0.0986  2.2177
10992TIP3   OH254390   0.515   3.640   0.598  0.6980 -0.2325  0.1283
10992TIP3    H154391   0.505   3.561   0.545 -1.4714  0.5106 -0.6535
10992TIP3    H254392   0.548   3.706   0.536 -0.2117  0.1902  0.0776
10993TIP3   OH254393   3.566   3.212  16.920 -0.7081 -0.3112 -0.2156
10993TIP3    H154394   3.612   3.258  16.850 -0.5619 -1.3262 -0.7967
10993TIP3    H254395   3.634   3.195  16.985 -0.6125 -0.3222 -0.3160
10994TIP3   OH254396   5.745   2.133  13.988  0.4852  0.4095  0.1740
10994TIP3    H154397   5.781   2.068  13.928 -0.3837  0.3807 -0.3170
10994TIP3    H254398   5.817   2.153  14.047  0.3895 -2.0238  1.1906
10995TIP3   OH254399   6.297   4.074   6.254  0.1569 -0.1163 -0.0611
10995TIP3    H154400   6.294   3.980   6.273 -1.0499  0.0123  0.4670
10995TIP3    H254401   6.317   4.079   6.160  0.8328 -0.8797  0.0329
10996TIP3   OH254402   5.273   1.128   5.369  0.2268  0.0293 -0.1844
10996TIP3    H154403   5.248   1.220   5.378  1.2733  0.3787 -0.7639
10996TIP3    H254404   5.199   1.080   5.405 -1.5246  1.0243 -2.3391
10997TIP3   OH254405   3.720   1.909  15.576  0.0109  0.0943  0.2018
10997TIP3    H154406   3.660   1.983  15.585 -0.4428 -0.1599 -0.6055
10997TIP3    H254407   3.747   1.912  15.484  1.6058  0.4811  0.6771
10998TIP3   OH254408   4.257   2.447  11.711 -0.2205 -0.2354 -0.0385
10998TIP3    H154409   4.247   2.491  11.795 -2.3950 -0.3344 -0.2229
10998TIP3    H254410   4.194   2.491  11.654 -0.4708 -1.7837 -0.9633
10999TIP3   OH254411   6.153   6.466  13.963 -0.1020 -0.0648  0.5600
10999TIP3    H154412   6.149   6.380  13.921  0.9137  0.1244  0.0616
10999TIP3    H254413   6.081   6.465  14.026  0.0648 -1.3804  0.7435
11000TIP3   OH254414   5.449   3.881   3.101  0.0100  0.1724  0.5277
11000TIP3    H154415   5.424   3.973   3.095  0.7922  0.3885  0.6329
11000TIP3    H254416   5.541   3.882   3.125  0.1613 -0.6357  0.0133
11001TIP3   OH254417   3.944   4.811   6.394 -0.0809 -0.2270 -0.1098
11001TIP3    H154418   3.854   4.831   6.422  0.2545 -0.2979  1.0071
11001TIP3    H254419   3.999   4.870   6.445  0.4353  0.7135 -1.7161
11002TIP3   OH254420   5.427   5.350  12.916  0.0777 -0.6559 -0.0256
11002TIP3    H154421   5.406   5.260  12.894 -0.5248 -0.6930  0.6873
11002TIP3    H254422   5.343   5.396  12.914  0.1912 -0.3984  0.9527
11003TIP3   OH254423   1.455   4.499  16.637  0.2575 -0.6170 -0.1240
11003TIP3    H154424   1.540   4.459  16.622  0.0795 -1.6586  1.4886
11003TIP3    H254425   1.394   4.425  16.641 -0.5420  0.0332 -0.1307
11004TIP3   OH254426   0.280   1.884   5.537  0.0043  0.6356 -0.1924
11004TIP3    H154427   0.319   1.881   5.625  0.7115  0.1556 -0.5222
11004TIP3    H254428   0.354   1.873   5.478 -0.7233 -1.0091 -0.8150
11005TIP3   OH254429   2.968   2.031  15.866 -0.3481  0.4160 -0.3363
11005TIP3    H154430   3.042   2.083  15.835 -0.8623  2.1552  1.2716
11005TIP3    H254431   2.891   2.076  15.832 -0.8102  0.8873  1.3030
11006TIP3   OH254432   1.213   6.151  13.376 -0.8707 -0.1284 -0.0190
11006TIP3    H154433   1.282   6.214  13.400 -0.5318 -0.8208  0.8616
11006TIP3    H254434   1.170   6.190  13.300  1.3422 -0.2753 -1.4026
11007TIP3   OH254435   4.499   1.893   5.327  0.2737  0.4043  0.3739
11007TIP3    H154436   4.457   1.893   5.241 -0.4737  3.3038  0.6951
11007TIP3    H254437   4.427   1.894   5.390  0.7903 -2.9060  1.1457
11008TIP3   OH254438   1.973   2.458  11.657  0.2013  0.2044 -0.0758
11008TIP3    H154439   1.945   2.453  11.749 -1.8726  0.9550 -0.6211
11008TIP3    H254440   1.910   2.519  11.617  2.0045  1.0665 -1.6539
11009TIP3   OH254441   1.496   3.470   5.631  0.0679 -0.0500 -0.2447
11009TIP3    H154442   1.471   3.387   5.671  1.7958 -2.0424 -3.1206
11009TIP3    H254443   1.421   3.495   5.577 -0.0613 -0.2719 -0.1679
11010TIP3   OH254444   0.221   6.181  14.098 -0.2765 -0.3707 -0.2208
11010TIP3    H154445   0.159   6.109  14.111 -1.0234  0.1884 -0.6415
11010TIP3    H254446   0.268   6.158  14.018 -0.8885 -0.1237 -0.6519
11011TIP3   OH254447   6.224   3.760   0.641  0.0372  0.6756 -0.5874
11011TIP3    H154448   6.232   3.786   0.732 -0.2175  0.6291 -0.5518
11011TIP3    H254449   6.227   3.842   0.592 -0.6481  0.7642 -0.4833
11012TIP3   OH254450   4.660   5.613   6.095 -0.3771  0.5330 -0.1929
11012TIP3    H154451   4.748   5.579   6.077 -0.2663  1.3018 -1.1380
11012TIP3    H254452   4.607   5.534   6.109 -0.3410 -0.1284 -3.4085
11013TIP3   OH254453   6.649   3.787   3.246 -0.2434 -0.7209 -0.3349
11013TIP3    H154454   6.562   3.796   3.209  1.0273  0.1717 -3.2672
11013TIP3    H254455   6.657   3.861   3.307 -1.2360 -0.3558 -0.6457
11014TIP3   OH254456   2.895   0.689  13.141 -0.4892 -0.1198 -0.0617
11014TIP3    H154457   2.901   0.777  13.105  1.1484 -0.4299 -0.5695
11014TIP3    H254458   2.932   0.632  13.073  1.0190 -0.9010  1.3814
11015TIP3   OH254459   0.900   2.142  17.189  0.5465 -0.1245  0.4337
11015TIP3    H154460   0.885   2.228  17.226  1.3272 -0.2345  1.0014
11015TIP3    H254461   0.819   2.122  17.142 -1.0742 -0.6465  3.3460
11016TIP3   OH254462   3.975   3.977  15.329 -0.5036  0.0466 -0.1843
11016TIP3    H154463   3.927   3.978  15.412  0.7911 -1.3522  0.6000
11016TIP3    H254464   3.957   3.890  15.292  0.4551 -0.0372 -0.4577
11017TIP3   OH254465   0.972   0.651  12.217 -0.3125  0.3057 -0.5645
11017TIP3    H154466   0.909   0.603  12.165 -1.4979  1.9949 -0.7379
11017TIP3    H254467   1.006   0.718  12.157  2.5820 -1.3477 -0.8582
11018TIP3   OH254468   6.044   3.078   4.222 -0.4136  0.2314  0.5766
11018TIP3    H154469   6.043   3.093   4.317 -2.3278  0.0568  0.5841
11018TIP3    H254470   5.965   3.121   4.189  0.8880  1.3940 -1.1273
11019TIP3   OH254471   1.766   5.433   5.933  0.4801  0.2395  0.3928
11019TIP3    H154472   1.757   5.346   5.971 -1.0160  1.2761  2.5131
11019TIP3    H254473   1.759   5.493   6.007 -0.0995  2.2445 -1.2073
11020TIP3   OH254474   6.525   0.162  14.756  0.2708 -0.2078 -0.3452
11020TIP3    H154475   6.440   0.181  14.794  0.8235 -0.3866  0.9914
11020TIP3    H254476   6.529   0.217  14.677 -1.0899 -0.2487 -0.4536
11021TIP3   OH254477   4.538   5.431   0.761 -0.0369  0.1828  0.5660
11021TIP3    H154478   4.534   5.393   0.674  0.3900 -1.6061  1.2888
11021TIP3    H254479   4.501   5.518   0.752 -0.8860 -0.3427 -1.1982
11022TIP3   OH254480   0.620   2.845   5.197  0.3215 -0.0395  0.2462
11022TIP3    H154481   0.649   2.811   5.281 -2.0606 -0.0222  1.1137
11022TIP3    H254482   0.621   2.940   5.207 -2.1605 -0.0672  1.0732
11023TIP3   OH254483   3.413   4.329   0.911  0.4128  0.5858  0.0445
11023TIP3    H154484   3.329   4.310   0.953 -0.0080  0.1694 -0.9807
11023TIP3    H254485   3.440   4.246   0.872  1.7905  0.4638  1.1935
11024TIP3   OH254486   4.100   1.892   0.667  0.2595 -0.2688 -1.0048
11024TIP3    H154487   4.030   1.925   0.723 -0.3811 -1.1988 -1.2574
11024TIP3    H254488   4.176   1.945   0.691 -0.4804  0.6410 -0.6181
11025TIP3   OH254489   4.808   1.994  16.990 -0.0254 -0.0034  0.2471
11025TIP3    H154490   4.818   2.079  16.947 -1.4944 -0.6728 -1.4793
11025TIP3    H254491   4.724   2.000  17.036 -1.1671 -1.1959 -1.5961
11026TIP3   OH254492   1.817   3.413  12.151 -0.3698  0.1571  0.0096
11026TIP3    H154493   1.830   3.508  12.160 -0.2969  0.3061 -1.4994
11026TIP3    H254494   1.799   3.401  12.058  0.4589 -1.4114  0.0454
11027TIP3   OH254495   1.528   6.165   4.180 -0.0763  0.2216  0.0908
11027TIP3    H154496   1.521   6.108   4.103  1.4660  0.1211  0.0219
11027TIP3    H254497   1.512   6.106   4.254 -0.8669  0.1828 -0.1001
11028TIP3   OH254498   6.285   3.708  14.595 -0.1998 -0.3491  0.5828
11028TIP3    H154499   6.374   3.741  14.585 -0.4433  0.0255 -0.4709
11028TIP3    H254500   6.295   3.624  14.640  0.5592  0.3728  1.7893
11029TIP3   OH254501   3.165   4.840  15.217 -0.2317 -0.1776  0.0892
11029TIP3    H154502   3.206   4.756  15.195  2.0365  0.4376  1.7147
11029TIP3    H254503   3.196   4.900  15.149  0.2771 -0.0731  0.4118
11030TIP3   OH254504   0.407   6.396  13.432 -0.4865 -0.0096  0.3973
11030TIP3    H154505   0.432   6.489  13.432  0.1296 -0.1575  1.3673
11030TIP3    H254506   0.337   6.389  13.368  1.7917  0.4864 -2.2531
11031TIP3   OH254507   6.141   3.737  15.241  0.1843  0.2587  0.1556
11031TIP3    H154508   6.074   3.743  15.174 -3.5380 -0.6229  3.6103
11031TIP3    H254509   6.142   3.824  15.282  0.9131  0.1526  0.3710
11032TIP3   OH254510   4.588   1.330   6.830  0.3094  0.0876 -0.7125
11032TIP3    H154511   4.568   1.276   6.754 -0.2358  0.0396 -0.5330
11032TIP3    H254512   4.554   1.417   6.807 -2.0737 -0.4806  0.4530
11033TIP3   OH254513   2.242   0.449   1.268  0.2300 -0.3046  0.5935
11033TIP3    H154514   2.181   0.509   1.225  1.4044  0.8327  0.4643
11033TIP3    H254515   2.205   0.435   1.355 -0.4435  0.0255  0.3652
11034TIP3   OH254516   2.325   4.142   1.294 -0.7369 -0.0254  0.2450
11034TIP3    H154517   2.313   4.212   1.359 -2.4644  0.4968 -0.5995
11034TIP3    H254518   2.386   4.081   1.336 -3.3402 -0.7507  3.2325
11035TIP3   OH254519   5.885   5.645  12.313  0.2661  0.1062 -0.3734
11035TIP3    H154520   5.904   5.580  12.246 -0.7752 -0.0177 -0.5602
11035TIP3    H254521   5.925   5.726  12.281 -1.3725  0.3841 -1.8241
11036TIP3   OH254522   2.073   1.171   2.657  0.3310  0.0319  0.1812
11036TIP3    H154523   2.033   1.089   2.686 -0.5936  0.0781 -0.9393
11036TIP3    H254524   2.003   1.217   2.612  1.1879  0.8899 -0.2836
11037TIP3   OH254525   3.691   2.782   3.046  0.2261  0.2565 -0.2875
11037TIP3    H154526   3.675   2.814   3.135  0.0204  0.5867 -0.4460
11037TIP3    H254527   3.750   2.846   3.007 -1.9849  1.6961 -1.3799
11038TIP3   OH254528   3.056   4.841  12.211 -0.1116 -0.0890 -0.1581
11038TIP3    H154529   3.146   4.874  12.205 -0.0088 -0.7109 -2.5585
11038TIP3    H254530   3.066   4.746  12.216 -0.6007 -0.0954  0.7469
11039TIP3   OH254531   5.417   0.890  11.991 -0.3295 -0.0078  0.2645
11039TIP3    H154532   5.404   0.795  11.991 -0.6813  0.0368 -0.2723
11039TIP3    H254533   5.404   0.915  11.900 -0.1565  0.5480  0.3948
11040TIP3   OH254534   1.074   0.347   3.990  0.3850  0.2077 -0.7044
11040TIP3    H154535   1.063   0.295   4.069  1.9510 -0.3331 -0.8120
11040TIP3    H254536   0.986   0.355   3.954  0.1414 -2.8148 -0.9446
11041TIP3   OH254537   0.644   0.629   6.116 -0.2552 -0.7493  0.4663
11041TIP3    H154538   0.549   0.615   6.113 -0.3272 -0.0113 -1.5100
11041TIP3    H254539   0.654   0.724   6.125  0.2885 -0.8596  1.0291
11042TIP3   OH254540   6.670   5.502  16.444  0.0178  0.3876 -0.4791
11042TIP3    H154541   6.737   5.435  16.437 -1.1984 -0.9242  0.1234
11042TIP3    H254542   6.637   5.513  16.354  0.3872  0.3616 -0.6149
11043TIP3   OH254543   0.831   6.382  16.212 -0.2769 -0.2842  0.3512
11043TIP3    H154544   0.784   6.464  16.229  2.6557  1.6791 -0.7516
11043TIP3    H254545   0.844   6.381  16.117  1.4518 -1.0215  0.5796
11044TIP3   OH254546   1.563   5.569  15.760  0.0396  0.7604  0.5047
11044TIP3    H154547   1.626   5.603  15.697 -0.2060 -0.5718 -0.5049
11044TIP3    H254548   1.601   5.487  15.791  0.1150  1.3628  2.0453
11045TIP3   OH254549   2.283   0.943   2.512 -0.5019  0.0888  0.0797
11045TIP3    H154550   2.199   0.973   2.548 -0.6237  0.1373 -0.2382
11045TIP3    H254551   2.259   0.897   2.431 -0.2928 -0.6198  0.4179
11046TIP3   OH254552   1.662   4.978  13.849 -0.0614 -0.4675  0.7171
11046TIP3    H154553   1.606   4.940  13.916  1.0142 -2.7535  0.3693
11046TIP3    H254554   1.610   4.976  13.769 -0.1624 -0.8548  0.7919
11047TIP3   OH254555   1.884   4.793   5.256  0.2601  0.4727  0.0041
11047TIP3    H154556   1.836   4.745   5.188 -0.5169 -0.1317  0.9654
11047TIP3    H254557   1.821   4.857   5.289 -0.2403 -0.9846  1.9578
11048TIP3   OH254558   6.472   2.625  14.843  0.2965  0.9815  0.5203
11048TIP3    H154559   6.518   2.638  14.926  1.0857  1.3724  0.0246
11048TIP3    H254560   6.464   2.530  14.836  0.6051  0.9288  0.8377
11049TIP3   OH254561   2.446   3.114   1.646  0.3745  0.1853 -0.3127
11049TIP3    H154562   2.408   3.166   1.576 -0.1929  0.7816  0.4435
11049TIP3    H254563   2.397   3.138   1.724  1.0604 -0.4178  0.3117
11050TIP3   OH254564   6.268   1.798  14.317  0.1834  0.0027  0.4703
11050TIP3    H154565   6.186   1.846  14.305 -1.5569 -2.7581  0.8817
11050TIP3    H254566   6.323   1.824  14.243 -1.3549  1.3087 -0.2258
11051TIP3   OH254567   2.474   4.731   4.530  0.2007 -0.5587  0.0588
11051TIP3    H154568   2.456   4.808   4.476 -0.0033  0.1284  1.1061
11051TIP3    H254569   2.410   4.666   4.501 -0.3627  0.0395 -0.0375
11052TIP3   OH254570   0.541   0.523   3.747  0.2857 -0.4167  0.4810
11052TIP3    H154571   0.545   0.435   3.710  1.1964 -1.4094  2.7755
11052TIP3    H254572   0.449   0.537   3.767 -0.1424 -0.0355 -1.7272
11053TIP3   OH254573   0.499   1.517  11.295  0.2692 -0.5697  0.6848
11053TIP3    H154574   0.498   1.531  11.200 -0.0192 -0.5841  0.6849
11053TIP3    H254575   0.407   1.513  11.319  0.3096  1.4081  1.2573
11054TIP3   OH254576   2.244   4.209   2.455 -0.2105 -0.1744 -0.3209
11054TIP3    H154577   2.294   4.146   2.506  0.0966 -0.3391 -0.8180
11054TIP3    H254578   2.156   4.206   2.491 -0.7037 -2.3339 -1.6183
11055TIP3   OH254579   0.105   2.920  12.750 -0.0661 -0.7228  0.0593
11055TIP3    H154580   0.122   2.852  12.685  0.6844 -0.9997  0.5327
11055TIP3    H254581   0.126   2.879  12.834  0.9440  0.2632  0.3076
11056TIP3   OH254582   4.422   1.456  11.732  0.2939 -0.5980 -0.6212
11056TIP3    H154583   4.404   1.434  11.641  1.7196 -0.1253 -1.0341
11056TIP3    H254584   4.477   1.385  11.764  0.2993 -0.4561 -0.3103
11057TIP3   OH254585   4.192   4.220   1.644 -0.1859  0.7960 -0.0372
11057TIP3    H154586   4.253   4.292   1.631 -0.9542  1.2895 -0.9671
11057TIP3    H254587   4.114   4.261   1.680 -0.7281  0.4727 -0.8306
11058TIP3   OH254588   0.120   0.857  16.156  0.6057 -0.7423 -0.3206
11058TIP3    H154589   0.143   0.773  16.116 -0.3069 -1.2512  0.1893
11058TIP3    H254590   0.163   0.855  16.242 -0.8229 -1.4418  0.3926
11059TIP3   OH254591   2.091   0.629   1.140  0.1389 -0.3315 -0.1250
11059TIP3    H154592   1.998   0.609   1.155 -0.0867  0.8088  0.0276
11059TIP3    H254593   2.106   0.709   1.189  1.5090 -1.1496  0.8094
11060TIP3   OH254594   3.869   4.991  13.557  0.1082  0.2863 -0.0500
11060TIP3    H154595   3.856   4.903  13.522  0.1251  0.8723 -1.5820
11060TIP3    H254596   3.783   5.016  13.591 -0.0169 -0.1503 -0.0440
11061TIP3   OH254597   6.512   5.701   0.488 -0.1274 -0.0362  0.7352
11061TIP3    H154598   6.506   5.618   0.535 -0.8038 -0.9120 -0.8595
11061TIP3    H254599   6.434   5.704   0.432 -0.2100  1.7558  0.8983
11062TIP3   OH254600   3.089   5.271   3.924 -0.0619 -0.1945  0.3937
11062TIP3    H154601   3.142   5.342   3.889  0.1194  0.0736  1.2128
11062TIP3    H254602   3.046   5.308   4.001 -0.9695 -0.5875  0.0862
11063TIP3   OH254603   2.453   0.263  14.079  0.0737  0.8247 -0.1687
11063TIP3    H154604   2.522   0.276  14.015  0.2297  0.9964  0.0339
11063TIP3    H254605   2.436   0.169  14.077  0.3170  0.7811 -0.2133
11064TIP3   OH254606   3.230   2.154  15.855 -0.1167  0.0055 -0.2596
11064TIP3    H154607   3.222   2.238  15.900  0.4691 -1.5251  2.8186
11064TIP3    H254608   3.306   2.165  15.798 -1.2822  2.2064 -1.4742
11065TIP3   OH254609   6.443   4.178  12.536  0.8818  0.5526 -0.1704
11065TIP3    H154610   6.418   4.174  12.443 -2.1212 -0.7734  0.6533
11065TIP3    H254611   6.480   4.092  12.554 -2.4683 -0.7708  0.8536
11066TIP3   OH254612   4.749   5.765   2.264 -0.1566 -0.8388  0.6813
11066TIP3    H154613   4.655   5.784   2.256  0.1577  0.9569  1.0348
11066TIP3    H254614   4.779   5.756   2.173 -0.3502  0.2768  0.4999
11067TIP3   OH254615   0.886   2.765  10.842 -0.3120 -0.9464 -0.0440
11067TIP3    H154616   0.907   2.844  10.793  0.7908 -1.3624 -0.2667
11067TIP3    H254617   0.967   2.714  10.841 -0.5231 -1.3441  1.4829
11068TIP3   OH254618   3.892   1.690   1.230 -0.3709  0.6868 -0.4742
11068TIP3    H154619   3.942   1.771   1.242 -1.4125  1.4248 -1.0120
11068TIP3    H254620   3.828   1.711   1.162  0.0997 -0.9484 -1.4470
11069TIP3   OH254621   2.191   6.440   0.305  0.1077 -0.0838  0.3629
11069TIP3    H154622   2.230   6.396   0.229 -1.6307 -0.7278 -0.1728
11069TIP3    H254623   2.102   6.460   0.278  0.1650  1.7289  1.4349
11070TIP3   OH254624   4.358   5.113   1.800 -0.0013 -0.5106  0.0268
11070TIP3    H154625   4.370   5.112   1.894  0.3207  0.9456  0.0180
11070TIP3    H254626   4.267   5.086   1.786  0.2063 -1.5548  0.6956
11071TIP3   OH254627   4.752   5.624   5.380 -0.2240 -0.3804 -0.2485
11071TIP3    H154628   4.779   5.675   5.457  0.1181 -1.7537  0.5612
11071TIP3    H254629   4.674   5.669   5.348 -0.5388  0.0447  1.0728
11072TIP3   OH254630   1.964   4.928  13.583 -0.7312  0.7744 -0.5217
11072TIP3    H154631   2.015   4.859  13.540  1.6897  0.7417  2.2173
11072TIP3    H254632   1.936   4.985  13.512  0.4119 -0.9789 -2.4644
11073TIP3   OH254633   5.461   3.780   3.714  0.4321 -0.2814 -0.2456
11073TIP3    H154634   5.453   3.693   3.674  0.5784  0.0668 -1.0433
11073TIP3    H254635   5.399   3.834   3.666  0.6279  0.1468 -0.0145
11074TIP3   OH254636   4.554   3.009   4.424 -0.1722 -0.1794 -0.3944
11074TIP3    H154637   4.595   3.050   4.348  2.0442 -0.1961  0.7443
11074TIP3    H254638   4.491   2.946   4.387  0.1301  0.5494 -2.1815
11075TIP3   OH254639   0.430   2.179   4.645 -0.1537 -0.6606  0.5333
11075TIP3    H154640   0.462   2.147   4.729 -0.1527 -1.3914  0.2606
11075TIP3    H254641   0.508   2.187   4.591  0.0618  1.4881  1.1415
11076TIP3   OH254642   0.815   6.615  14.488 -0.3272 -0.2819  0.0687
11076TIP3    H154643   0.813   6.520  14.478  1.0137 -0.2187 -0.9490
11076TIP3    H254644   0.763   6.648  14.414 -0.2899 -0.2080  0.0748
11077TIP3   OH254645   1.603   1.771   4.049  0.1771  0.2054  0.1231
11077TIP3    H154646   1.607   1.675   4.053  0.6414  0.2462  0.6460
11077TIP3    H254647   1.649   1.793   3.967 -1.2427 -0.0991 -0.7659
11078TIP3   OH254648   4.165   1.189  15.417  0.3079  0.2514 -0.1422
11078TIP3    H154649   4.103   1.155  15.352  1.3837  0.2839 -1.2081
11078TIP3    H254650   4.245   1.205  15.367  0.0879  3.6040  0.4643
11079TIP3   OH254651   1.120   3.154  11.508  0.5466 -0.2308  0.2431
11079TIP3    H154652   1.080   3.239  11.527 -0.0478 -0.4461 -0.0672
11079TIP3    H254653   1.066   3.091  11.555 -0.3679 -0.6781 -1.3736
11080TIP3   OH254654   2.713   1.285  12.467 -0.3292 -0.6170 -0.4578
11080TIP3    H154655   2.782   1.243  12.518  1.4734  0.1710 -2.1685
11080TIP3    H254656   2.634   1.275  12.520  1.0212 -1.8606  1.3757
11081TIP3   OH254657   5.331   5.902  14.847  0.9229  0.1554  0.1149
11081TIP3    H154658   5.421   5.931  14.860  0.8027 -0.3377  2.2656
11081TIP3    H254659   5.314   5.844  14.922 -1.9877  2.1946  1.1212
11082TIP3   OH254660   4.401   6.314  13.689 -0.3874  0.4222 -0.6659
11082TIP3    H154661   4.468   6.267  13.640  3.0256  1.6925  2.5751
11082TIP3    H254662   4.391   6.264  13.771 -1.6583  1.5722 -0.0924
11083TIP3   OH254663   2.815   6.707   0.161  1.1329  0.8779 -0.0476
11083TIP3    H154664   2.742   6.724   0.102  0.3396 -1.3969  0.2147
11083TIP3    H254665   2.833   6.791   0.202 -1.5186  1.4258  0.0716
11084TIP3   OH254666   1.502   1.420   4.148 -0.1090  0.1473 -0.3577
11084TIP3    H154667   1.556   1.443   4.224 -0.7202  0.7981 -0.1162
11084TIP3    H254668   1.421   1.470   4.159 -0.6828 -0.6577 -0.8311
11085TIP3   OH254669   0.872   0.338  14.132  0.1690 -0.3798  0.4779
11085TIP3    H154670   0.895   0.294  14.050  1.4560  0.5009  0.3444
11085TIP3    H254671   0.783   0.370  14.118 -0.1447 -1.4595 -0.0432
11086TIP3   OH254672   3.627   2.230  11.479 -0.2161  0.3457  0.2813
11086TIP3    H154673   3.623   2.134  11.479  0.5787  0.3032  1.0772
11086TIP3    H254674   3.537   2.258  11.464 -0.6653 -0.5368  1.2392
11087TIP3   OH254675   2.774   4.084  15.217 -0.0576  0.2554  0.2027
11087TIP3    H154676   2.729   4.002  15.233  0.8169 -0.2639  0.0264
11087TIP3    H254677   2.793   4.119  15.305  0.2842 -0.1300  0.2834
11088TIP3   OH254678   0.755   0.060  12.962 -0.6939 -0.1252  1.0189
11088TIP3    H154679   0.670   0.071  12.918  0.1520 -0.2247 -0.7102
11088TIP3    H254680   0.797   0.145  12.953 -0.0433 -0.4872  0.5812
11089TIP3   OH254681   3.051   2.061  16.272 -0.4489 -0.4860 -0.1755
11089TIP3    H154682   3.072   2.050  16.365 -0.2355 -0.8642 -0.2673
11089TIP3    H254683   3.133   2.089  16.232 -0.0685 -2.1542 -0.5689
11090TIP3   OH254684   0.306   1.233  13.324  0.4554 -0.1741  0.2954
11090TIP3    H154685   0.315   1.164  13.390  2.1708  0.6107  0.9032
11090TIP3    H254686   0.321   1.187  13.241 -1.4303 -1.1053  0.4356
11091TIP3   OH254687   4.495   1.498  14.784 -0.4304  0.1497 -0.3727
11091TIP3    H154688   4.545   1.481  14.704 -1.7295  0.6056 -1.2815
11091TIP3    H254689   4.449   1.580  14.768  1.2065  1.5583  1.7911
11092TIP3   OH254690   3.138   2.615   0.963 -0.1847  0.1528 -0.0553
11092TIP3    H154691   3.121   2.679   1.033 -1.0744 -1.4058  1.1901
11092TIP3    H254692   3.070   2.633   0.898  0.4215  1.3782 -0.3652
11093TIP3   OH254693   3.545   3.195  14.603  0.0954  0.1623 -0.2463
11093TIP3    H154694   3.528   3.101  14.601  0.8301  0.0138  0.5737
11093TIP3    H254695   3.514   3.226  14.517 -2.4395 -0.4130  0.4029
11094TIP3   OH254696   0.312   3.497   5.901 -0.5213 -0.0297 -0.2678
11094TIP3    H154697   0.252   3.467   5.832 -0.6604 -1.0417  0.2947
11094TIP3    H254698   0.255   3.539   5.965 -0.6692 -1.2340  0.3997
11095TIP3   OH254699   2.361   1.764   4.315  0.1880  0.1977 -1.0983
11095TIP3    H154700   2.286   1.823   4.320 -1.6468 -2.0493 -1.1492
11095TIP3    H254701   2.337   1.690   4.371  2.4328 -0.5089 -1.0164
11096TIP3   OH254702   3.768   0.519   3.873 -0.4940  0.5531 -0.3178
11096TIP3    H154703   3.708   0.446   3.857 -1.5132  0.6292  2.8977
11096TIP3    H254704   3.712   0.597   3.872  0.4236  1.2282 -2.6542
11097TIP3   OH254705   4.295   6.713  16.299  0.4088  0.6147 -0.1389
11097TIP3    H154706   4.358   6.696  16.228  0.4646 -1.5353  0.3984
11097TIP3    H254707   4.209   6.706  16.258  0.4598  0.5500 -0.2339
11098TIP3   OH254708   2.354   4.756  17.007  0.4514  0.0048  0.3631
11098TIP3    H154709   2.403   4.744  16.926 -0.7571 -1.5140 -0.1641
11098TIP3    H254710   2.373   4.846  17.034  2.4097 -0.1224 -0.5611
11099TIP3   OH254711   5.338   4.473   3.046 -0.1782 -0.4183  0.7529
11099TIP3    H154712   5.261   4.474   2.989 -0.0256  1.5258  0.5574
11099TIP3    H254713   5.328   4.551   3.101  0.3039 -1.6129  2.5571
11100TIP3   OH254714   2.946   1.360  10.946 -0.0981  0.4219 -0.4258
11100TIP3    H154715   3.037   1.339  10.969 -0.6462 -1.4006  0.0796
11100TIP3    H254716   2.943   1.351  10.851  0.5681  1.7601 -0.5851
11101TIP3   OH254717   0.746   4.976   0.043 -0.7859  0.2481 -0.5536
11101TIP3    H154718   0.831   4.964   0.084 -0.6381 -1.2183 -1.2824
11101TIP3    H254719   0.683   4.942   0.106 -0.7858  0.6605 -0.3271
11102TIP3   OH254720   2.099   5.364   6.299 -0.4751 -0.0385 -0.2085
11102TIP3    H154721   2.103   5.459   6.307  0.5355 -0.1725  0.8780
11102TIP3    H254722   2.084   5.332   6.388 -0.9521 -0.8949 -0.5830
11103TIP3   OH254723   5.709   5.137  13.281 -0.8090 -0.2200 -0.0054
11103TIP3    H154724   5.713   5.056  13.332  2.2980 -1.0314 -1.4529
11103TIP3    H254725   5.667   5.200  13.340  1.5216 -1.4820  3.1374
11104TIP3   OH254726   4.328   2.847   1.415 -0.6497  0.1900 -0.0561
11104TIP3    H154727   4.392   2.840   1.486  0.2561 -0.1763 -0.8968
11104TIP3    H254728   4.309   2.756   1.391 -0.6717  0.3164 -0.5298
11105TIP3   OH254729   5.952   2.111   5.080 -0.2378 -0.4536  0.2984
11105TIP3    H154730   5.876   2.054   5.092 -0.5868  0.0345  0.4073
11105TIP3    H254731   5.939   2.181   5.144  0.2608 -0.3274  0.2579
11106TIP3   OH254732   5.700   5.581   2.394  0.3778 -0.7832 -0.4808
11106TIP3    H154733   5.667   5.504   2.349 -0.9851 -1.2002  1.1549
11106TIP3    H254734   5.622   5.623   2.431  1.4176 -0.4793  1.4721
11107TIP3   OH254735   0.741   2.165  16.457 -0.6510  0.1591 -0.3602
11107TIP3    H154736   0.783   2.158  16.543  1.5362  0.1857 -1.3776
11107TIP3    H254737   0.760   2.255  16.429 -0.1133 -0.2909 -1.4565
11108TIP3   OH254738   2.352   2.733   3.351 -0.0786  0.2543 -0.4532
11108TIP3    H154739   2.262   2.708   3.330 -0.3108  1.3221 -0.7465
11108TIP3    H254740   2.400   2.650   3.354 -0.4247 -0.1044 -3.2886
11109TIP3   OH254741   4.553   4.556  11.836  0.3305  0.0791  0.3378
11109TIP3    H154742   4.638   4.534  11.799  0.6190  0.5803  0.6925
11109TIP3    H254743   4.558   4.651  11.852 -0.1224  0.0248  0.7935
11110TIP3   OH254744   0.578   1.346  14.061  0.2593 -0.0581 -0.0452
11110TIP3    H154745   0.514   1.312  13.998 -1.1374  1.1481  0.6842
11110TIP3    H254746   0.589   1.275  14.124  1.1424 -1.0112 -1.2273
11111TIP3   OH254747   4.821   5.023  11.480 -0.4651 -0.1773 -0.0809
11111TIP3    H154748   4.748   5.073  11.444  0.1010  0.7792  0.0888
11111TIP3    H254749   4.860   4.980  11.404 -1.7039 -1.3724 -0.0643
11112TIP3   OH254750   3.904   3.464   0.641 -0.1406 -0.6004 -0.0381
11112TIP3    H154751   3.934   3.549   0.608  2.3988 -1.2251  0.5571
11112TIP3    H254752   3.846   3.431   0.572 -0.3835  1.1771 -0.7081
11113TIP3   OH254753   5.500   0.179  12.852  0.0474 -0.5529  0.1200
11113TIP3    H154754   5.559   0.162  12.925  0.5744 -1.6619 -0.5455
11113TIP3    H254755   5.483   0.273  12.855  2.1034 -0.1737  0.1227
11114TIP3   OH254756   0.707   0.597   5.614  0.4001  0.3144 -0.6049
11114TIP3    H154757   0.677   0.659   5.547 -0.8839  0.7332  0.3419
11114TIP3    H254758   0.718   0.515   5.566 -2.3653  0.1105 -1.0097
11115TIP3   OH254759   5.228   4.805  11.252 -0.3925 -0.1113 -0.7048
11115TIP3    H154760   5.270   4.775  11.332 -0.9733 -2.0445 -1.1088
11115TIP3    H254761   5.290   4.868  11.214  0.3361  0.0406  0.7156
11116TIP3   OH254762   4.561   5.504  11.973  0.0242 -0.4628  0.1096
11116TIP3    H154763   4.599   5.569  12.032 -1.4313  0.4063  0.1047
11116TIP3    H254764   4.637   5.457  11.937  1.0170  0.3629  1.0939
11117TIP3   OH254765   5.949   1.607   0.672 -0.4831 -0.2134 -0.3997
11117TIP3    H154766   6.037   1.621   0.636 -0.7513  1.8172 -0.3709
11117TIP3    H254767   5.911   1.540   0.616  1.2043 -1.3830 -0.1954
11118TIP3   OH254768   4.207   2.745  12.920  0.2618 -0.1833  1.0055
11118TIP3    H154769   4.247   2.664  12.889  2.7799  2.2160 -2.2779
11118TIP3    H254770   4.115   2.738  12.894  1.1198 -0.7063 -2.0395
11119TIP3   OH254771   1.066   3.913   0.222 -0.1729  0.1065 -0.0840
11119TIP3    H154772   1.131   3.975   0.187  0.2281 -0.2629  0.0006
11119TIP3    H254773   1.020   3.881   0.144  0.9118 -0.9311 -0.3116
11120TIP3   OH254774   0.840   5.416   0.974 -0.5207  0.5203  0.2263
11120TIP3    H154775   0.843   5.494   1.030 -2.6307 -0.0709  1.2082
11120TIP3    H254776   0.781   5.356   1.020  0.7600 -1.5212 -0.7045
11121TIP3   OH254777   2.571   1.998  14.864 -0.2075  0.2551  0.4700
11121TIP3    H154778   2.574   1.903  14.878  0.4437  0.2218  0.1501
11121TIP3    H254779   2.486   2.014  14.823 -0.4939 -0.1371  0.9034
11122TIP3   OH254780   3.454   5.703  10.521  0.9218  0.1882 -0.0677
11122TIP3    H154781   3.390   5.686  10.453 -1.5008  1.2709  1.8850
11122TIP3    H254782   3.515   5.766  10.482  0.8196 -0.8211 -1.9159
11123TIP3   OH254783   3.869   2.975  12.963 -0.5623 -0.3724  0.3436
11123TIP3    H154784   3.903   2.902  13.015 -0.6879 -1.3884 -0.9733
11123TIP3    H254785   3.816   2.933  12.895  1.0192  0.8126 -1.6668
11124TIP3   OH254786   5.881   0.522  13.768  0.1385  0.0284  0.0396
11124TIP3    H154787   5.790   0.518  13.797 -0.4650 -0.1488 -1.7928
11124TIP3    H254788   5.930   0.471  13.833 -0.8139  1.4867  1.9401
11125TIP3   OH254789   0.768   5.554  14.415  0.1127  0.0366 -0.1787
11125TIP3    H154790   0.679   5.537  14.446 -0.1055  0.2365 -0.6875
11125TIP3    H254791   0.784   5.486  14.349  0.6846 -0.5756  0.5773
11126TIP3   OH254792   0.294   1.609  11.587  0.3934 -0.8254  0.0459
11126TIP3    H154793   0.350   1.543  11.628  0.7028 -0.7638 -0.2729
11126TIP3    H254794   0.220   1.561  11.552  0.2386 -0.9074  0.4797
11127TIP3   OH254795   5.922   4.119  11.375  0.0174 -0.3996 -0.2035
11127TIP3    H154796   5.936   4.194  11.319 -0.2560 -1.3198 -1.5338
11127TIP3    H254797   5.863   4.151  11.443 -0.4729  0.4659 -1.0209
11128TIP3   OH254798   3.457   5.891  11.766 -0.1462  0.2709  0.3876
11128TIP3    H154799   3.461   5.885  11.861  2.1773  0.2750  0.3132
11128TIP3    H254800   3.437   5.802  11.737  0.6801 -0.0549  0.8135
11129TIP3   OH254801   0.077   2.386  11.673  0.6890 -0.0216  0.0875
11129TIP3    H154802   0.097   2.435  11.593  1.4705 -1.2864 -0.5031
11129TIP3    H254803   0.163   2.361  11.708  0.2763 -1.3606  0.1404
11130TIP3   OH254804   5.228   4.720  16.097 -0.2167 -0.3736 -0.4906
11130TIP3    H154805   5.177   4.714  16.177 -0.3358 -1.6653 -0.6413
11130TIP3    H254806   5.317   4.696  16.124 -0.0886 -0.0031 -0.5867
11131TIP3   OH254807   3.181   0.520  12.653  0.4238  0.0597 -0.5842
11131TIP3    H154808   3.192   0.448  12.715  2.9853  0.5516 -0.4020
11131TIP3    H254809   3.233   0.591  12.691  0.8925  0.8100 -2.6017
11132TIP3   OH254810   1.782   4.677   2.568 -0.0220  0.0851 -0.1700
11132TIP3    H154811   1.703   4.627   2.550 -0.1741  0.3084 -0.1240
11132TIP3    H254812   1.784   4.744   2.499 -1.5838  2.1022  1.6847
11133TIP3   OH254813   1.090   1.191   1.333 -0.3201 -0.0411 -0.1871
11133TIP3    H154814   1.125   1.142   1.257 -1.1079 -0.1527 -0.4825
11133TIP3    H254815   1.012   1.142   1.359 -0.8124  0.7608 -0.1444
11134TIP3   OH254816   3.568   0.371  13.938 -0.0968 -0.6604  0.2197
11134TIP3    H154817   3.520   0.349  14.018  0.2364  0.8666  0.8555
11134TIP3    H254818   3.559   0.293  13.883 -2.6928 -0.6868  0.6019
11135TIP3   OH254819   6.414   0.767  13.538 -0.1891 -0.1265  0.1971
11135TIP3    H154820   6.374   0.700  13.483 -0.7319 -2.1789  2.9722
11135TIP3    H254821   6.483   0.721  13.586  0.9435  1.8262  0.5037
11136TIP3   OH254822   6.621   2.974   0.378  0.1316 -0.0360  0.3730
11136TIP3    H154823   6.593   2.897   0.329  1.7842 -1.1796  1.1838
11136TIP3    H254824   6.540   3.023   0.395 -0.8511 -1.2968 -0.6287
11137TIP3   OH254825   3.446   2.780   1.176  0.5509 -0.0920 -0.4071
11137TIP3    H154826   3.505   2.843   1.217  0.0415 -0.1234  0.3888
11137TIP3    H254827   3.378   2.834   1.136 -1.2268 -0.1811  2.3517
11138TIP3   OH254828   0.147   1.909  14.808 -0.0671  0.4959 -0.2727
11138TIP3    H154829   0.099   1.835  14.846  1.8280 -0.3436  0.4956
11138TIP3    H254830   0.156   1.885  14.715 -0.1260  0.1179 -0.1839
11139TIP3   OH254831   1.458   5.705   4.129 -0.3829 -0.7322 -0.2724
11139TIP3    H154832   1.441   5.693   4.035 -0.5225  1.9319 -0.6148
11139TIP3    H254833   1.375   5.683   4.171 -0.4858 -1.3992 -0.8014
11140TIP3   OH254834   0.602   4.935   0.862  0.1458  0.0439 -0.1386
11140TIP3    H154835   0.689   4.972   0.849  0.1386  0.0780 -0.0882
11140TIP3    H254836   0.559   4.996   0.923  0.4196 -0.4936  0.5990
11141TIP3   OH254837   4.562   6.785  12.145  0.3956  0.2119  0.0934
11141TIP3    H154838   4.543   6.879  12.138  0.0280  0.0457 -1.2442
11141TIP3    H254839   4.573   6.756  12.055 -0.7640 -1.2989  0.4261
11142TIP3   OH254840   5.518   2.185   5.844  0.1464  0.2810  0.4285
11142TIP3    H154841   5.424   2.191   5.826  0.2330  0.5643  0.0592
11142TIP3    H254842   5.559   2.198   5.758  0.5623  1.3239  0.7786
11143TIP3   OH254843   0.991   1.404  16.403  1.0620 -0.8145 -0.2580
11143TIP3    H154844   0.993   1.370  16.492  0.7226 -0.0927  0.0334
11143TIP3    H254845   0.993   1.499  16.414  1.1895 -0.7238 -1.0246
11144TIP3   OH254846   5.412   1.306   4.105  0.1486 -0.1673 -0.0140
11144TIP3    H154847   5.341   1.311   4.169  0.7006 -0.9938  0.6765
11144TIP3    H254848   5.433   1.397   4.085 -0.9572  0.0843 -0.0683
11145TIP3   OH254849   3.186   0.022  11.693 -0.1354  0.5421 -0.1194
11145TIP3    H154850   3.131   0.080  11.640 -0.2293 -2.6062 -3.6679
11145TIP3    H254851   3.272   0.064  11.692 -1.1416  2.7055  0.8606
11146TIP3   OH254852   4.619   4.954   1.269 -0.3917  0.3801 -0.0174
11146TIP3    H154853   4.621   4.951   1.174  0.5622  0.5987 -0.0053
11146TIP3    H254854   4.593   5.044   1.289 -0.9964  0.2205 -0.0708
11147TIP3   OH254855   0.814   5.445  12.352  0.3434 -0.0201  0.5623
11147TIP3    H154856   0.893   5.400  12.323 -0.1854 -1.9103  1.9260
11147TIP3    H254857   0.845   5.520  12.401  1.2580  0.7291 -1.1388
11148TIP3   OH254858   4.550   6.322  11.355 -0.0172 -0.7874 -0.0967
11148TIP3    H154859   4.584   6.272  11.430  0.5876  0.1321  0.2469
11148TIP3    H254860   4.527   6.407  11.392  0.0938 -0.3951 -0.9263
11149TIP3   OH254861   0.156   2.966   3.346 -0.0631  0.2740 -0.1530
11149TIP3    H154862   0.191   2.932   3.263  0.6653  3.5612 -1.2578
11149TIP3    H254863   0.062   2.971   3.332  0.2152  2.5739 -1.5333
11150TIP3   OH254864   6.706   4.802   1.013  0.2752 -0.4602 -0.0653
11150TIP3    H154865   6.663   4.817   1.098 -0.2834 -0.2093 -0.3927
11150TIP3    H254866   6.783   4.859   1.016  1.4503 -2.0700  1.1576
11151TIP3   OH254867   5.939   3.039   2.173 -0.5693  0.1298 -0.3737
11151TIP3    H154868   5.897   3.012   2.092  0.8047 -0.5647 -0.8761
11151TIP3    H254869   5.954   2.957   2.221 -2.5132  0.6531  1.1554
11152TIP3   OH254870   2.056   2.943  12.539 -0.4001  0.0836  0.2917
11152TIP3    H154871   2.126   2.897  12.492  0.9018 -0.1230  2.3776
11152TIP3    H254872   2.081   3.035  12.534  0.7322 -0.0983  2.1139
11153TIP3   OH254873   4.410   1.966  15.259  0.0939 -0.2611  0.2195
11153TIP3    H154874   4.489   1.948  15.208 -0.4587 -0.8719 -0.4187
11153TIP3    H254875   4.346   1.902  15.229 -0.6504  0.2273  0.7381
11154TIP3   OH254876   4.380   1.539  12.415 -0.1054  0.2893  0.0530
11154TIP3    H154877   4.322   1.585  12.475  2.4171 -0.8446  3.4882
11154TIP3    H254878   4.358   1.446  12.426  1.5382 -0.0622  0.5136
11155TIP3   OH254879   2.077   5.423  13.706  0.5256 -0.1418  0.7795
11155TIP3    H154880   2.002   5.365  13.714  0.5011 -0.2174 -0.0325
11155TIP3    H254881   2.116   5.424  13.794 -0.6949  0.2754  1.3156
11156TIP3   OH254882   0.606   1.671  12.709  0.0067  0.2237 -0.0010
11156TIP3    H154883   0.653   1.672  12.625 -0.9001 -0.2000 -0.5271
11156TIP3    H254884   0.527   1.723  12.693 -0.8458 -0.9774  0.1607
11157TIP3   OH254885   5.148   5.465  16.311  0.0912 -0.3379  0.8445
11157TIP3    H154886   5.088   5.415  16.257  2.1510 -2.3229  0.3082
11157TIP3    H254887   5.126   5.440  16.401 -0.7516 -0.0132  0.7335
11158TIP3   OH254888   0.782   2.102   2.649 -0.1612  0.5685  0.5021
11158TIP3    H154889   0.835   2.104   2.570 -1.6789  3.1663 -0.5220
11158TIP3    H254890   0.846   2.104   2.721  1.1924 -0.6807 -0.6371
11159TIP3   OH254891   4.312   3.694   6.847  0.1711  0.1524  0.1152
11159TIP3    H154892   4.322   3.783   6.813 -0.9573 -0.0502 -0.7806
11159TIP3    H254893   4.240   3.700   6.910 -0.3644 -0.2509 -0.4500
11160TIP3   OH254894   3.615   5.461   0.663  0.2524 -0.3374  0.2734
11160TIP3    H154895   3.525   5.444   0.634  0.4759  0.0852 -0.6943
11160TIP3    H254896   3.613   5.445   0.757 -0.4518 -1.9398  0.0176
11161TIP3   OH254897   3.513   1.596   3.793 -0.3641 -0.0046 -0.3228
11161TIP3    H154898   3.549   1.516   3.754 -2.1817 -1.7158  1.3404
11161TIP3    H254899   3.588   1.637   3.837  0.3705 -1.4578 -0.1701
11162TIP3   OH254900   0.224   6.397  13.187  0.1049 -0.2013  0.2626
11162TIP3    H154901   0.270   6.430  13.110 -0.0125  1.4042  0.8456
11162TIP3    H254902   0.140   6.365  13.154  1.2587 -2.3275 -0.6806
11163TIP3   OH254903   6.430   0.720   3.003 -0.0810  0.5472 -0.0547
11163TIP3    H154904   6.401   0.700   2.914  1.2204 -0.0683 -0.3564
11163TIP3    H254905   6.424   0.815   3.009  0.1958  0.6281 -0.9392
11164TIP3   OH254906   0.003   3.128   5.601 -0.4106  0.1781  0.5192
11164TIP3    H154907   0.070   3.063   5.577 -0.7675  0.3614 -1.0545
11164TIP3    H254908   0.052   3.195   5.650  0.3520 -0.2744  0.3920
11165TIP3   OH254909   1.056   1.872   1.694  0.2812  0.0747  0.2651
11165TIP3    H154910   1.001   1.871   1.772  0.1951 -0.3956  0.1952
11165TIP3    H254911   0.998   1.847   1.622  0.7128 -0.9940  0.2777
11166TIP3   OH254912   6.103   2.817  14.606 -0.2109  0.7004  0.3348
11166TIP3    H154913   6.175   2.760  14.581 -1.0569 -0.0388 -0.4766
11166TIP3    H254914   6.126   2.903  14.570 -0.4142  0.1334 -1.1722
11167TIP3   OH254915   1.502   2.171  10.565 -0.0116  0.7227 -0.4873
11167TIP3    H154916   1.593   2.159  10.591 -0.3707  0.9170  0.9075
11167TIP3    H254917   1.500   2.258  10.525  0.7620 -0.0202 -2.1918
11168TIP3   OH254918   6.385   3.114   0.401 -0.3114  0.4168  0.2963
11168TIP3    H154919   6.341   3.040   0.442 -0.6547  0.7451  0.5363
11168TIP3    H254920   6.319   3.183   0.398  0.1970  0.9377  0.7144
11169TIP3   OH254921   0.618   5.108  15.319 -0.2272 -0.6491 -0.4276
11169TIP3    H154922   0.704   5.068  15.303 -0.1566 -0.5577 -0.2794
11169TIP3    H254923   0.556   5.049  15.276  0.1239  0.6762 -2.8156
11170TIP3   OH254924   2.086   0.217  15.215 -0.4463  0.0818  0.3596
11170TIP3    H154925   2.014   0.208  15.153 -1.1434 -0.0459  1.1916
11170TIP3    H254926   2.094   0.311  15.230  0.6057  0.2333 -0.9396
11171TIP3   OH254927   1.092   0.337   4.997  0.3075 -0.3150 -0.0485
11171TIP3    H154928   1.143   0.401   5.047  0.1084 -1.2293  1.3390
11171TIP3    H254929   1.158   0.278   4.960  0.5412  1.0415 -1.8785
11172TIP3   OH254930   4.454   6.519   0.800  0.0109  0.0185 -0.0163
11172TIP3    H154931   4.396   6.501   0.874 -0.1150  0.2658 -0.0557
11172TIP3    H254932   4.442   6.612   0.782  0.7703  0.1781  0.2751
11173TIP3   OH254933   5.977   0.784  15.955  0.0809 -0.1107  0.2115
11173TIP3    H154934   5.960   0.812  16.045 -1.3122  0.7279 -0.2892
11173TIP3    H254935   5.975   0.689  15.958 -0.5036 -0.0804  0.9861
11174TIP3   OH254936   0.583   0.273  15.924  0.1118  0.0188  0.0541
11174TIP3    H154937   0.629   0.196  15.956  0.0201  0.7527  2.0100
11174TIP3    H254938   0.632   0.347  15.960 -1.2126  0.8338  0.2098
11175TIP3   OH254939   1.197   3.480  14.756  0.1501  0.2085  0.3038
11175TIP3    H154940   1.250   3.403  14.772  0.8092  0.8505  1.2735
11175TIP3    H254941   1.161   3.467  14.668 -0.2367 -1.4648  0.6934
11176TIP3   OH254942   3.837   6.085  14.661  0.0784 -0.0467 -0.0666
11176TIP3    H154943   3.763   6.026  14.675 -0.7980  0.7554 -1.0957
11176TIP3    H254944   3.903   6.031  14.618 -0.3885 -0.4951 -0.2376
11177TIP3   OH254945   5.999   4.638  15.260 -0.1026  0.4460  0.3013
11177TIP3    H154946   5.991   4.616  15.168  1.1237  1.0303  0.0423
11177TIP3    H254947   6.017   4.733  15.261 -1.4994  0.7076  1.2017
11178TIP3   OH254948   2.521   4.706   1.616 -0.0032 -0.2659  0.2524
11178TIP3    H154949   2.610   4.730   1.589  0.1720 -0.6550  0.4795
11178TIP3    H254950   2.527   4.612   1.637 -0.3893 -0.2149  0.5876
11179TIP3   OH254951   1.988   5.511   1.231  0.3040  0.4998  0.0033
11179TIP3    H154952   1.982   5.452   1.306 -1.0877 -0.0480 -0.5099
11179TIP3    H254953   2.068   5.562   1.246  0.9321 -0.7576  1.0017
11180TIP3   OH254954   1.664   3.875   5.765 -0.3527 -0.0167 -0.1967
11180TIP3    H154955   1.728   3.946   5.752 -2.1291  1.4176 -1.3689
11180TIP3    H254956   1.709   3.813   5.821  1.4867  1.7631  0.3776
11181TIP3   OH254957   6.472   1.078   6.020  0.2894  0.1731 -0.3808
11181TIP3    H154958   6.511   1.098   5.935  1.5259 -0.6074 -0.0158
11181TIP3    H254959   6.433   0.991   6.008 -1.2702  0.8901 -0.7030
11182TIP3   OH254960   5.215   1.944   0.856  0.1133  0.6081  0.1000
11182TIP3    H154961   5.178   1.855   0.855  0.0841  0.6265 -0.5807
11182TIP3    H254962   5.262   1.949   0.939  1.4197 -0.5727 -0.5508
11183TIP3   OH254963   0.706   3.775  16.136  0.2988  0.5180 -0.0523
11183TIP3    H154964   0.747   3.854  16.171  0.4832  1.2033 -1.7933
11183TIP3    H254965   0.643   3.807  16.071  1.9518 -0.8253 -2.4002
11184TIP3   OH254966   6.008   5.640  14.624  0.1958 -0.3312  0.3130
11184TIP3    H154967   6.061   5.563  14.644  1.0458  1.1416  4.0995
11184TIP3    H254968   6.072   5.704  14.592 -0.1475 -0.3166 -0.3576
11185TIP3   OH254969   2.439   4.785   2.387  0.5551 -0.1733 -0.0525
11185TIP3    H154970   2.450   4.733   2.467  0.8241  0.5977  0.4087
11185TIP3    H254971   2.380   4.856   2.412  0.8023  0.1880 -0.4891
11186TIP3   OH254972   6.248   0.251   3.254  0.3606  0.4205  0.3536
11186TIP3    H154973   6.219   0.336   3.221 -0.1446 -0.2428 -0.9746
11186TIP3    H254974   6.231   0.254   3.348 -0.8113  1.3349  0.1242
11187TIP3   OH254975   4.509   0.243   1.722  0.2270  0.3105  0.0266
11187TIP3    H154976   4.537   0.306   1.657  2.3399 -0.2142  0.3850
11187TIP3    H254977   4.429   0.280   1.760  0.7852  2.1686 -0.5913
11188TIP3   OH254978   5.450   2.502  16.629 -0.3816  0.2672 -0.3686
11188TIP3    H154979   5.465   2.479  16.721 -0.1629  2.3298  0.1219
11188TIP3    H254980   5.357   2.527  16.626  0.0786  1.9801 -0.3295
11189TIP3   OH254981   2.244   2.740  11.102  0.0211  0.5552 -0.0666
11189TIP3    H154982   2.324   2.774  11.142 -1.7082  1.4558  2.8092
11189TIP3    H254983   2.190   2.818  11.088 -0.2187  0.0083 -2.3615
11190TIP3   OH254984   6.486   6.764   6.220 -0.8386 -0.0987 -0.0258
11190TIP3    H154985   6.459   6.821   6.293 -0.4013 -0.8291  0.7155
11190TIP3    H254986   6.582   6.765   6.224 -0.8420 -1.9586  0.8434
11191TIP3   OH254987   1.364   0.534   4.094 -0.4998  0.2994  0.4487
11191TIP3    H154988   1.321   0.498   4.016  0.3422 -1.2425  0.6607
11191TIP3    H254989   1.293   0.550   4.155 -0.9144 -1.0237  0.3308
11192TIP3   OH254990   1.274   1.268   4.961 -0.3412 -0.0366  0.2588
11192TIP3    H154991   1.301   1.301   5.047 -1.1447  0.2619  0.4060
11192TIP3    H254992   1.305   1.335   4.899  2.1056 -1.2915  0.0979
11193TIP3   OH254993   4.622   6.740  13.139 -0.4230 -0.4136 -0.6856
11193TIP3    H154994   4.610   6.829  13.107  0.2903  0.4198  1.2491
11193TIP3    H254995   4.717   6.731  13.152 -0.3499 -1.9095 -2.0868
11194TIP3   OH254996   3.675   4.094   0.398 -0.4268 -0.3226  0.7751
11194TIP3    H154997   3.605   4.081   0.462 -0.5637 -0.5783  0.5715
11194TIP3    H254998   3.637   4.067   0.315  0.4405 -1.9988  0.9175
11195TIP3   OH254999   6.726   6.760  13.980  0.3759 -0.1113 -0.0988
11195TIP3    H155000   6.802   6.782  13.925  0.0336  0.0560 -0.5089
11195TIP3    H255001   6.651   6.771  13.922 -0.1732  2.1359  1.0112
11196TIP3   OH255002   5.821   4.367  13.504 -0.4894 -0.1417 -0.3576
11196TIP3    H155003   5.817   4.272  13.490  1.3114 -0.3061  0.0899
11196TIP3    H255004   5.833   4.403  13.416 -0.8583 -0.3466 -0.4933
11197TIP3   OH255005   6.471   5.934  15.817 -0.5373  0.0885 -0.3582
11197TIP3    H155006   6.461   5.847  15.777 -0.7475  0.1705 -0.4852
11197TIP3    H255007   6.429   5.994  15.755  0.7044  0.4384 -0.8752
11198TIP3   OH255008   5.644   2.097   3.975 -0.2873  0.1204  0.0888
11198TIP3    H155009   5.630   2.030   3.908  0.4483 -1.3931  1.4140
11198TIP3    H255010   5.564   2.151   3.971 -1.7911 -2.0195  0.3273
11199TIP3   OH255011   0.142   3.016   4.204  0.0300  0.2962 -0.1450
11199TIP3    H155012   0.163   3.106   4.180  0.7541 -0.6179 -3.0938
11199TIP3    H255013   0.066   2.994   4.150  0.6399 -1.2660 -0.3908
11200TIP3   OH255014   6.329   0.727   0.704 -0.2863 -0.2246 -0.3900
11200TIP3    H155015   6.373   0.651   0.744  1.5763  0.6274 -0.7518
11200TIP3    H255016   6.335   0.795   0.771  1.3674  0.7061 -1.4636
11201TIP3   OH255017   4.913   2.074   0.888  0.5127  0.1320 -0.0846
11201TIP3    H155018   4.937   2.162   0.915 -0.6367 -0.1136  1.8083
11201TIP3    H255019   4.949   2.017   0.956 -1.6247 -0.5700  0.5061
11202TIP3   OH255020   2.754   3.669   0.270 -0.1991  0.1256 -0.2121
11202TIP3    H155021   2.783   3.682   0.179  0.4926 -0.1748 -0.0320
11202TIP3    H255022   2.827   3.626   0.313 -0.7651 -0.2881  0.3427
11203TIP3   OH255023   3.557   0.644  11.425  0.4146 -0.0661 -0.1017
11203TIP3    H155024   3.536   0.735  11.405  0.3866 -0.2897 -1.0808
11203TIP3    H255025   3.651   0.645  11.444  0.0542  0.4879  1.7722
11204TIP3   OH255026   3.527   1.013  10.681 -0.3440 -0.7117  0.2220
11204TIP3    H155027   3.537   0.964  10.763 -2.9633  0.7267  1.4583
11204TIP3    H255028   3.536   1.105  10.706 -1.6998 -0.2253 -1.0210
11205TIP3   OH255029   6.434   5.323  13.982  0.5696  0.2651  0.7348
11205TIP3    H155030   6.420   5.387  13.913  2.2549  0.9269  0.9799
11205TIP3    H255031   6.426   5.238  13.938 -0.7866  0.6328  0.2358
11206TIP3   OH255032   2.422   5.129   1.302 -0.1458 -0.1476  0.0400
11206TIP3    H155033   2.408   5.066   1.231 -0.3233  2.8475 -2.6907
11206TIP3    H255034   2.517   5.142   1.303 -0.2619  0.6909 -0.3983
11207TIP3   OH255035   3.150   1.878  17.100  0.2468  0.0693 -0.1783
11207TIP3    H155036   3.148   1.789  17.064 -0.4001  0.3352 -0.8151
11207TIP3    H255037   3.220   1.922  17.051  1.7546 -0.5808  1.3416
11208TIP3   OH255038   6.620   2.815  15.473 -0.0199 -0.7800  0.7534
11208TIP3    H155039   6.701   2.800  15.523  0.3082 -0.3654  0.3461
11208TIP3    H255040   6.601   2.731  15.433  1.3683 -0.3588 -0.8588
11209TIP3   OH255041   1.649   1.446  12.442  1.1846 -0.5050 -0.1611
11209TIP3    H155042   1.724   1.504  12.457  0.6784  0.2458 -0.5296
11209TIP3    H255043   1.666   1.406  12.357  0.1535  1.2520 -1.2252
11210TIP3   OH255044   3.308   2.233  13.877  0.3248 -0.2528 -0.2316
11210TIP3    H155045   3.360   2.226  13.797  0.3159  1.4512 -0.3903
11210TIP3    H255046   3.218   2.220  13.849  0.5287 -2.1771 -0.1038
11211TIP3   OH255047   4.675   1.381  12.412 -0.4988  0.4561  0.1494
11211TIP3    H155048   4.584   1.356  12.429 -0.8329 -0.0222 -2.2112
11211TIP3    H255049   4.682   1.469  12.447 -2.1385  0.8405 -0.4369
11212TIP3   OH255050   4.651   6.441  15.403  0.0770  0.7278 -0.4923
11212TIP3    H155051   4.608   6.452  15.318 -0.9359 -1.3105 -0.2688
11212TIP3    H255052   4.665   6.531  15.434 -0.6737  1.4760 -2.2407
11213TIP3   OH255053   5.689   3.228  13.937  0.1580 -0.0635 -0.0977
11213TIP3    H155054   5.701   3.256  13.847  0.0970  0.4496  0.0540
11213TIP3    H255055   5.756   3.161  13.951  0.9477  0.7160 -0.1503
11214TIP3   OH255056   3.437   1.551   0.319 -0.1295 -0.0219  0.4985
11214TIP3    H155057   3.512   1.580   0.370  0.1005  0.8813 -0.3191
11214TIP3    H255058   3.471   1.537   0.231 -0.7432 -0.4460  0.3211
11215TIP3   OH255059   2.753   4.330  16.164 -0.3118 -0.1782 -0.0962
11215TIP3    H155060   2.672   4.297  16.125  0.5368  0.2080 -2.2782
11215TIP3    H255061   2.724   4.393  16.230 -1.7900  0.0903 -0.9798
11216TIP3   OH255062   2.645   5.319   3.033  1.2356  0.1182 -0.7782
11216TIP3    H155063   2.683   5.359   2.955 -0.5552  1.4440 -1.0022
11216TIP3    H255064   2.628   5.392   3.093  0.7878 -0.6618  0.0679
11217TIP3   OH255065   5.270   0.558  14.299 -0.0606  0.5214 -0.1935
11217TIP3    H155066   5.182   0.564  14.336 -0.3878  0.3690 -0.9402
11217TIP3    H255067   5.305   0.477  14.335 -0.7058 -0.0802 -0.9112
11218TIP3   OH255068   1.384   0.149   2.452 -0.1640 -0.5844 -0.1838
11218TIP3    H155069   1.474   0.168   2.479 -1.0665  2.6961  0.7877
11218TIP3    H255070   1.378   0.186   2.364 -0.5089 -0.9264 -0.3013
11219TIP3   OH255071   2.093   6.450   5.573  0.3835 -0.0706 -0.3509
11219TIP3    H155072   2.137   6.530   5.547 -0.0848  0.1371 -0.4999
11219TIP3    H255073   2.078   6.403   5.491  1.3822 -0.6945 -0.1965
11220TIP3   OH255074   5.336   0.620  11.982 -0.5314 -0.8542 -0.3435
11220TIP3    H155075   5.252   0.668  11.981  0.4463  0.9007 -1.8432
11220TIP3    H255076   5.339   0.575  11.898  0.0024 -0.9301 -0.2849
11221TIP3   OH255077   4.534   2.281  13.939 -0.3883  0.0318  0.3146
11221TIP3    H155078   4.489   2.255  14.019 -1.0234 -0.6608 -0.2649
11221TIP3    H255079   4.546   2.376  13.948 -0.4859 -0.0380  1.2053
11222TIP3   OH255080   1.041   5.823  11.065  0.1260  0.8691 -0.1381
11222TIP3    H155081   1.094   5.760  11.016  0.4802 -0.1668  1.5368
11222TIP3    H255082   0.978   5.769  11.113 -1.1814  1.9670 -0.5823
11223TIP3   OH255083   0.045   5.835  12.461  0.1163  0.4455  0.0682
11223TIP3    H155084   0.010   5.888  12.534 -0.8212 -0.3068  0.1677
11223TIP3    H255085   0.102   5.772  12.504 -0.8728 -0.3615  0.2210
11224TIP3   OH255086   3.896   0.542   4.376  0.1251  0.5311  0.3016
11224TIP3    H155087   3.895   0.489   4.297 -0.0800 -1.4606  1.6143
11224TIP3    H255088   3.942   0.622   4.350 -1.3291  0.6101 -2.2436
11225TIP3   OH255089   2.584   4.553  10.749 -0.0465 -0.5123 -0.7690
11225TIP3    H155090   2.503   4.509  10.774 -1.3297  1.4100 -1.4394
11225TIP3    H255091   2.623   4.497  10.682 -0.8073 -1.4551 -0.4310
11226TIP3   OH255092   3.721   0.042  13.317 -0.7544 -0.1281  0.2590
11226TIP3    H155093   3.817   0.045  13.318 -0.7938  1.5235  2.0273
11226TIP3    H255094   3.694   0.130  13.344 -2.7514 -1.1987  1.9108
11227TIP3   OH255095   0.367   5.930  13.145  0.5309 -0.1054 -0.5589
11227TIP3    H155096   0.384   6.019  13.175  1.7756 -1.0486  1.6079
11227TIP3    H255097   0.278   5.911  13.174  0.3952  0.2865 -0.7117
11228TIP3   OH255098   5.330   6.737   2.427 -0.2998 -0.4284  0.0132
11228TIP3    H155099   5.350   6.714   2.336 -0.4721  0.7072 -0.3238
11228TIP3    H255100   5.295   6.826   2.422  0.6325  0.0236  1.3019
11229TIP3   OH255101   4.134   5.362  16.346  0.2696  0.4740 -0.0092
11229TIP3    H155102   4.179   5.389  16.426 -0.6794  0.2455  0.6072
11229TIP3    H255103   4.042   5.380  16.363 -0.0368 -0.3700 -0.7366
11230TIP3   OH255104   4.670   2.102   5.356 -0.3098 -0.1933  0.3050
11230TIP3    H155105   4.630   2.161   5.293 -0.0086 -0.3148 -0.0014
11230TIP3    H255106   4.611   2.026   5.358  0.0497 -0.4960 -0.3565
11231TIP3   OH255107   0.580   6.593  14.707 -0.6846  0.0293  0.3605
11231TIP3    H155108   0.644   6.533  14.669  0.0659  0.2958  1.1856
11231TIP3    H255109   0.595   6.676  14.661  0.4747  0.4545  1.4435
11232TIP3   OH255110   4.670   0.804  16.331 -0.3391 -0.0064  0.4597
11232TIP3    H155111   4.676   0.758  16.247 -0.0013 -0.5966  0.8075
11232TIP3    H255112   4.670   0.897  16.307 -2.3205 -0.1877 -0.3313
11233TIP3   OH255113   2.747   5.712  13.822 -0.3974  0.1542 -0.0258
11233TIP3    H155114   2.727   5.680  13.910 -1.1487  1.5867  0.3348
11233TIP3    H255115   2.714   5.644  13.764  0.4493 -0.9872  0.8059
11234TIP3   OH255116   5.069   4.427  15.734  0.5886 -0.1663  0.6865
11234TIP3    H155117   5.093   4.335  15.723 -0.4893 -0.4860  0.9228
11234TIP3    H255118   4.988   4.436  15.684  1.7751  1.1623 -1.0476
11235TIP3   OH255119   2.710   1.734  10.840  0.2972 -0.0147  0.4907
11235TIP3    H155120   2.635   1.711  10.786  0.3287 -0.1252  0.4942
11235TIP3    H255121   2.708   1.830  10.844  1.0590  0.0586 -0.7975
11236TIP3   OH255122   4.802   5.408  12.670 -0.0591  0.5854  0.2506
11236TIP3    H155123   4.834   5.443  12.586 -1.3727  0.4214 -0.3347
11236TIP3    H255124   4.723   5.460  12.688 -1.0441 -0.8999  0.2512
11237TIP3   OH255125   2.625   6.156   1.566 -0.5216  0.4084 -0.4744
11237TIP3    H155126   2.670   6.240   1.578 -2.0663  1.4185 -1.5700
11237TIP3    H255127   2.542   6.167   1.613 -1.0568 -0.2361 -1.2620
11238TIP3   OH255128   2.101   2.072   2.663 -0.2508 -0.3556  0.9055
11238TIP3    H155129   2.193   2.087   2.681  0.3468  0.2816 -2.2941
11238TIP3    H255130   2.082   2.128   2.587 -2.4676 -2.8228 -0.4439
11239TIP3   OH255131   0.987   5.464  12.590  0.6714 -0.3152 -0.0607
11239TIP3    H155132   1.056   5.399  12.608  1.0591 -0.2551 -1.3159
11239TIP3    H255133   0.907   5.422  12.620  0.9676 -1.2385 -0.5472
11240TIP3   OH255134   3.217   4.870  14.920 -0.4509  0.0105  1.0508
11240TIP3    H155135   3.174   4.790  14.888  1.1610 -0.4807  0.0432
11240TIP3    H255136   3.297   4.876  14.868 -0.4460  2.1779  1.2656
11241TIP3   OH255137   5.738   0.861   1.322  0.2078  0.1920  0.2237
11241TIP3    H155138   5.755   0.792   1.257  0.6722 -1.4068  1.9968
11241TIP3    H255139   5.825   0.885   1.354 -0.0173  1.0110  0.2283
11242TIP3   OH255140   4.432   3.232   1.026 -0.0871 -0.3812 -0.0933
11242TIP3    H155141   4.492   3.183   0.970  0.4398  0.6920 -0.4843
11242TIP3    H255142   4.444   3.195   1.113  2.5334  1.0563  0.2024
11243TIP3   OH255143   2.334   3.260  16.047 -0.7926  0.0933  0.1020
11243TIP3    H155144   2.398   3.190  16.057  0.2042  1.1571  1.3356
11243TIP3    H255145   2.281   3.234  15.971  1.8977 -0.1871 -1.7476
11244TIP3   OH255146   0.684   6.356   4.955  0.3268  0.6001  0.1228
11244TIP3    H155147   0.727   6.351   5.040  1.5331 -0.6576 -0.5253
11244TIP3    H255148   0.742   6.306   4.897 -0.4877  1.4110 -1.4202
11245TIP3   OH255149   5.218   4.674  16.786 -0.1327  0.1594  0.0381
11245TIP3    H155150   5.251   4.584  16.785  1.0011  0.5571  0.7318
11245TIP3    H255151   5.273   4.720  16.722  0.0097  0.6022  0.4768
11246TIP3   OH255152   3.893   1.318   2.624  0.2105  0.3872  0.0974
11246TIP3    H155153   3.906   1.258   2.551 -0.3926  1.0442 -0.5632
11246TIP3    H255154   3.946   1.282   2.695 -0.3215 -1.0420 -0.2157
11247TIP3   OH255155   5.925   3.339  13.216 -0.2525  0.4714  0.6367
11247TIP3    H155156   5.919   3.257  13.168  0.1495  0.9589 -0.2467
11247TIP3    H255157   6.011   3.374  13.194 -0.0148  0.6469  1.7998
11248TIP3   OH255158   6.400   5.672  10.698 -0.2492  0.3540 -0.1017
11248TIP3    H155159   6.437   5.760  10.701  0.3101  0.2462 -2.9330
11248TIP3    H255160   6.477   5.614  10.706 -0.1211  0.1391 -2.5864
11249TIP3   OH255161   2.436   5.992  12.400  0.0056 -0.3234  0.6147
11249TIP3    H155162   2.486   5.958  12.325 -0.5683 -0.2944  0.2162
11249TIP3    H255163   2.363   6.039  12.360  0.1387  0.3786  1.1814
11250TIP3   OH255164   1.536   5.265   1.553 -0.1291  0.1129  0.6073
11250TIP3    H155165   1.541   5.330   1.483  0.5121  0.3536  0.8738
11250TIP3    H255166   1.516   5.182   1.508  1.4460  0.0483  0.0106
11251TIP3   OH255167   2.184   1.408   4.291  0.3939 -0.3450  0.6158
11251TIP3    H155168   2.264   1.383   4.243  1.5108 -0.7395  2.6416
11251TIP3    H255169   2.213   1.477   4.350 -0.7187 -0.6883  1.5652
11252TIP3   OH255170   5.090   5.228  15.192 -0.3349 -0.0132  0.3370
11252TIP3    H155171   5.077   5.134  15.202 -0.1325 -0.3053 -1.8932
11252TIP3    H255172   5.002   5.265  15.200 -0.6909 -0.6018 -0.7158
11253TIP3   OH255173   1.867   3.217  10.846 -0.4008 -0.9449 -0.2173
11253TIP3    H155174   1.853   3.311  10.852 -0.0113 -0.8924 -0.0920
11253TIP3    H255175   1.872   3.187  10.937 -0.5772 -1.0923 -0.2561
11254TIP3   OH255176   1.960   1.164  16.286 -0.7048  0.1818 -0.2153
11254TIP3    H155177   2.035   1.222  16.276 -0.5671  0.0224 -0.1253
11254TIP3    H255178   1.953   1.118  16.203 -0.9954  0.5427 -0.3887
11255TIP3   OH255179   6.049   1.532   1.849  0.4277 -0.5445  0.0570
11255TIP3    H155180   6.089   1.460   1.898  0.5641 -1.2319 -1.0480
11255TIP3    H255181   5.962   1.500   1.826 -0.7124  0.8249  2.1784
11256TIP3   OH255182   2.722   3.018   1.628  0.1280 -0.0524  0.2845
11256TIP3    H155183   2.669   3.096   1.615 -0.1507 -0.2052  0.5043
11256TIP3    H255184   2.787   3.044   1.694 -1.0808 -0.5425  1.6794
11257TIP3   OH255185   6.562   4.978   6.303 -0.5760 -0.0677 -0.1233
11257TIP3    H155186   6.613   5.022   6.235 -1.3936  0.0589 -0.6611
11257TIP3    H255187   6.607   4.895   6.317 -0.6374 -0.2735 -1.1108
11258TIP3   OH255188   1.668   2.404  11.594  0.1223  0.2105  0.6448
11258TIP3    H155189   1.703   2.486  11.560 -1.4169  0.7141  0.2389
11258TIP3    H255190   1.710   2.336  11.542 -0.7124  0.8815 -0.9097
11259TIP3   OH255191   2.002   2.020   1.776 -0.2342  0.1416 -0.2795
11259TIP3    H155192   2.051   1.940   1.794  0.4313  0.6968  0.4404
11259TIP3    H255193   1.963   2.044   1.859 -1.3527 -0.0405 -0.7496
11260TIP3   OH255194   5.856   1.922  16.615  0.2409  0.0292  0.2489
11260TIP3    H155195   5.853   2.018  16.618 -0.7075  0.0319 -0.5722
11260TIP3    H255196   5.868   1.896  16.707 -0.6236  0.9016  0.6233
11261TIP3   OH255197   3.397   2.823   0.516 -1.2280 -0.2616  0.4193
11261TIP3    H155198   3.394   2.727   0.514 -0.8500 -0.2912  1.1842
11261TIP3    H255199   3.316   2.850   0.472 -1.5098 -0.9340  0.5218
11262TIP3   OH255200   4.512   0.594  13.692  0.3476  0.1105  0.3566
11262TIP3    H155201   4.430   0.571  13.648  1.2778 -0.9089 -0.8714
11262TIP3    H255202   4.575   0.606  13.621  2.1911 -2.8771  1.4029
11263TIP3   OH255203   0.541   5.687  11.905 -0.2902 -0.5519 -0.1076
11263TIP3    H155204   0.530   5.670  11.998  0.3552  1.6099  0.3784
11263TIP3    H255205   0.510   5.777  11.893  2.6534  0.3308 -1.3842
11264TIP3   OH255206   6.280   4.060  11.934  0.1679  0.1105  0.2024
11264TIP3    H155207   6.297   4.023  12.020 -1.1093 -2.7186 -0.7238
11264TIP3    H255208   6.355   4.033  11.881 -0.9885 -1.5563 -0.5970
11265TIP3   OH255209   6.580   2.827   1.633 -0.1838 -0.0733  0.0427
11265TIP3    H155210   6.588   2.750   1.689  2.3512  1.6158  2.1473
11265TIP3    H255211   6.529   2.889   1.685  0.7782  0.9016 -0.1511
11266TIP3   OH255212   0.552   5.129   1.778  0.1039  0.0843  0.1795
11266TIP3    H155213   0.522   5.084   1.699  2.9222 -1.1108 -0.2755
11266TIP3    H255214   0.521   5.074   1.850 -2.0483  0.9126 -0.0804
11267TIP3   OH255215   5.368   3.185  16.038 -0.1927 -0.3768 -0.1720
11267TIP3    H155216   5.321   3.216  16.115  1.2861  0.2953  0.4965
11267TIP3    H255217   5.454   3.160  16.072  1.0550  1.5009 -1.8359
11268TIP3   OH255218   2.804   0.650   2.023 -0.1249  0.1152 -0.0073
11268TIP3    H155219   2.804   0.557   2.001  0.5043  0.3411 -0.9948
11268TIP3    H255220   2.895   0.671   2.041 -0.3703  0.3760  0.9534
11269TIP3   OH255221   0.860   5.881   0.483 -0.4118 -0.0349  0.0599
11269TIP3    H155222   0.950   5.911   0.470 -0.9171  0.6952 -1.9408
11269TIP3    H255223   0.869   5.793   0.520  1.1455 -1.0456 -2.6125
11270TIP3   OH255224   1.238   3.915  16.413  0.5465  0.0664 -0.0496
11270TIP3    H155225   1.156   3.867  16.416  1.1130 -1.2062 -3.1216
11270TIP3    H255226   1.297   3.866  16.470  0.2401 -1.1276 -0.7630
11271TIP3   OH255227   0.830   5.088  16.805 -0.3362 -0.1137 -0.1724
11271TIP3    H155228   0.753   5.116  16.754 -2.7329 -1.7715  2.3956
11271TIP3    H255229   0.825   5.140  16.886  1.4117 -0.0835 -0.0686
11272TIP3   OH255230   5.770   0.232  13.666 -0.3837 -0.4413  0.2342
11272TIP3    H155231   5.858   0.222  13.702  1.0837  0.5381 -2.9452
11272TIP3    H255232   5.728   0.294  13.725  0.7849 -1.4715  2.2122
11273TIP3   OH255233   5.896   6.055   4.173 -0.1959 -0.0156  0.2530
11273TIP3    H155234   5.906   6.143   4.211  0.4553 -0.6914  1.6831
11273TIP3    H255235   5.946   6.059   4.092  0.3830  0.7587  0.6331
11274TIP3   OH255236   2.422   1.666   0.778 -0.4164  0.1056 -0.4208
11274TIP3    H155237   2.402   1.584   0.732 -2.6239  0.5632 -0.3640
11274TIP3    H255238   2.339   1.713   0.778  1.1640  3.0189 -1.7678
11275TIP3   OH255239   4.744   6.467   1.209  0.1392  0.3102 -0.2728
11275TIP3    H155240   4.780   6.520   1.280  0.2333  1.5440 -1.2331
11275TIP3    H255241   4.650   6.485   1.210  0.1607  0.4526 -0.5516
11276TIP3   OH255242   4.286   0.143   2.301  0.4267 -0.1327 -0.5653
11276TIP3    H155243   4.252   0.098   2.223  0.8732  0.8229 -1.3141
11276TIP3    H255244   4.213   0.196   2.332  0.5229  0.1590 -0.8396
11277TIP3   OH255245   5.707   2.766   2.967 -0.7641  0.4124 -0.0152
11277TIP3    H155246   5.696   2.856   2.999  2.1115  1.0153 -0.6115
11277TIP3    H255247   5.743   2.719   3.042 -0.4230  0.2290 -0.2953
11278TIP3   OH255248   5.466   3.667   2.499 -0.0916  0.0906  0.3883
11278TIP3    H155249   5.551   3.660   2.541  1.1029  6.0552 -0.6128
11278TIP3    H255250   5.479   3.629   2.412  0.9253 -1.0208  1.0206
11279TIP3   OH255251   0.705   2.661   0.143  0.4536  0.4845  0.2373
11279TIP3    H155252   0.629   2.714   0.167  0.6804  0.8086  0.2419
11279TIP3    H255253   0.684   2.573   0.174 -1.1505 -0.0715 -2.2658
11280TIP3   OH255254   0.087   3.120   1.579 -0.2739  0.3801 -0.6253
11280TIP3    H155255   0.174   3.147   1.608 -0.6580  0.4033  0.5266
11280TIP3    H255256   0.032   3.197   1.596 -0.8441 -0.2015  0.2027
11281TIP3   OH255257   5.513   6.681   5.211 -0.1304 -0.0327  0.2912
11281TIP3    H155258   5.468   6.723   5.284  3.6351  2.2967  1.4180
11281TIP3    H255259   5.501   6.741   5.137  0.7639  0.4347  0.5118
11282TIP3   OH255260   0.463   0.798  12.093 -0.3957 -0.2575 -0.0517
11282TIP3    H155261   0.505   0.792  12.179 -0.8864 -0.0738  0.2002
11282TIP3    H255262   0.536   0.792  12.030 -0.0997 -1.0416  0.3591
11283TIP3   OH255263   3.481   2.099  15.150 -0.8173  0.3456 -0.1585
11283TIP3    H155264   3.451   2.071  15.064  0.1459 -0.2269 -0.3125
11283TIP3    H255265   3.512   2.189  15.136  2.0076 -0.7193 -1.0545
11284TIP3   OH255266   0.650   3.100  12.268  0.1284  0.1162 -0.1870
11284TIP3    H155267   0.562   3.120  12.300  0.1410  0.6689 -0.4887
11284TIP3    H255268   0.709   3.130  12.337  0.1817  1.7731 -0.9116
11285TIP3   OH255269   2.559   2.166  12.792  0.2273  0.5374 -0.1070
11285TIP3    H155270   2.596   2.219  12.721  0.4024  0.6255  0.0519
11285TIP3    H255271   2.633   2.115  12.825  0.1195  0.4073 -0.0650
11286TIP3   OH255272   5.769   3.315  15.319 -0.3091  0.1010 -0.5539
11286TIP3    H155273   5.757   3.361  15.402 -0.0698  2.2680 -1.6894
11286TIP3    H255274   5.780   3.223  15.344  1.6120  0.9518  1.9473
11287TIP3   OH255275   6.769   2.249   2.469 -0.2032  0.0303 -0.6123
11287TIP3    H155276   6.824   2.326   2.486 -0.1408 -0.2252  0.3755
11287TIP3    H255277   6.695   2.283   2.418 -1.4147  1.2054  1.8640
11288TIP3   OH255278   6.215   2.859   3.656  0.4464  0.2777 -0.0435
11288TIP3    H155279   6.138   2.876   3.602  0.6388 -0.1617 -0.4561
11288TIP3    H255280   6.190   2.890   3.744  0.5428  2.0493 -0.6259
11289TIP3   OH255281   4.147   2.053   1.065  0.3098 -0.1509  0.3625
11289TIP3    H155282   4.235   2.026   1.038  0.9511 -0.1987  2.4604
11289TIP3    H255283   4.135   2.013   1.151 -0.9300  1.5883  1.0255
11290TIP3   OH255284   2.759   4.041  16.214 -0.6293 -0.0668  0.2961
11290TIP3    H155285   2.718   4.024  16.298 -0.2751  1.4969  0.7963
11290TIP3    H255286   2.778   4.135  16.215 -2.2024  0.3393 -2.2152
11291TIP3   OH255287   5.136   5.780   3.668  0.3781  0.0214  0.4539
11291TIP3    H155288   5.053   5.742   3.640  0.3883  0.5762 -0.3333
11291TIP3    H255289   5.169   5.718   3.733 -0.8286 -0.0087  1.0529
11292TIP3   OH255290   6.412   2.536  13.817 -0.2701  0.6087  0.0663
11292TIP3    H155291   6.407   2.575  13.905  0.0167 -0.2391  0.4635
11292TIP3    H255292   6.379   2.604  13.759 -1.1355  0.9261  0.9152
11293TIP3   OH255293   1.681   2.585   1.827 -0.4256  0.7872 -0.2829
11293TIP3    H155294   1.660   2.550   1.741  0.9601  2.0331 -1.1511
11293TIP3    H255295   1.766   2.547   1.848 -1.1877 -0.2643  0.9733
11294TIP3   OH255296   2.128   1.439   2.063 -0.8316  0.0181  0.0105
11294TIP3    H155297   2.185   1.504   2.102 -1.5528 -0.6739  2.3237
11294TIP3    H255298   2.183   1.392   2.001  0.6389  0.4929  0.9478
11295TIP3   OH255299   2.404   2.526  14.293 -0.8019  0.1800  0.5707
11295TIP3    H155300   2.499   2.520  14.291 -0.8531 -0.4367 -0.2684
11295TIP3    H255301   2.377   2.469  14.364 -0.4778  1.4137  1.7143
11296TIP3   OH255302   5.293   5.140   4.396 -0.6767  0.0093 -0.6130
11296TIP3    H155303   5.318   5.228   4.367 -1.3167  0.4952  0.2690
11296TIP3    H255304   5.306   5.085   4.320 -0.0874  0.8419 -1.1255
11297TIP3   OH255305   2.330   3.313  12.113 -0.0421 -0.2293 -0.0426
11297TIP3    H155306   2.361   3.309  12.023 -0.0984 -1.0785 -0.0244
11297TIP3    H255307   2.381   3.248  12.160  0.2115  0.4305  0.6164
11298TIP3   OH255308   3.887   6.370  11.145  0.2738 -0.2859  0.9941
11298TIP3    H155309   3.944   6.409  11.211 -0.2515  2.9680 -0.4138
11298TIP3    H255310   3.799   6.374  11.182 -0.0825  1.9477 -0.0387
11299TIP3   OH255311   2.264   2.158   0.097 -0.2052 -0.7361  0.3630
11299TIP3    H155312   2.332   2.167   0.164  0.2062 -0.4197 -0.0937
11299TIP3    H255313   2.313   2.149   0.015 -0.7089 -1.0520  0.0948
11300TIP3   OH255314   5.733   1.076  11.595  0.0117  0.5078  0.2573
11300TIP3    H155315   5.700   0.998  11.550  1.0566  0.1385  0.1007
11300TIP3    H255316   5.741   1.142  11.526  0.6491  0.2534  0.0823
11301TIP3   OH255317   2.503   2.540   2.687 -0.0890 -0.2974  0.0840
11301TIP3    H155318   2.470   2.599   2.618 -1.7044 -1.2533  0.0128
11301TIP3    H255319   2.462   2.572   2.767 -0.2617 -0.7612  0.1831
11302TIP3   OH255320   4.085   0.246  15.577  0.1497  0.1490 -0.5623
11302TIP3    H155321   4.047   0.243  15.664  2.1959 -1.0992  0.3301
11302TIP3    H255322   4.131   0.329  15.573  1.0820 -0.3259  0.0237
11303TIP3   OH255323   4.355   4.281   5.184 -0.7950 -0.0578 -0.1902
11303TIP3    H155324   4.314   4.334   5.115  0.2299 -0.8631 -1.4382
11303TIP3    H255325   4.346   4.191   5.152 -0.1273 -0.4174  0.6453
11304TIP3   OH255326   5.547   2.033  12.642  0.4639  0.2469 -0.0254
11304TIP3    H155327   5.484   2.074  12.583  0.2011  0.5814  0.4852
11304TIP3    H255328   5.494   1.995  12.711  0.8358  0.7425  0.5394
11305TIP3   OH255329   2.513   6.315  15.714 -0.2027  0.2125  0.8114
11305TIP3    H155330   2.568   6.260  15.659 -0.1732  0.6501  0.3952
11305TIP3    H255331   2.445   6.347  15.655 -0.0624  0.8393  0.9844
11306TIP3   OH255332   6.708   0.607  13.999  0.4038 -0.3370  1.0922
11306TIP3    H155333   6.789   0.653  13.978  0.3925 -0.3349  1.0517
11306TIP3    H255334   6.672   0.655  14.074  0.5205 -0.4361  1.2109
11307TIP3   OH255335   1.503   6.608  13.182  0.5150  0.3163 -0.2721
11307TIP3    H155336   1.575   6.548  13.162  1.1915  1.4773 -1.3705
11307TIP3    H255337   1.533   6.693  13.151 -1.5582  0.7081 -1.3155
11308TIP3   OH255338   1.543   2.717  14.496 -0.4414  0.0061  0.5882
11308TIP3    H155339   1.556   2.632  14.454 -2.5298  0.9941 -2.2459
11308TIP3    H255340   1.630   2.741  14.530  0.0597 -3.4358  1.8847
11309TIP3   OH255341   1.310   5.215   1.793 -0.2949  0.3975  0.6116
11309TIP3    H155342   1.312   5.278   1.720 -1.8083  0.4941  0.6354
11309TIP3    H255343   1.258   5.142   1.760  1.5055 -0.8899  0.5685
11310TIP3   OH255344   3.083   0.619  10.832 -0.2987  0.5003 -0.2047
11310TIP3    H155345   3.161   0.616  10.777 -0.2336 -0.8925 -0.0579
11310TIP3    H255346   3.009   0.620  10.770 -0.2046  0.1088 -0.3188
11311TIP3   OH255347   6.203   0.118   4.261  0.2993  0.4381 -0.1245
11311TIP3    H155348   6.156   0.036   4.275 -2.5730  1.6453 -2.2022
11311TIP3    H255349   6.236   0.112   4.172  0.5588  1.3016 -0.0892
11312TIP3   OH255350   5.464   4.364  13.932 -0.5002  0.5660 -0.1259
11312TIP3    H155351   5.496   4.274  13.931 -1.5348  0.1567  1.6733
11312TIP3    H255352   5.416   4.373  13.849  1.8104  0.3235 -1.5445
11313TIP3   OH255353   6.727   3.614  14.064 -0.0826 -0.4144  0.7979
11313TIP3    H155354   6.814   3.627  14.102  0.9096 -3.8688 -0.0900
11313TIP3    H255355   6.666   3.639  14.133  1.6339 -0.4467  2.3549
11314TIP3   OH255356   2.990   5.301  16.175 -0.1031 -0.1964  0.3325
11314TIP3    H155357   3.068   5.264  16.217 -1.1739 -2.1400  0.6477
11314TIP3    H255358   2.927   5.229  16.173 -1.8483  1.3050 -0.0711
11315TIP3   OH255359   0.657   4.632  12.914  0.0063  0.0324  0.3163
11315TIP3    H155360   0.651   4.636  13.010  0.6771 -1.1616  0.4228
11315TIP3    H255361   0.728   4.569  12.898 -0.4002 -0.0965 -0.9700
11316TIP3   OH255362   5.705   3.757   6.244  0.2302  1.1532  0.8815
11316TIP3    H155363   5.717   3.667   6.215 -2.2008  0.8610  0.6839
11316TIP3    H255364   5.713   3.752   6.340 -1.5161  0.4230  1.0092
11317TIP3   OH255365   2.579   6.590  10.733  0.6391 -0.1012 -0.1246
11317TIP3    H155366   2.628   6.591  10.816 -0.0416  1.5844  0.2616
11317TIP3    H255367   2.615   6.515  10.686 -0.4143 -2.3890  2.5537
11318TIP3   OH255368   3.161   4.525   1.928 -0.1879 -0.5261  0.5542
11318TIP3    H155369   3.170   4.457   1.861  1.1155 -0.2007  0.3796
11318TIP3    H255370   3.249   4.533   1.965 -0.4064  0.8283  0.7994
11319TIP3   OH255371   0.776   1.361  12.522  0.1678 -0.0458 -0.7178
11319TIP3    H155372   0.747   1.330  12.608  0.4440 -0.8349 -0.9055
11319TIP3    H255373   0.858   1.314  12.505  0.3252  0.4069 -1.2289
11320TIP3   OH255374   2.596   1.359  10.508 -0.4537 -0.1572  0.4003
11320TIP3    H155375   2.594   1.264  10.515 -0.4391 -0.2346 -0.5491
11320TIP3    H255376   2.511   1.382  10.471 -0.1245  0.1250 -0.1841
11321TIP3   OH255377   6.048   0.488   1.891 -0.2167  0.7646  0.1505
11321TIP3    H155378   6.135   0.472   1.854 -0.2853  1.4791 -0.3210
11321TIP3    H255379   6.001   0.406   1.877  0.8634 -0.1820  1.7967
11322TIP3   OH255380   6.622   1.692   2.264 -0.2461  0.3841  0.1963
11322TIP3    H155381   6.627   1.642   2.183 -2.8533 -0.8590  0.7340
11322TIP3    H255382   6.634   1.783   2.237 -0.3418 -0.0841 -1.4763
11323TIP3   OH255383   6.508   6.397   3.403 -0.0851  0.5957 -0.5891
11323TIP3    H155384   6.425   6.436   3.377  0.4018  1.5760 -0.7231
11323TIP3    H255385   6.552   6.376   3.320 -0.3473 -0.2520 -0.5171
11324TIP3   OH255386   1.708   0.249   2.226 -0.5625 -0.2831  0.0037
11324TIP3    H155387   1.762   0.327   2.238 -1.6782  0.5206 -0.0944
11324TIP3    H255388   1.717   0.201   2.308 -1.4228  0.9466  0.8387
11325TIP3   OH255389   4.616   4.686   2.072 -0.2197  0.3858 -0.0596
11325TIP3    H155390   4.629   4.591   2.063 -2.4140  0.0172  0.2334
11325TIP3    H255391   4.640   4.722   1.987 -1.9084 -0.7604 -1.0538
11326TIP3   OH255392   5.545   2.560  12.932 -0.3644  0.3984 -0.7991
11326TIP3    H155393   5.532   2.549  13.026 -1.4381  1.6913 -0.7844
11326TIP3    H255394   5.605   2.490  12.908  0.2975  0.3415  0.9366
11327TIP3   OH255395   4.394   1.478  15.603 -0.2310 -0.1023 -0.0002
11327TIP3    H155396   4.308   1.501  15.639  0.3183 -2.0506  2.7071
11327TIP3    H255397   4.393   1.383  15.598  1.0541 -0.0379 -1.8631
11328TIP3   OH255398   3.613   6.223   5.806  0.1061  0.2044  0.0580
11328TIP3    H155399   3.625   6.256   5.895  1.5742 -2.4190  0.8928
11328TIP3    H255400   3.531   6.174   5.809  1.1584 -1.5691  0.5264
11329TIP3   OH255401   2.715   2.767   5.683  0.1714  0.3498  0.3894
11329TIP3    H155402   2.713   2.777   5.778 -0.7817 -0.5394  0.4715
11329TIP3    H255403   2.799   2.723   5.666  0.5454  0.8956  0.7642
11330TIP3   OH255404   6.204   2.051   4.747  0.6987  0.1227 -0.1314
11330TIP3    H155405   6.127   2.076   4.695  0.3362 -1.2118 -0.2371
11330TIP3    H255406   6.167   2.011   4.826  1.2738  0.9309  0.5656
11331TIP3   OH255407   1.891   5.696  14.271  1.1300  0.0217 -0.2041
11331TIP3    H155408   1.858   5.607  14.258 -0.5663  0.7393 -1.0165
11331TIP3    H255409   1.951   5.689  14.346  1.5065 -1.9055 -0.6676
11332TIP3   OH255410   5.129   1.705  11.678  0.1681  0.6676 -0.5349
11332TIP3    H155411   5.072   1.737  11.609 -0.4868 -0.1575 -0.3910
11332TIP3    H255412   5.119   1.767  11.750 -2.7855 -0.9983  0.5751
11333TIP3   OH255413   2.391   2.967  16.141  0.0377 -0.5294  0.1078
11333TIP3    H155414   2.307   3.006  16.164 -0.0280 -0.6105  0.0082
11333TIP3    H255415   2.438   2.959  16.224 -0.5249 -1.6025  0.3394
11334TIP3   OH255416   3.199   5.387  14.315 -0.4881  0.1200  0.3646
11334TIP3    H155417   3.123   5.391  14.373 -1.1471  2.4234 -0.6060
11334TIP3    H255418   3.241   5.304  14.337 -4.5618 -2.3615 -0.7318
11335TIP3   OH255419   6.224   3.722  12.445  0.0746 -0.4087 -0.2621
11335TIP3    H155420   6.184   3.809  12.450  0.5220 -0.1632 -0.9244
11335TIP3    H255421   6.175   3.677  12.377  0.9071 -0.1102 -1.0708
11336TIP3   OH255422   5.199   3.821  14.551  0.0761  0.0508  0.0837
11336TIP3    H155423   5.182   3.731  14.521 -3.7046  0.2758  1.2807
11336TIP3    H255424   5.248   3.810  14.633  1.9891 -0.8064 -1.1427
11337TIP3   OH255425   0.307   0.017   1.468  0.1755  0.7266 -0.0081
11337TIP3    H155426   0.352   0.083   1.521  0.1889  0.7983 -0.1068
11337TIP3    H255427   0.317   0.048   1.378 -2.5659  2.3209  0.1671
11338TIP3   OH255428   3.041   6.704   2.012 -0.2748  0.4659 -0.0070
11338TIP3    H155429   2.946   6.716   2.012 -0.1826  1.2669  1.3294
11338TIP3    H255430   3.055   6.626   2.065 -0.1516  0.6002  0.1553
11339TIP3   OH255431   1.693   5.834   1.814  0.3651 -0.1027  0.9463
11339TIP3    H155432   1.707   5.823   1.720  0.8574 -1.7100  1.1851
11339TIP3    H255433   1.711   5.926   1.831  0.9872  0.0373 -0.4242
11340TIP3   OH255434   2.180   4.130   5.130  0.0925 -0.1211  0.4690
11340TIP3    H155435   2.157   4.074   5.204  0.4481  2.8488  2.8988
11340TIP3    H255436   2.273   4.113   5.115  0.6501  1.0447  2.3681
11341TIP3   OH255437   6.172   4.756   3.671 -0.3891  0.0511 -0.9521
11341TIP3    H155438   6.121   4.836   3.670 -0.9010 -0.2383  0.6687
11341TIP3    H255439   6.235   4.766   3.600 -0.1156  2.1025 -0.4367
11342TIP3   OH255440   4.413   2.549  13.425  0.2817 -0.4484  0.2932
11342TIP3    H155441   4.361   2.543  13.345 -0.1872  1.4630  0.4285
11342TIP3    H255442   4.487   2.491  13.410  0.0117 -0.3681 -1.4048
11343TIP3   OH255443   0.692   6.682  14.240 -0.3324 -0.2902 -0.1197
11343TIP3    H155444   0.754   6.614  14.214 -0.9488 -1.1199  0.5602
11343TIP3    H255445   0.668   6.725  14.158  1.1054  0.0086 -0.3924
11344TIP3   OH255446   6.611   6.141   3.129 -0.3602 -0.1351 -0.4278
11344TIP3    H155447   6.570   6.219   3.167 -1.9759 -1.3393  0.3949
11344TIP3    H255448   6.538   6.095   3.087  0.5628 -1.2646 -0.7932
11345TIP3   OH255449   6.324   1.553  12.869 -0.4742  0.1424  0.2475
11345TIP3    H155450   6.322   1.507  12.784 -0.7951 -1.7053  1.2215
11345TIP3    H255451   6.391   1.621  12.858 -0.0736 -0.4723 -1.2916
11346TIP3   OH255452   4.898   3.355   2.647  0.0418  0.1458  0.6407
11346TIP3    H155453   4.931   3.413   2.715 -1.2969  1.9696 -0.2258
11346TIP3    H255454   4.820   3.315   2.685  0.3236 -0.2484  0.8185
11347TIP3   OH255455   3.764   3.258   1.716 -0.2873 -0.3109 -0.5691
11347TIP3    H155456   3.810   3.273   1.799 -1.0207 -1.4922  0.0685
11347TIP3    H255457   3.824   3.291   1.649 -0.2132  1.8029  0.4942
11348TIP3   OH255458   0.413   1.557  11.049  0.0351  0.1755 -0.6287
11348TIP3    H155459   0.327   1.522  11.027  0.3059 -0.8273 -0.0841
11348TIP3    H255460   0.446   1.592  10.966  0.2884 -1.9702 -1.4747
11349TIP3   OH255461   3.576   3.981   5.814  0.4651  0.3149 -0.1506
11349TIP3    H155462   3.569   4.003   5.907 -0.4062  2.1865 -0.6481
11349TIP3    H255463   3.660   4.019   5.786  1.5004 -1.6186  0.2133
11350TIP3   OH255464   0.090   6.459   1.397  0.5143  0.6162 -0.2650
11350TIP3    H155465   0.007   6.413   1.407  0.6067  0.0730 -1.9228
11350TIP3    H255466   0.068   6.538   1.348  1.2055 -0.3183 -2.1361
11351TIP3   OH255467   3.083   2.739   1.187  0.6202  0.3672  0.1224
11351TIP3    H155468   3.156   2.720   1.246  0.1467 -0.4886  0.4498
11351TIP3    H255469   3.049   2.823   1.218  0.3446 -0.0975  1.1261
11352TIP3   OH255470   4.435   5.042  16.244  0.3200  0.2447 -0.2285
11352TIP3    H155471   4.461   5.127  16.279 -0.8379 -0.3161  2.0654
11352TIP3    H255472   4.344   5.055  16.215 -0.2763 -0.5050  1.2551
11353TIP3   OH255473   5.723   0.198  12.122  0.7343  0.9993  0.2323
11353TIP3    H155474   5.780   0.200  12.198  1.4338 -1.1470 -0.1965
11353TIP3    H255475   5.657   0.132  12.144  0.4741  0.9505 -0.6929
11354TIP3   OH255476   3.414   5.495  13.721  0.3060 -0.0541 -0.2855
11354TIP3    H155477   3.333   5.515  13.767  2.1008  2.5306  1.8894
11354TIP3    H255478   3.417   5.559  13.650  0.3885 -0.2425 -0.4518
11355TIP3   OH255479   2.340   3.364   1.065  0.0632 -0.2127  0.3608
11355TIP3    H155480   2.389   3.283   1.077  2.2112  0.9588 -0.1692
11355TIP3    H255481   2.322   3.396   1.154  1.6735  0.1407  0.5779
11356TIP3   OH255482   6.365   6.344   1.896  0.3250  0.4599 -0.8745
11356TIP3    H155483   6.270   6.352   1.904  0.0613 -1.2186 -1.9413
11356TIP3    H255484   6.380   6.326   1.803  1.5250 -1.0394 -0.4250
11357TIP3   OH255485   6.447   3.002   1.782  0.0734  0.0733  0.2628
11357TIP3    H155486   6.460   3.074   1.844  0.4594 -0.0402  0.3137
11357TIP3    H255487   6.367   3.025   1.735 -0.7056 -0.2492  1.3969
11358TIP3   OH255488   4.265   3.808  12.902 -0.3332 -0.2610  0.2052
11358TIP3    H155489   4.288   3.888  12.949  0.7861 -0.8518  0.6972
11358TIP3    H255490   4.315   3.739  12.947 -0.7514 -1.1239 -0.6398
11359TIP3   OH255491   6.489   0.235  13.012 -0.4530  0.2132 -0.3705
11359TIP3    H155492   6.579   0.210  13.033 -0.7406  0.6031  1.3494
11359TIP3    H255493   6.497   0.325  12.979 -0.4987  1.2005  2.2521
11360TIP3   OH255494   2.880   1.391  14.163 -0.2559 -0.2761  0.1811
11360TIP3    H155495   2.826   1.395  14.242 -1.1931 -0.6335 -0.4320
11360TIP3    H255496   2.964   1.427  14.190 -0.5420 -0.4665  1.3650
11361TIP3   OH255497   6.526   1.714   3.775  0.4023  0.4127 -0.1934
11361TIP3    H155498   6.472   1.677   3.845  1.2527  2.0126  1.3602
11361TIP3    H255499   6.609   1.666   3.780  0.2345  0.0791 -0.5529
11362TIP3   OH255500   3.320   6.335   1.780  0.6008  0.2400 -0.3422
11362TIP3    H155501   3.384   6.403   1.763  0.3566  0.6289  0.2540
11362TIP3    H255502   3.264   6.372   1.849 -0.4501  0.0376 -1.0761
11363TIP3   OH255503   3.578   2.932   1.902  0.7246 -0.0979 -0.4603
11363TIP3    H155504   3.516   2.993   1.862  1.4757 -0.5993 -2.4247
11363TIP3    H255505   3.662   2.952   1.861  1.4415 -0.8949  0.5939
11364TIP3   OH255506   1.379   2.800   2.778  0.8655 -0.0822  0.0706
11364TIP3    H155507   1.324   2.857   2.831  0.9791 -0.5354  0.6770
11364TIP3    H255508   1.356   2.822   2.688 -1.9050 -1.7956  0.2980
11365TIP3   OH255509   4.018   3.941   1.207 -0.3165 -0.3352 -0.3681
11365TIP3    H155510   3.962   3.944   1.129  0.3467  0.5168 -0.8091
11365TIP3    H255511   4.046   3.850   1.213 -1.4634 -0.6959 -0.3495
11366TIP3   OH255512   6.370   6.649   0.468  0.7304  0.0355 -0.8065
11366TIP3    H155513   6.290   6.670   0.421  0.0210 -0.3118  0.2148
11366TIP3    H255514   6.412   6.734   0.485 -1.3142  0.5769  1.9082
11367TIP3   OH255515   2.097   2.677  13.882 -0.2937  0.1871 -0.2333
11367TIP3    H155516   2.165   2.629  13.928 -1.3304 -0.6492  0.4585
11367TIP3    H255517   2.063   2.739  13.946 -0.2868  0.4938 -0.5242
11368TIP3   OH255518   0.759   3.194   2.866  0.5595  0.3364  0.1572
11368TIP3    H155519   0.805   3.126   2.914  1.1972  1.1637  0.7277
11368TIP3    H255520   0.674   3.200   2.909  0.4426 -0.2001  0.0060
11369TIP3   OH255521   3.584   2.635   0.145 -0.0717 -0.1625 -0.1103
11369TIP3    H155522   3.663   2.662   0.099  0.2133  1.8304  1.4732
11369TIP3    H255523   3.613   2.563   0.201 -0.1563 -1.7607 -2.0903
11370TIP3   OH255524   3.733   6.642  14.005  0.0716 -0.8355 -0.3166
11370TIP3    H155525   3.802   6.581  13.982  0.9814  0.7771 -1.9834
11370TIP3    H255526   3.776   6.706  14.063 -0.1743 -0.1984 -0.8308
11371TIP3   OH255527   4.977   3.338   2.136  0.1425 -0.3646 -0.2314
11371TIP3    H155528   5.034   3.409   2.164  2.2636 -2.4368  0.8391
11371TIP3    H255529   4.947   3.297   2.217  0.6222 -1.9703 -0.8433
11372TIP3   OH255530   1.818   6.679  13.304  0.2865 -0.1850 -0.3844
11372TIP3    H155531   1.781   6.743  13.243  0.0514  0.1181  0.0750
11372TIP3    H255532   1.873   6.730  13.363  0.2704 -0.4363 -0.1484
11373TIP3   OH255533   3.251   4.074   1.918  0.1367  0.1365  0.1282
11373TIP3    H155534   3.328   4.039   1.873  0.9869  2.6583 -0.4900
11373TIP3    H255535   3.204   4.122   1.850 -1.0600  0.0800  0.9053
11374TIP3   OH255536   6.072   1.234   1.299  0.1000 -0.6205  0.3681
11374TIP3    H155537   6.163   1.231   1.267  0.1263  1.2442  0.1731
11374TIP3    H255538   6.070   1.312   1.355 -1.4014 -0.6003  0.2896
11375TIP3   OH255539   5.460   4.060  16.333 -0.2975  0.4916  0.6081
11375TIP3    H155540   5.547   4.084  16.364 -1.5306 -0.7993  5.4501
11375TIP3    H255541   5.469   3.969  16.305 -0.1072  0.3266  1.1986
11376TIP3   OH255542   3.641   1.187  12.761  0.4323  0.5532 -0.2890
11376TIP3    H155543   3.635   1.150  12.849  1.5656 -2.6177 -1.4874
11376TIP3    H255544   3.716   1.247  12.765 -0.3740  1.4795  1.2368
11377TIP3   OH255545   6.719   0.839   0.923 -0.8350 -0.7129  0.6376
11377TIP3    H155546   6.641   0.788   0.947 -0.8032 -0.2136  1.8253
11377TIP3    H255547   6.786   0.812   0.986 -1.1827  1.6975  2.1131
11378TIP3   OH255548   3.100   6.330  12.285  0.2360  0.4567 -0.3623
11378TIP3    H155549   3.159   6.301  12.355 -1.0725 -0.3005  0.4484
11378TIP3    H255550   3.120   6.272  12.212  0.4896  0.2038 -0.0942
11379TIP3   OH255551   1.944   5.537   6.711 -0.3650  0.1038 -0.1094
11379TIP3    H155552   2.030   5.505   6.683 -1.1562 -0.6103 -1.8386
11379TIP3    H255553   1.884   5.506   6.643 -2.0556  0.2437  1.2902
11380TIP3   OH255554   0.037   4.819   3.130  0.0661 -0.1585  0.0445
11380TIP3    H155555   0.044   4.725   3.120 -2.5424 -0.2352 -1.5503
11380TIP3    H255556   0.101   4.855   3.069 -1.0154 -0.8904 -1.5463
11381TIP3   OH255557   1.249   2.252  15.646 -0.2878  0.5211  0.4740
11381TIP3    H155558   1.183   2.208  15.700  0.4364  0.6819  1.4987
11381TIP3    H255559   1.204   2.269  15.563 -1.5947  0.7971  1.2238
11382TIP3   OH255560   0.202   5.510  12.835 -0.1675 -0.8387 -0.5666
11382TIP3    H155561   0.261   5.438  12.857  0.8771  0.5794  1.4478
11382TIP3    H255562   0.138   5.512  12.907  1.5307  2.0078  0.9611
11383TIP3   OH255563   3.132   3.818   1.948 -0.2586 -0.2706 -0.2156
11383TIP3    H155564   3.159   3.910   1.944 -1.2837  0.1202  1.2805
11383TIP3    H255565   3.196   3.777   2.005 -2.0186  0.3873  2.3131
11384TIP3   OH255566   2.358   0.635  11.840 -0.3156  0.2262 -0.4344
11384TIP3    H155567   2.264   0.656  11.838 -0.1951  0.8180 -0.0420
11384TIP3    H255568   2.363   0.553  11.889 -0.4998  0.9580  0.8334
11385TIP3   OH255569   0.415   0.847   0.176  0.5154  0.8909 -0.4803
11385TIP3    H155570   0.463   0.798   0.243 -0.7517  0.5986  0.2368
11385TIP3    H255571   0.467   0.837   0.097  0.7170 -0.8900 -0.1368
11386TIP3   OH255572   2.495   2.831  11.046 -0.2014 -0.3337 -0.3297
11386TIP3    H155573   2.571   2.837  11.103  0.3358 -1.6828 -0.8879
11386TIP3    H255574   2.520   2.768  10.979 -3.0502 -3.4794  1.4563
11387TIP3   OH255575   2.987   5.312   1.588 -0.1206  0.7521 -0.3702
11387TIP3    H155576   2.949   5.293   1.673 -0.5511  2.1009 -0.2523
11387TIP3    H255577   3.035   5.395   1.600  1.7292 -0.2084 -0.8510
11388TIP3   OH255578   3.890   0.000   5.365  0.3724  0.2037  0.0411
11388TIP3    H155579   3.892  -0.062   5.292  1.1254  0.6910 -0.3603
11388TIP3    H255580   3.838   0.073   5.332 -2.1782 -1.0376  1.2001
11389TIP3   OH255581   1.173   0.021   1.614 -0.3907 -0.1864  0.3878
11389TIP3    H155582   1.162   0.015   1.519 -0.9859 -2.7775  0.5718
11389TIP3    H255583   1.263   0.050   1.626 -0.3863  0.3896 -0.9852
11390TIP3   OH255584   6.398   3.867   4.524  0.2421 -0.2829  0.0037
11390TIP3    H155585   6.369   3.937   4.466  1.5072 -0.8698 -1.3512
11390TIP3    H255586   6.335   3.796   4.510 -1.0082  0.5270  1.3378
11391TIP3   OH255587   0.543   6.623   4.617 -0.2008  0.7307  0.3761
11391TIP3    H155588   0.612   6.671   4.570 -0.7242  1.4203  0.3147
11391TIP3    H255589   0.582   6.536   4.633  0.0505  0.5328 -1.1878
11392TIP3   OH255590   5.103   4.231   3.182  0.7069  0.3381 -0.1205
11392TIP3    H155591   5.076   4.310   3.228 -0.5228 -0.8036  1.1967
11392TIP3    H255592   5.116   4.259   3.091 -2.9671  1.4166 -0.4050
11393TIP3   OH255593   0.341   1.823   2.105 -0.0368  0.4956 -0.0658
11393TIP3    H155594   0.272   1.770   2.143 -1.7567  2.2545 -0.6443
11393TIP3    H255595   0.376   1.874   2.178  0.7281 -0.4613  0.2436
11394TIP3   OH255596   6.393   1.956   0.014  0.4533  0.2477  0.1185
11394TIP3    H155597   6.371   2.048   0.004  2.9277  0.8202 -0.1967
11394TIP3    H255598   6.484   1.949  -0.013 -0.3121 -2.6916 -2.0010
11395TIP3   OH255599   0.001   5.247  14.357 -0.8485  0.2106 -0.1722
11395TIP3    H155600  -0.016   5.285  14.271 -0.0748  0.2143 -0.3260
11395TIP3    H255601  -0.042   5.161  14.353  1.5508 -1.0063 -1.6078
11396TIP3   OH255602   3.473   3.144   6.127  0.4491 -0.1231 -0.5566
11396TIP3    H155603   3.521   3.103   6.199  0.5393  2.0333  0.6590
11396TIP3    H255604   3.381   3.139   6.154  0.6146  2.1802  0.5468
11397TIP3   OH255605   0.999   4.583   1.366 -0.4518 -0.0648  0.1374
11397TIP3    H155606   1.045   4.528   1.302 -0.2822  0.1673  0.0553
11397TIP3    H255607   1.067   4.610   1.427 -0.1486  1.5857 -0.8973
11398TIP3   OH255608   5.156   3.514   2.618 -0.0598  0.5539 -0.0657
11398TIP3    H155609   5.133   3.556   2.535  2.4041  0.8413 -0.6633
11398TIP3    H255610   5.075   3.514   2.669 -1.0753  2.4257 -1.6092
11399TIP3   OH255611   6.474   5.968   2.405 -0.0629  0.3659 -0.1921
11399TIP3    H155612   6.467   6.020   2.325 -0.0821 -0.3426 -0.6579
11399TIP3    H255613   6.507   6.029   2.470  1.7489  0.5228 -1.2046
11400TIP3   OH255614   5.463   0.083   3.728  0.2453 -0.1508  0.0454
11400TIP3    H155615   5.402   0.156   3.738 -0.3798 -0.8155  1.1640
11400TIP3    H255616   5.452   0.054   3.638 -1.2328 -0.3883  0.2967
11401TIP3   OH255617   3.410   1.410  15.133  0.2405 -0.2431  0.3257
11401TIP3    H155618   3.376   1.394  15.221  1.5936 -2.9714  0.4171
11401TIP3    H255619   3.500   1.379  15.136  0.1210 -0.9588 -2.2007
11402TIP3   OH255620   1.363   1.789  15.278  0.0358  0.1444 -0.0718
11402TIP3    H155621   1.454   1.766  15.294 -0.4496 -0.6378  1.6213
11402TIP3    H255622   1.368   1.870  15.227  1.6828 -1.1787 -2.0679
11403TIP3   OH255623   0.914   2.084   4.369 -0.6172 -0.3931  0.5932
11403TIP3    H155624   0.976   2.154   4.350  1.9245 -2.8314 -0.4495
11403TIP3    H255625   0.912   2.031   4.289 -3.1461 -1.0642  1.0403
11404TIP3   OH255626   6.069   1.904   0.604 -0.0608 -0.7992  0.1998
11404TIP3    H155627   6.064   1.987   0.558 -1.1984 -1.2025 -0.4047
11404TIP3    H255628   6.156   1.905   0.644 -0.2614  0.9100  0.6479
11405TIP3   OH255629   5.524   5.386   1.636  0.4742  0.1506 -0.1212
11405TIP3    H155630   5.462   5.387   1.710 -0.8248 -1.5023 -1.1508
11405TIP3    H255631   5.536   5.293   1.617  1.7257  0.5352 -1.2419
11406TIP3   OH255632   1.266   4.545  16.439 -0.4634 -0.2030  0.3631
11406TIP3    H155633   1.254   4.455  16.408 -1.3899  0.0592 -0.0812
11406TIP3    H255634   1.357   4.550  16.466 -0.7298 -1.6344  1.5882
11407TIP3   OH255635   2.885   3.694  12.007 -0.4819 -0.3462 -0.0657
11407TIP3    H155636   2.827   3.650  11.945 -2.0991  1.3220  0.2073
11407TIP3    H255637   2.832   3.703  12.086  0.7385 -0.2982  0.7480
11408TIP3   OH255638   2.458   3.938   1.827 -0.7275  0.3953  0.4235
11408TIP3    H155639   2.416   4.012   1.871 -0.6181  0.2131  0.8337
11408TIP3    H255640   2.394   3.867   1.834  0.1793 -0.2756  2.2215
11409TIP3   OH255641   6.643   6.205  11.907 -0.6451  0.3543  0.1154
11409TIP3    H155642   6.592   6.286  11.904  0.6554  1.2303  1.2116
11409TIP3    H255643   6.734   6.233  11.898 -0.2545 -1.0878 -0.6268
11410TIP3   OH255644   1.599   2.218   3.822  0.7612  0.1684 -0.6275
11410TIP3    H155645   1.558   2.265   3.894  2.8192  0.5181  0.3683
11410TIP3    H255646   1.549   2.243   3.744 -1.0433  0.3296  0.5671
11411TIP3   OH255647   5.659   3.615   2.722 -0.0637 -0.1257  0.0741
11411TIP3    H155648   5.652   3.698   2.770 -2.2474 -0.1083 -0.2220
11411TIP3    H255649   5.663   3.548   2.790 -1.4849  0.0134  0.3021
11412TIP3   OH255650   2.205   2.376   5.914  0.1414  0.3381 -0.1815
11412TIP3    H155651   2.188   2.323   5.991  0.5853  0.9640  0.3498
11412TIP3    H255652   2.120   2.386   5.872 -0.2576  0.7349  0.7083
11413TIP3   OH255653   2.047   6.247  14.872  0.4112  0.5038 -0.3706
11413TIP3    H155654   2.112   6.209  14.813  0.3878 -1.4782  0.8253
11413TIP3    H255655   1.963   6.210  14.843  0.3504 -0.1755  0.6279
11414TIP3   OH255656   5.693   4.775   3.209 -0.2178 -0.5443  0.2033
11414TIP3    H155657   5.695   4.724   3.128 -0.8043  0.5265 -0.4959
11414TIP3    H255658   5.780   4.814   3.215 -0.2223 -0.5047  0.0139
11415TIP3   OH255659   5.663   5.101   1.566 -0.6541  0.2043 -0.1870
11415TIP3    H155660   5.727   5.119   1.634 -2.4399  0.4263  1.4761
11415TIP3    H255661   5.632   5.012   1.585 -0.6368 -0.0134 -1.1450
11416TIP3   OH255662   3.965   5.455  13.062  0.6225 -0.1620  0.9958
11416TIP3    H155663   4.022   5.443  12.986 -0.2711  0.5815  0.1989
11416TIP3    H255664   3.940   5.547  13.059 -2.1248 -0.8744  0.2323
11417TIP3   OH255665   2.144   0.813   3.409 -0.4093  0.7357  0.4644
11417TIP3    H155666   2.156   0.886   3.470 -0.4455  0.3740  0.9128
11417TIP3    H255667   2.218   0.755   3.426 -0.2628  0.7761 -0.0410
11418TIP3   OH255668   0.916   1.956   3.834  0.4230  0.2130 -0.8924
11418TIP3    H155669   0.960   1.990   3.911 -1.0001  0.1206 -0.0100
11418TIP3    H255670   0.837   1.914   3.868 -0.8004  1.1252 -2.4938
11419TIP3   OH255671   4.721   5.511  15.649  0.5675 -0.5984 -0.4373
11419TIP3    H155672   4.649   5.447  15.646 -0.4047  0.4438  0.1110
11419TIP3    H255673   4.699   5.576  15.582  0.6120  0.1113  0.2246
11420TIP3   OH255674   5.876   5.503  13.927 -0.4501  0.2544  0.1362
11420TIP3    H155675   5.829   5.461  13.855 -0.6554  0.3666  0.2042
11420TIP3    H255676   5.812   5.565  13.965 -0.0017  0.9583 -0.2539
11421TIP3   OH255677   0.199   4.476   5.678 -0.4485  0.1871  0.3750
11421TIP3    H155678   0.254   4.420   5.733 -1.3946  0.4445  1.6088
11421TIP3    H255679   0.259   4.540   5.641  0.3283 -0.4689  0.4876
11422TIP3   OH255680   4.806   1.327  11.484 -0.3041 -0.0649  1.1008
11422TIP3    H155681   4.837   1.250  11.532 -0.1563 -1.1038 -0.6105
11422TIP3    H255682   4.720   1.302  11.452 -0.8304  0.9925  1.6646
11423TIP3   OH255683   2.524   0.828  15.171 -0.0079  0.0693 -0.5752
11423TIP3    H155684   2.499   0.833  15.263  0.0290 -1.3865 -0.4690
11423TIP3    H255685   2.536   0.919  15.143 -1.7523  0.5869  0.3722
11424TIP3   OH255686   3.505   1.324   4.444  0.5282 -0.3746  0.7600
11424TIP3    H155687   3.432   1.294   4.499 -0.8951 -0.4843 -1.1636
11424TIP3    H255688   3.535   1.246   4.398  0.0648  0.1750 -0.4959
11425TIP3   OH255689   4.929   3.401   4.412 -0.1891  0.1702  0.2996
11425TIP3    H155690   4.885   3.486   4.419  2.6481  1.7809 -0.2286
11425TIP3    H255691   4.957   3.382   4.502  0.2742  0.4418  0.2169
11426TIP3   OH255692   3.008   3.944  12.397  0.2996 -0.3222 -0.2426
11426TIP3    H155693   3.068   3.909  12.463 -0.2765  1.2072  1.1432
11426TIP3    H255694   2.932   3.974  12.448 -0.0477  1.1208 -1.5723
11427TIP3   OH255695   3.834   5.692  15.225  0.5826 -0.5985  0.2552
11427TIP3    H155696   3.750   5.730  15.251 -0.3943 -1.5586 -1.3895
11427TIP3    H255697   3.841   5.711  15.131  0.7656 -3.0716 -0.2811
11428TIP3   OH255698   3.492   0.275  15.366 -0.4140  0.0979  0.3171
11428TIP3    H155699   3.540   0.233  15.295  1.4860  0.8898  1.0828
11428TIP3    H255700   3.526   0.234  15.446 -1.7201 -0.0161  0.8210
11429TIP3   OH255701   4.494   4.838  13.426  0.1330 -0.0602  1.0586
11429TIP3    H155702   4.575   4.865  13.469  0.9436  0.1498 -0.5780
11429TIP3    H255703   4.520   4.817  13.336 -1.3983 -1.2240  0.8571
11430TIP3   OH255704   5.726   0.809  11.179  0.2378 -0.6017  0.2143
11430TIP3    H155705   5.740   0.720  11.146  0.3385 -0.0060 -1.3678
11430TIP3    H255706   5.667   0.849  11.115 -1.4996 -0.1864  2.0196
11431TIP3   OH255707   1.305   0.391   2.650  0.3688 -0.3927 -0.3348
11431TIP3    H155708   1.373   0.455   2.669  0.2572 -0.7261  1.2118
11431TIP3    H255709   1.258   0.428   2.575  2.9004 -0.6714 -2.1257
11432TIP3   OH255710   3.437   6.745  12.852 -0.1640 -0.6932 -0.0977
11432TIP3    H155711   3.402   6.664  12.887 -1.5639 -0.0252  0.0755
11432TIP3    H255712   3.389   6.814  12.897  2.1485  0.2895  0.9640
11433TIP3   OH255713   2.858   4.786   0.965 -0.3188 -0.0693 -0.2179
11433TIP3    H155714   2.913   4.764   1.039 -2.1063 -1.5099  0.7163
11433TIP3    H255715   2.914   4.839   0.908  2.9834 -3.9109 -0.7461
11434TIP3   OH255716   2.806   5.313  15.504  0.3486  0.0641 -0.2366
11434TIP3    H155717   2.819   5.311  15.599 -0.1462 -1.3375 -0.1800
11434TIP3    H255718   2.894   5.324  15.468  0.7226 -0.9724  0.3444
11435TIP3   OH255719   5.540   6.678   3.901  0.1973 -0.2647  0.8051
11435TIP3    H155720   5.495   6.736   3.840  1.5089 -0.6633 -0.5671
11435TIP3    H255721   5.481   6.603   3.911 -0.4265  0.2142  0.7364
11436TIP3   OH255722   3.619   6.472   5.629 -0.2727 -0.4738 -0.5500
11436TIP3    H155723   3.639   6.381   5.650  0.4671 -0.3415 -0.6818
11436TIP3    H255724   3.702   6.509   5.598 -0.0300  0.8684  1.6207
11437TIP3   OH255725   6.207   0.149  15.605  0.3752  0.6954  0.4603
11437TIP3    H155726   6.239   0.229  15.562  2.9937  0.4276  1.7928
11437TIP3    H255727   6.203   0.172  15.698 -0.1168 -0.3272  0.6932
11438TIP3   OH255728   3.764   0.537  13.200 -0.1634 -0.1404  0.4458
11438TIP3    H155729   3.782   0.451  13.162  0.1050 -0.0915  0.4627
11438TIP3    H255730   3.850   0.571  13.224 -0.3429 -0.2232  1.2098
11439TIP3   OH255731   4.341   1.600  10.907  0.3198 -0.1900  0.2214
11439TIP3    H155732   4.341   1.599  10.811 -4.1027 -2.2336  0.1197
11439TIP3    H255733   4.297   1.682  10.930  0.7483 -0.0355  0.5025
11440TIP3   OH255734   6.416   0.052  16.824  0.1243 -0.1019  0.4193
11440TIP3    H155735   6.455   0.097  16.749 -0.0075  0.9396  0.9684
11440TIP3    H255736   6.424  -0.041  16.802  0.7584  0.1640 -0.5478
11441TIP3   OH255737   4.391   0.946  12.076 -0.7331 -0.2444 -0.7363
11441TIP3    H155738   4.355   1.030  12.104  0.0961  0.5008 -1.8591
11441TIP3    H255739   4.385   0.948  11.980 -0.8220 -1.5187 -0.7667
11442TIP3   OH255740   6.005   5.216  11.503  0.0027 -0.8124  0.5161
11442TIP3    H155741   6.095   5.200  11.530 -0.1320 -0.3630  1.2306
11442TIP3    H255742   6.013   5.246  11.412  0.9147  2.7822  1.6886
11443TIP3   OH255743   4.461   0.605  17.130 -0.1247 -0.1067 -0.0328
11443TIP3    H155744   4.483   0.698  17.126 -0.4701 -0.0764 -1.4553
11443TIP3    H255745   4.389   0.601  17.193  0.9259  0.3779  1.2129
11444TIP3   OH255746   4.041   2.762   3.711  0.1045 -0.0579  0.4407
11444TIP3    H155747   4.136   2.772   3.718 -0.0261  0.9371  0.8120
11444TIP3    H255748   4.027   2.667   3.714  1.0705 -0.2071  0.5044
11445TIP3   OH255749   4.515   2.299  14.625  0.3537  1.0549 -0.4455
11445TIP3    H155750   4.583   2.367  14.624  0.9187  0.4888 -0.6732
11445TIP3    H255751   4.477   2.304  14.712  0.1623  1.8959 -0.5740
11446TIP3   OH255752   4.702   1.053   1.977  0.0900 -0.2919  0.0326
11446TIP3    H155753   4.763   1.060   1.903 -0.7405  0.4352 -0.6011
11446TIP3    H255754   4.620   1.091   1.944 -0.6114 -0.9610  0.9738
11447TIP3   OH255755   2.953   0.853   5.588 -0.0551  0.7621 -0.0424
11447TIP3    H155756   3.049   0.847   5.590 -0.1189 -1.5606 -1.7796
11447TIP3    H255757   2.931   0.845   5.496 -2.0113  0.0327  0.4785
11448TIP3   OH255758   6.633   2.673  13.030 -0.2336  0.3575  0.1023
11448TIP3    H155759   6.602   2.755  13.068 -0.4236  1.0868 -1.5626
11448TIP3    H255760   6.567   2.608  13.054 -0.0986  0.7010  1.4031
11449TIP3   OH255761   0.334   0.939   5.080  0.4249 -0.0613  0.6933
11449TIP3    H155762   0.272   0.952   5.008  0.3536  3.2003  1.2653
11449TIP3    H255763   0.406   0.999   5.061  1.1746 -0.3509  2.5082
11450TIP3   OH255764   0.008   4.690  16.037  0.5346  0.3473  0.1288
11450TIP3    H155765  -0.007   4.628  15.966  1.4445  1.4046 -1.0034
11450TIP3    H255766   0.049   4.638  16.106 -0.0252 -0.6090 -0.2402
11451TIP3   OH255767   1.206   2.607   2.920  0.5700 -0.3788 -0.2106
11451TIP3    H155768   1.282   2.661   2.901 -1.0477  1.6469 -1.1553
11451TIP3    H255769   1.140   2.636   2.857 -2.0460  0.2101  2.6907
11452TIP3   OH255770   3.031   1.644   4.189  0.5949 -0.7952  0.0552
11452TIP3    H155771   3.042   1.571   4.128  0.6736  0.4751 -1.5035
11452TIP3    H255772   3.036   1.722   4.133  3.7495  0.5568  2.0915
11453TIP3   OH255773   4.623   5.350   4.482 -0.2327  0.0559 -0.1585
11453TIP3    H155774   4.605   5.273   4.428  0.3884 -1.6701  2.0455
11453TIP3    H255775   4.562   5.344   4.555  1.4173  0.3249  1.2924
11454TIP3   OH255776   5.744   5.719   0.677  0.3643 -0.8449  0.2148
11454TIP3    H155777   5.790   5.675   0.606  1.0993 -0.9037  0.7171
11454TIP3    H255778   5.669   5.663   0.696  0.4983 -1.1357 -0.1116
11455TIP3   OH255779   0.007   2.717   0.992 -0.3817  0.6083  0.1970
11455TIP3    H155780   0.014   2.672   1.076  0.5183 -0.2606 -0.3266
11455TIP3    H255781  -0.022   2.806   1.014 -0.5950  0.2553  1.3751
11456TIP3   OH255782   0.956   4.127   2.680  0.6414 -0.2554 -0.2606
11456TIP3    H155783   0.915   4.061   2.737  2.1108 -2.3525 -1.5473
11456TIP3    H255784   0.882   4.170   2.637 -0.4102  0.0866  1.8391
11457TIP3   OH255785   4.736   0.058  15.361  0.1350 -0.0811 -1.0193
11457TIP3    H155786   4.737   0.027  15.270 -2.9131  2.4574 -2.0208
11457TIP3    H255787   4.812   0.116  15.367  1.0246 -1.1763 -1.5982
11458TIP3   OH255788   5.607   6.089  13.886  0.3753 -0.3786 -0.1276
11458TIP3    H155789   5.656   6.147  13.827 -0.1744 -0.1560 -0.3599
11458TIP3    H255790   5.553   6.148  13.939  0.3191 -0.6326  0.1000
11459TIP3   OH255791   4.918   2.136   2.720  0.5420  0.2631  0.4878
11459TIP3    H155792   4.908   2.190   2.799 -1.6301  0.2081  0.2786
11459TIP3    H255793   4.911   2.198   2.647 -0.5228 -0.0934  0.2802
11460TIP3   OH255794   0.800   2.746   3.826 -0.1761  0.3201 -0.2033
11460TIP3    H155795   0.855   2.674   3.856 -0.1311 -0.4461 -2.0866
11460TIP3    H255796   0.857   2.823   3.832  0.0461  0.0756  0.9957
11461TIP3   OH255797   0.617   4.478   3.697 -0.0925  0.5273 -0.2988
11461TIP3    H155798   0.661   4.550   3.743  0.6779 -0.4342  0.5013
11461TIP3    H255799   0.665   4.469   3.615 -1.4510  2.2328 -1.3065
11462TIP3   OH255800   3.084   3.970   1.051 -0.4428  0.3128 -0.4752
11462TIP3    H155801   3.069   3.910   0.978 -0.4380 -0.3531  0.0667
11462TIP3    H255802   3.178   3.987   1.047 -0.5378  0.7385 -0.9770
11463TIP3   OH255803   2.972   3.513   3.491 -0.0997  0.6715  0.1681
11463TIP3    H155804   2.911   3.453   3.449  1.3881  0.7228 -2.1896
11463TIP3    H255805   2.923   3.595   3.501 -1.8466 -0.5956  2.5651
11464TIP3   OH255806   6.772   6.057   3.777 -0.1508 -0.2939 -0.6019
11464TIP3    H155807   6.861   6.065   3.742 -0.3877  0.2321 -1.0819
11464TIP3    H255808   6.721   6.123   3.729 -0.3899  0.6985  0.9636
11465TIP3   OH255809   3.398   6.127  11.409 -0.4549  0.1427 -0.3703
11465TIP3    H155810   3.449   6.199  11.446  0.6741 -0.2985 -1.0095
11465TIP3    H255811   3.394   6.145  11.315  0.3004 -0.8836 -0.6153
11466TIP3   OH255812   4.409   3.568  14.790  0.0044  0.5251  0.3590
11466TIP3    H155813   4.380   3.639  14.733  0.5823  1.7624  1.5905
11466TIP3    H255814   4.503   3.583  14.800  0.5354 -1.6119 -1.0266
11467TIP3   OH255815   3.067   4.188   5.476 -0.5721  0.6332  0.5478
11467TIP3    H155816   3.076   4.282   5.459 -1.1528  0.4383 -0.8789
11467TIP3    H255817   3.025   4.153   5.398 -0.5151 -0.7979  1.1396
11468TIP3   OH255818   3.640   0.394  15.113  0.1415  0.1652  0.4789
11468TIP3    H155819   3.679   0.307  15.101  0.6546  0.5056 -0.3425
11468TIP3    H255820   3.552   0.385  15.076 -0.0728 -0.2192  1.0818
11469TIP3   OH255821   2.807   6.383   0.883  1.1349 -0.1432  0.0872
11469TIP3    H155822   2.799   6.463   0.936  2.7528 -0.4123  0.7763
11469TIP3    H255823   2.717   6.359   0.862  0.6403  2.0044 -0.3526
11470TIP3   OH255824   4.227   4.937  12.918  0.5697  0.2334 -0.4937
11470TIP3    H155825   4.142   4.964  12.954  0.4359  1.1602 -1.4778
11470TIP3    H255826   4.231   4.843  12.934 -0.4272  0.2650  0.0058
11471TIP3   OH255827   1.716   1.262  12.933  0.2683 -0.0935 -0.2717
11471TIP3    H155828   1.640   1.294  12.981  0.6356  1.2974 -0.6016
11471TIP3    H255829   1.685   1.248  12.843  0.6792  1.5952 -0.6858
11472TIP3   OH255830   1.081   4.986  13.667  0.3079  0.1996 -0.1425
11472TIP3    H155831   1.011   5.030  13.715 -0.0769  1.7318 -2.0667
11472TIP3    H255832   1.041   4.905  13.636  0.3835 -0.5182  1.5346
11473TIP3   OH255833   3.454   6.404  13.499  0.2465 -0.4978 -0.2865
11473TIP3    H155834   3.509   6.481  13.513 -0.2033 -0.0740 -0.8064
11473TIP3    H255835   3.460   6.354  13.580 -1.0451  1.0852  0.8090
11474TIP3   OH255836   3.432   4.740  13.514  0.5000  0.1933  0.0933
11474TIP3    H155837   3.468   4.800  13.448  1.6918  0.1757  0.7128
11474TIP3    H255838   3.350   4.709  13.476 -0.9688  3.4701  0.4861
11475TIP3   OH255839   0.309   6.049   5.159 -0.2949  0.0055  0.1611
11475TIP3    H155840   0.377   6.077   5.221  0.0386  1.2510 -0.7582
11475TIP3    H255841   0.230   6.039   5.213  0.4650 -0.8642  1.1315
11476TIP3   OH255842   5.547   1.464   2.675 -0.2074  0.6279  0.0601
11476TIP3    H155843   5.598   1.438   2.752  0.8274  0.9411 -0.5062
11476TIP3    H255844   5.613   1.491   2.611 -0.8914 -1.9272 -1.8126
11477TIP3   OH255845   2.211   3.298  15.725 -0.2358 -0.2001  0.3017
11477TIP3    H155846   2.154   3.238  15.678  0.2192  0.3006 -0.8906
11477TIP3    H255847   2.153   3.368  15.755 -0.4187 -0.2018 -0.0490
11478TIP3   OH255848   4.933   4.324   2.410 -0.1822  0.0645  0.1781
11478TIP3    H155849   4.903   4.282   2.330  1.8252  0.6318 -0.8976
11478TIP3    H255850   4.940   4.416   2.388  1.2024  0.1075  0.7573
11479TIP3   OH255851   4.625   0.983  15.262 -0.2393  0.5915 -0.3033
11479TIP3    H155852   4.666   1.069  15.253 -0.3189  0.7017  0.3265
11479TIP3    H255853   4.699   0.923  15.274 -0.2598  0.8115  0.9822
11480TIP3   OH255854   2.293   2.201   0.518 -0.4555  0.2463 -0.1737
11480TIP3    H155855   2.252   2.288   0.518 -1.3828 -0.1121  2.8723
11480TIP3    H255856   2.221   2.141   0.537  0.7178 -0.8292  1.0264
11481TIP3   OH255857   2.064   5.381   3.227  0.2608  0.5350  0.5331
11481TIP3    H155858   2.145   5.389   3.177  0.7368 -0.8362  1.0580
11481TIP3    H255859   2.058   5.288   3.249 -1.0187  0.7635  1.2287
11482TIP3   OH255860   5.806   0.741  12.878 -0.0503  0.3776  0.3470
11482TIP3    H155861   5.759   0.727  12.796  2.8180 -1.9744 -0.9598
11482TIP3    H255862   5.842   0.830  12.870  1.5404 -0.4109 -1.6809
11483TIP3   OH255863   4.503   4.639   0.612  0.3970 -0.4027  0.7694
11483TIP3    H155864   4.458   4.723   0.610 -0.9606 -1.1373  0.2453
11483TIP3    H255865   4.575   4.649   0.550  0.1502  0.3293  0.6012
11484TIP3   OH255866   3.609   4.174  16.674  0.2498 -0.1789 -0.1482
11484TIP3    H155867   3.665   4.102  16.647  0.1650 -0.2298 -0.1896
11484TIP3    H255868   3.545   4.134  16.732 -1.6659 -0.7088 -2.5319
11485TIP3   OH255869   0.074   3.650   5.178  0.2386 -0.0210  0.1567
11485TIP3    H155870   0.059   3.561   5.212 -1.2423  0.5507  1.0200
11485TIP3    H255871   0.005   3.663   5.113  1.0616  0.1395 -0.6963
11486TIP3   OH255872   0.626   5.375   3.067  0.5600 -0.0054 -0.2672
11486TIP3    H155873   0.681   5.438   3.113  1.0919  0.5790 -1.6675
11486TIP3    H255874   0.537   5.398   3.093  0.7976  0.8532 -0.1785
11487TIP3   OH255875   4.376   2.360   2.598 -0.2682 -0.3155  0.5009
11487TIP3    H155876   4.469   2.356   2.620 -0.0902 -1.0377 -0.3422
11487TIP3    H255877   4.372   2.325   2.509 -1.6167 -2.3016  1.3076
11488TIP3   OH255878   2.516   6.583   4.002 -0.4243 -0.2829  0.9638
11488TIP3    H155879   2.600   6.627   4.016  0.1229 -0.4058 -1.5375
11488TIP3    H255880   2.467   6.643   3.946 -1.3165 -0.9780  0.9895
11489TIP3   OH255881   4.216   1.535   1.367 -0.1566 -0.3772  0.2160
11489TIP3    H155882   4.226   1.619   1.412 -0.4650  0.6828 -1.6278
11489TIP3    H255883   4.136   1.498   1.403 -0.3904  0.4417  0.5553
11490TIP3   OH255884   6.239   4.622   3.105  0.2663  0.5647 -0.0544
11490TIP3    H155885   6.310   4.612   3.041 -0.0818 -1.8658 -0.1078
11490TIP3    H255886   6.165   4.652   3.053 -0.1374 -1.8271 -0.9197
11491TIP3   OH255887   6.634   6.214   0.339  0.6751  0.1332 -0.4695
11491TIP3    H155888   6.563   6.277   0.346 -0.1683 -0.8200 -0.2522
11491TIP3    H255889   6.663   6.199   0.429 -0.3584 -1.1593 -0.3470
11492TIP3   OH255890   0.855   2.379   1.936  0.4469 -0.4598  0.6694
11492TIP3    H155891   0.902   2.297   1.926  0.5510 -0.3729  0.4268
11492TIP3    H255892   0.924   2.446   1.941  0.3600 -0.3710  0.6908
11493TIP3   OH255893   1.549   0.321   4.253  0.4381  0.0717  0.7546
11493TIP3    H155894   1.588   0.359   4.332  1.4893  0.6264 -0.0161
11493TIP3    H255895   1.582   0.375   4.182 -0.3799 -0.5247 -0.0824
11494TIP3   OH255896   5.682   2.178  13.622  0.4784 -0.1871 -0.3680
11494TIP3    H155897   5.703   2.123  13.547 -0.7539 -0.1513 -0.7588
11494TIP3    H255898   5.592   2.154  13.644  0.1795  1.1460 -0.0888
11495TIP3   OH255899   3.980   6.083  10.775  0.4145  0.5533  0.4294
11495TIP3    H155900   3.913   6.138  10.734 -0.6395 -0.5590  0.6244
11495TIP3    H255901   3.972   6.102  10.869 -1.5984 -1.6666  0.7535
11496TIP3   OH255902   3.573   2.767  12.371 -0.0110 -0.1212 -0.1867
11496TIP3    H155903   3.505   2.791  12.433  0.0976 -0.3900  0.0347
11496TIP3    H255904   3.629   2.845  12.366  2.2851 -1.4881  3.0962
11497TIP3   OH255905   0.116   2.177  12.309 -0.8427 -0.4726 -0.9252
11497TIP3    H155906   0.117   2.156  12.216 -2.0713  0.8714 -1.2498
11497TIP3    H255907   0.107   2.272  12.312  0.5422 -0.3623  0.5636
11498TIP3   OH255908   4.748   2.376   3.194 -0.3430  0.2490  0.2888
11498TIP3    H155909   4.759   2.283   3.213 -1.6861  0.2965  1.3836
11498TIP3    H255910   4.654   2.392   3.204 -0.3399  1.4238 -1.3397
11499TIP3   OH255911   6.504   2.323  16.192 -0.4201 -0.2734 -0.3708
11499TIP3    H155912   6.483   2.357  16.105  1.9184 -1.1119 -1.2862
11499TIP3    H255913   6.597   2.303  16.189 -0.5061 -1.2283  2.0295
11500TIP3   OH255914   0.279   1.542  13.713 -0.1386  0.1776 -0.2660
11500TIP3    H155915   0.293   1.637  13.723  0.0058  0.0212  1.1554
11500TIP3    H255916   0.266   1.530  13.619  0.1991  1.5629 -0.5118
11501TIP3   OH255917   4.469   5.463  17.186  0.1370 -0.0386  0.6115
11501TIP3    H155918   4.483   5.369  17.174 -1.4894 -0.3422  1.0621
11501TIP3    H255919   4.382   5.470  17.225  0.4430  1.6330  1.0248
11502TIP3   OH255920   3.207   5.150  15.052 -0.2930 -0.5011  0.0050
11502TIP3    H155921   3.205   5.082  14.984 -0.6683  0.9339 -1.4348
11502TIP3    H255922   3.168   5.227  15.010  1.8914  1.1866  0.9994
11503TIP3   OH255923   5.341   6.455   2.767 -0.4312  0.1400  0.4762
11503TIP3    H155924   5.297   6.467   2.683 -1.3256 -1.1886  0.7419
11503TIP3    H255925   5.434   6.452   2.745 -0.6525 -0.1227 -0.4687
11504TIP3   OH255926   1.009   2.686  15.970  0.2716  0.0406  0.5317
11504TIP3    H155927   1.000   2.593  15.950  0.9069  0.3688 -1.4231
11504TIP3    H255928   1.080   2.691  16.034 -0.5622 -0.9120  1.5355
11505TIP3   OH255929   1.753   5.018   0.091  0.3234 -0.4886 -0.5080
11505TIP3    H155930   1.817   4.948   0.107  0.1535 -0.0170  2.6658
11505TIP3    H255931   1.668   4.978   0.112 -0.1608 -0.3497 -2.1743
11506TIP3   OH255932   0.004   0.829  11.671  0.7645 -0.7968 -0.0232
11506TIP3    H155933   0.030   0.912  11.710  2.2722 -1.2578  0.0116
11506TIP3    H255934  -0.054   0.853  11.599 -0.2312  0.1788  1.0874
11507TIP3   OH255935   1.749   6.192   0.517 -0.5459  0.4057 -0.0155
11507TIP3    H155936   1.773   6.284   0.505 -1.3183  0.6838  0.5702
11507TIP3    H255937   1.685   6.175   0.449  1.6004 -0.4640 -1.8704
11508TIP3   OH255938   6.002   6.359   1.300 -0.4783  0.3328 -0.0993
11508TIP3    H155939   5.985   6.275   1.343  1.7537  0.0185  0.1929
11508TIP3    H255940   6.033   6.335   1.213  0.7572  0.8365  0.1976
11509TIP3   OH255941   6.106   2.869   0.243 -0.3053 -0.1716  0.1404
11509TIP3    H155942   6.058   2.797   0.204  0.4444 -1.9174  2.2994
11509TIP3    H255943   6.188   2.873   0.193 -0.7900 -0.1331 -0.6557
11510TIP3   OH255944   3.081   5.755  14.238  0.2200 -0.4496 -0.1024
11510TIP3    H155945   3.103   5.843  14.206  1.0476 -1.1406 -1.4794
11510TIP3    H255946   3.134   5.745  14.318  1.0535 -0.1561 -0.6086
11511TIP3   OH255947   1.165   3.624   4.969  0.2493 -0.2601 -0.7442
11511TIP3    H155948   1.123   3.709   4.958 -2.5926 -1.6663 -1.3584
11511TIP3    H255949   1.206   3.628   5.055 -0.0005  1.6708 -0.7044
11512TIP3   OH255950   3.800   1.643   2.886  0.0474  0.3284  0.6169
11512TIP3    H155951   3.759   1.616   2.804  0.2575 -0.4728  0.7737
11512TIP3    H255952   3.734   1.698   2.929 -0.0606  0.7564 -0.0884
11513TIP3   OH255953   1.586   6.288  12.511  0.1250  0.0139 -0.0858
11513TIP3    H155954   1.567   6.194  12.506  0.3578 -0.0919  0.9182
11513TIP3    H255955   1.505   6.329  12.482 -0.3931 -0.4891  0.6176
11514TIP3   OH255956   6.653   6.681  12.299 -0.2858  0.3739 -0.7935
11514TIP3    H155957   6.720   6.719  12.243 -0.9470 -1.6931 -3.1022
11514TIP3    H255958   6.571   6.699  12.253 -0.9757 -0.1685  0.2060
11515TIP3   OH255959   5.394   4.290  14.459  0.2425 -0.2644  0.0351
11515TIP3    H155960   5.333   4.289  14.385  1.9656  0.5030 -1.4188
11515TIP3    H255961   5.392   4.380  14.491  0.9327 -0.1296 -0.2923
11516TIP3   OH255962   3.308   3.231   4.989 -0.8579 -0.1683  0.1085
11516TIP3    H155963   3.269   3.144   4.983 -0.0897 -0.5091 -0.0791
11516TIP3    H255964   3.377   3.222   5.055  0.5757 -0.2460 -1.3550
11517TIP3   OH255965   1.457   0.353   4.691  0.1121 -0.6405 -0.5975
11517TIP3    H155966   1.425   0.358   4.602 -0.8206  0.2348 -0.2205
11517TIP3    H255967   1.379   0.340   4.745  0.4776  0.4003  0.2226
11518TIP3   OH255968   2.666   2.333  16.240 -0.3156  0.1003 -0.4133
11518TIP3    H155969   2.727   2.402  16.214 -1.7382  1.0495 -1.3322
11518TIP3    H255970   2.654   2.281  16.160 -1.6578  0.6860 -0.6258
11519TIP3   OH255971   4.961   1.380  15.427  0.7601  0.2977  0.3807
11519TIP3    H155972   4.881   1.331  15.446  0.9034  0.3654  1.1507
11519TIP3    H255973   4.980   1.429  15.507  1.6583  0.1635  0.2585
11520TIP3   OH255974   5.082   5.467  10.784 -0.2364 -0.2400 -0.3978
11520TIP3    H155975   5.137   5.396  10.749  1.5188  0.9438 -0.0950
11520TIP3    H255976   5.096   5.539  10.723 -1.7227 -0.0176 -0.4872
11521TIP3   OH255977   0.314   4.953  12.002 -0.2332 -0.1482 -0.0956
11521TIP3    H155978   0.248   5.020  12.019 -0.7429 -0.3459 -1.2228
11521TIP3    H255979   0.299   4.887  12.069 -1.6212 -0.4981 -0.7133
11522TIP3   OH255980   5.898   3.186  16.730  0.4539 -0.0261 -0.0039
11522TIP3    H155981   5.807   3.156  16.725  0.8018 -0.8822 -1.4867
11522TIP3    H255982   5.940   3.125  16.790  0.3432 -0.3840 -0.2915
11523TIP3   OH255983   4.472   5.433   5.604  0.4510 -0.2851 -0.0530
11523TIP3    H155984   4.496   5.397   5.518  1.4980 -0.7381  0.4229
11523TIP3    H255985   4.492   5.363   5.666 -0.2103  0.0777  0.5760
11524TIP3   OH255986   0.311   4.994   2.413  0.4854 -0.1299 -0.0204
11524TIP3    H155987   0.384   4.937   2.440  2.6230  0.9353 -3.3035
11524TIP3    H255988   0.349   5.082   2.412 -0.6633  0.3760 -2.2999
11525TIP3   OH255989   4.840   1.105  15.508  0.7007  0.6218 -0.1270
11525TIP3    H155990   4.833   1.138  15.597 -0.8335 -1.7453  0.6580
11525TIP3    H255991   4.928   1.068  15.503  1.5320  2.5424 -0.2658
11526TIP3   OH255992   5.439   4.203   2.361 -0.1927  0.1201 -0.3593
11526TIP3    H155993   5.468   4.155   2.439 -2.0420 -0.9994 -0.3477
11526TIP3    H255994   5.344   4.209   2.370 -0.3927  0.2427 -2.3793
11527TIP3   OH255995   5.872   4.037  10.408  0.1788 -0.4433  0.0666
11527TIP3    H155996   5.857   4.123  10.447 -2.1482 -1.4725  1.5202
11527TIP3    H255997   5.833   4.042  10.321 -2.7017 -0.9643  1.2959
11528TIP3   OH255998   6.388   5.609  11.444 -0.2931 -0.2180 -0.4369
11528TIP3    H155999   6.382   5.669  11.370 -1.2392  2.3956  1.6927
11528TIP3    H256000   6.474   5.626  11.482 -0.6261 -0.0935  0.2700
11529TIP3   OH256001   0.353   0.644   3.192  1.2802  0.0845  0.2847
11529TIP3    H156002   0.432   0.621   3.143  2.2348  0.0464  1.7977
11529TIP3    H256003   0.337   0.736   3.169 -0.1519 -0.8321 -2.5633
11530TIP3   OH256004   3.694   6.352  14.569 -0.6212  0.1968 -0.3092
11530TIP3    H156005   3.735   6.265  14.567  1.1912  0.9834  0.9089
11530TIP3    H256006   3.602   6.336  14.547 -0.1888 -1.9514 -0.6552
11531TIP3   OH256007   5.236   2.810  10.604 -0.7266 -0.0542 -0.2780
11531TIP3    H156008   5.179   2.884  10.583  0.6660  0.6673 -1.6796
11531TIP3    H256009   5.225   2.749  10.530  0.9352  0.4980 -1.0180
11532TIP3   OH256010   3.594   6.105  12.430  0.0549 -0.2869 -0.0686
11532TIP3    H156011   3.590   6.201  12.435 -0.0277 -0.1961 -1.4512
11532TIP3    H256012   3.580   6.075  12.519 -0.1189  0.9920  0.3421
11533TIP3   OH256013   3.783   1.462  17.083 -0.2873  0.3980 -0.0089
11533TIP3    H156014   3.840   1.521  17.035  0.8265 -0.0710  0.7151
11533TIP3    H256015   3.706   1.452  17.028  0.7647  0.2383 -1.4630
11534TIP3   OH256016   5.006   1.102  13.253 -0.2113 -0.0978 -0.5320
11534TIP3    H156017   5.051   1.020  13.235  0.0578 -0.3837  1.3088
11534TIP3    H256018   5.063   1.147  13.315 -2.6213 -0.6566  2.2048
11535TIP3   OH256019   0.126   4.159  12.429 -0.2362  0.0942 -0.0835
11535TIP3    H156020   0.081   4.195  12.506 -0.3308  0.1982 -0.1874
11535TIP3    H256021   0.217   4.184  12.441  0.1319 -1.6619  1.0371
11536TIP3   OH256022   1.675   3.912   5.467  0.1580  0.0618  0.2716
11536TIP3    H156023   1.656   3.886   5.557  0.8032 -0.4945  0.2516
11536TIP3    H256024   1.738   3.847   5.437  0.5590  0.7244 -0.3120
11537TIP3   OH256025   2.616   0.389   2.767 -0.1381 -0.1147  0.3179
11537TIP3    H156026   2.682   0.434   2.714  1.7024 -0.4726  2.2423
11537TIP3    H256027   2.567   0.461   2.808  0.1610  0.1407  0.2349
11538TIP3   OH256028   4.523   5.909   1.356  0.0858  0.2861 -0.0917
11538TIP3    H156029   4.571   5.833   1.323 -0.9108 -1.0883  1.6033
11538TIP3    H256030   4.578   5.984   1.331  1.7709 -1.0705 -0.5467
11539TIP3   OH256031   5.520   1.381   1.625  0.0482  0.0080 -0.4382
11539TIP3    H156032   5.500   1.305   1.571 -0.1940  0.2217 -0.6466
11539TIP3    H256033   5.596   1.353   1.677  0.3653 -0.1478 -0.9827
11540TIP3   OH256034   6.652   4.779  15.729 -0.3548  0.2528  0.7257
11540TIP3    H156035   6.581   4.760  15.667 -0.7712  1.0890  0.9261
11540TIP3    H256036   6.732   4.759  15.681 -0.6958  0.2318  0.1559
11541TIP3   OH256037   1.391   4.378   2.921  0.1669  0.1740  0.4754
11541TIP3    H156038   1.451   4.436   2.876  0.3695  0.3190  0.9233
11541TIP3    H256039   1.329   4.349   2.854  1.6447 -1.1816 -0.3444
11542TIP3   OH256040   3.314   6.061   2.070  0.2138 -0.3316  0.2071
11542TIP3    H156041   3.349   6.099   2.151 -1.6349 -1.9897  1.8263
11542TIP3    H256042   3.234   6.110   2.053  0.9183  0.4153 -0.9565
11543TIP3   OH256043   3.170   0.125   3.234 -0.0254 -0.1675  0.1109
11543TIP3    H156044   3.227   0.170   3.172  0.0301 -1.0733 -0.5026
11543TIP3    H256045   3.082   0.138   3.199 -0.0787  0.1065  0.3447
11544TIP3   OH256046   4.269   4.147   0.513  1.0219  0.2885  0.3414
11544TIP3    H156047   4.276   4.129   0.419 -1.8064 -0.0447  0.1420
11544TIP3    H256048   4.337   4.211   0.531 -0.2566  2.5377 -2.5339
11545TIP3   OH256049   2.287   5.004   4.989 -0.3355  0.3952  0.4085
11545TIP3    H156050   2.214   5.015   5.050 -1.3897 -1.4102 -0.4919
11545TIP3    H256051   2.264   4.927   4.938  1.0237  1.2830 -1.5962
11546TIP3   OH256052   5.483   2.133  14.007  0.4265  0.1977 -0.1809
11546TIP3    H156053   5.572   2.100  14.004  0.6004  0.1211  3.4061
11546TIP3    H256054   5.489   2.212  14.062 -1.6875  0.1474  0.1742
11547TIP3   OH256055   1.548   5.387   1.824 -0.1117 -0.6429 -0.0370
11547TIP3    H156056   1.512   5.335   1.895 -2.2074  0.6769 -0.1008
11547TIP3    H256057   1.534   5.333   1.746  0.3051 -1.1809  0.2488
11548TIP3   OH256058   5.935   4.169   2.586  0.4103 -0.2194  0.1528
11548TIP3    H156059   5.879   4.165   2.663  1.0871  1.2953  0.7459
11548TIP3    H256060   6.019   4.201   2.619  0.7603  0.2603 -1.1738
11549TIP3   OH256061   6.362   6.614   4.168  0.2272  0.3669  0.1972
11549TIP3    H156062   6.373   6.558   4.091 -0.5829  1.2902 -0.6148
11549TIP3    H256063   6.390   6.701   4.138 -0.6510  0.8573  0.7664
11550TIP3   OH256064   1.392   5.504   3.216 -0.3072  0.2015 -0.1385
11550TIP3    H156065   1.411   5.529   3.126 -0.8978  0.3927 -0.2136
11550TIP3    H256066   1.474   5.520   3.263 -0.6008  2.0886 -0.2259
11551TIP3   OH256067   0.262   0.737   2.557 -0.1758  0.0589  0.2225
11551TIP3    H156068   0.315   0.674   2.605 -1.1738 -0.4248  0.6932
11551TIP3    H256069   0.317   0.816   2.553 -0.4290  0.4232  2.9253
11552TIP3   OH256070   6.075   5.888   5.571 -0.4156  0.6127  0.8413
11552TIP3    H156071   6.131   5.928   5.638 -0.9880  0.2455  1.5369
11552TIP3    H256072   6.086   5.945   5.494 -0.3775  1.4921  1.4878
11553TIP3   OH256073   0.482   1.288   0.184  0.4133  1.0368  0.6313
11553TIP3    H156074   0.405   1.327   0.143  1.1182 -0.0782 -1.8477
11553TIP3    H256075   0.551   1.296   0.118  1.8204 -0.0398  1.9384
11554TIP3   OH256076   3.943   4.867  11.680 -0.3972 -0.0336  0.1398
11554TIP3    H156077   3.912   4.925  11.750 -2.1920 -0.4280 -0.2813
11554TIP3    H256078   3.936   4.919  11.600  1.7618  0.4550  0.2643
11555TIP3   OH256079   0.479   1.610  13.979 -0.6652 -0.2782  0.3073
11555TIP3    H156080   0.528   1.632  13.899 -0.4888 -0.6391  0.3185
11555TIP3    H256081   0.500   1.519  13.996 -2.0015 -0.6939 -0.1695
11556TIP3   OH256082   1.339   6.202   0.528 -0.5289 -0.1088 -0.2224
11556TIP3    H156083   1.387   6.129   0.489 -1.6725 -0.4346 -1.0443
11556TIP3    H256084   1.246   6.178   0.518 -0.9308  1.7012 -0.9600
11557TIP3   OH256085   4.407   6.755   5.852 -0.1126 -0.4250  0.1315
11557TIP3    H156086   4.374   6.714   5.932 -0.8897 -1.1706 -0.5708
11557TIP3    H256087   4.468   6.822   5.884  1.1884 -2.1159  1.2827
11558TIP3   OH256088   5.825   4.350   5.536 -0.1350  0.2932  0.1903
11558TIP3    H156089   5.915   4.375   5.553  0.5436 -1.1651 -1.1301
11558TIP3    H256090   5.830   4.259   5.506 -2.2541 -0.5564  2.2598
11559TIP3   OH256091   6.738   0.897   0.531  0.5417 -0.2922  0.5535
11559TIP3    H156092   6.678   0.898   0.456 -0.4862 -2.6421  1.2919
11559TIP3    H256093   6.683   0.922   0.605  0.8371 -0.8801  0.9721
11560TIP3   OH256094   4.765   6.702  11.429 -0.5888  0.0944  0.4329
11560TIP3    H156095   4.682   6.674  11.391 -0.0934 -1.5559  0.5217
11560TIP3    H256096   4.777   6.646  11.506  0.3611  0.6587  0.7093
11561TIP3   OH256097   2.240   1.471  14.123  0.3481 -0.2169 -0.9586
11561TIP3    H156098   2.260   1.415  14.198 -0.0583  0.7172 -0.1458
11561TIP3    H256099   2.159   1.516  14.147 -1.3445 -2.0278 -3.1457
11562TIP3   OH256100   6.201   4.350  12.326 -0.3949  0.7653 -0.6632
11562TIP3    H156101   6.279   4.308  12.290 -0.2944 -1.1897  1.7229
11562TIP3    H256102   6.235   4.409  12.394 -0.8233  1.7761 -1.3259
11563TIP3   OH256103   4.117   2.131  11.589  0.1446  0.0659  0.0257
11563TIP3    H156104   4.040   2.075  11.589  0.8168 -0.8876 -1.7550
11563TIP3    H256105   4.114   2.176  11.673 -2.3739  0.0961 -0.0699
11564TIP3   OH256106   6.545   2.951  14.534  0.0825 -0.4608 -0.1855
11564TIP3    H156107   6.513   2.930  14.622 -1.5603  0.9093 -0.4161
11564TIP3    H256108   6.474   3.003  14.495  2.4532  2.4025 -0.8703
11565TIP3   OH256109   0.215   5.308   0.168 -0.0532 -0.5548  0.3191
11565TIP3    H156110   0.259   5.346   0.244 -0.6012  1.4869 -0.3501
11565TIP3    H256111   0.286   5.280   0.110  0.3542 -0.7342  0.9004
11566TIP3   OH256112   5.913   0.573  11.497  0.2843 -0.5951 -0.0192
11566TIP3    H156113   5.975   0.510  11.461 -0.0953 -1.4494  0.7774
11566TIP3    H256114   5.827   0.540  11.470  0.0841 -0.3891  0.3580
11567TIP3   OH256115   6.701   3.255  16.484  0.1020 -0.5422 -0.8491
11567TIP3    H156116   6.622   3.201  16.494 -0.8867  0.7786 -1.4585
11567TIP3    H256117   6.686   3.331  16.541  0.9179 -0.2596 -1.0035
11568TIP3   OH256118   3.789   3.181   0.558 -0.5239 -0.5054  0.3935
11568TIP3    H156119   3.858   3.209   0.498  0.5101 -0.6332  1.5068
11568TIP3    H256120   3.763   3.094   0.526 -1.0884  0.0950 -0.8013
11569TIP3   OH256121   1.617   1.791   0.606  0.5356  0.4718 -1.0278
11569TIP3    H156122   1.666   1.712   0.630 -0.8129 -0.4552 -1.3079
11569TIP3    H256123   1.558   1.806   0.680  1.0514  1.4525 -0.8015
11570TIP3   OH256124   6.612   0.622   1.675 -0.0145  0.4311 -0.2810
11570TIP3    H156125   6.609   0.531   1.704  2.6204  0.8138  1.3826
11570TIP3    H256126   6.591   0.618   1.582  0.1097 -1.8954 -0.2419
11571TIP3   OH256127   3.606   4.916  10.729 -0.2554 -0.2594  0.2067
11571TIP3    H156128   3.620   4.929  10.823 -1.1651 -0.2894  0.3585
11571TIP3    H256129   3.605   4.821  10.718 -3.0802 -0.3536  0.6797
11572TIP3   OH256130   3.966   5.129  14.014 -0.1498  0.1066  0.2954
11572TIP3    H156131   3.974   5.225  14.010  0.6578  0.0222 -0.3749
11572TIP3    H256132   3.975   5.101  13.923 -1.5172 -0.5356  0.3438
11573TIP3   OH256133   3.260   3.614  11.603 -0.6472 -0.4342  0.6787
11573TIP3    H156134   3.240   3.561  11.680 -1.3619 -0.5983  0.3871
11573TIP3    H256135   3.326   3.563  11.555 -1.9529 -1.4868 -0.0398
11574TIP3   OH256136   1.754   5.940  13.619  0.3713  0.3253  0.1811
11574TIP3    H156137   1.739   5.847  13.606  0.5843  0.2825  0.2421
11574TIP3    H256138   1.731   5.980  13.535 -0.1085  0.2639  0.2814
11575TIP3   OH256139   3.781   4.892  12.969 -0.0861  0.3043 -0.0138
11575TIP3    H156140   3.833   4.936  12.901  0.7834  0.9462  1.0599
11575TIP3    H256141   3.792   4.799  12.949  0.8899  0.4545 -0.2396
11576TIP3   OH256142   0.886   2.231   1.295 -0.1704  0.0952  0.1433
11576TIP3    H156143   0.977   2.248   1.271 -0.0394  1.5025  1.5219
11576TIP3    H256144   0.891   2.199   1.385 -1.0825  0.9231  0.4954
11577TIP3   OH256145   0.259   2.319  13.196  0.9283  0.0588 -0.0631
11577TIP3    H156146   0.346   2.306  13.234  1.2192  0.2288 -0.6599
11577TIP3    H256147   0.199   2.282  13.261  1.5477 -1.4489 -0.3105
11578TIP3   OH256148   1.618   1.433   3.524 -0.4317 -0.6271 -0.2335
11578TIP3    H156149   1.629   1.474   3.438 -0.5042  2.1695  1.0546
11578TIP3    H256150   1.524   1.435   3.540 -0.1361  1.9106  1.3367
11579TIP3   OH256151   1.195   1.242  15.623 -0.7706 -0.5387  0.0342
11579TIP3    H156152   1.117   1.203  15.586 -0.3804 -0.0437 -1.3242
11579TIP3    H256153   1.239   1.170  15.668 -0.9439 -1.2720 -0.9639
11580TIP3   OH256154   3.704   4.360  16.153 -0.1770 -0.2544 -0.2205
11580TIP3    H156155   3.661   4.362  16.067  0.5609  3.7206 -0.6106
11580TIP3    H256156   3.646   4.413  16.209  2.4254  2.3891  0.0804
11581TIP3   OH256157   1.614   0.531   3.145 -0.4510  0.7040 -0.4032
11581TIP3    H156158   1.661   0.498   3.222 -0.3089 -2.1544 -1.6542
11581TIP3    H256159   1.642   0.622   3.137 -0.0919  0.9238  2.6196
11582TIP3   OH256160   2.096   3.237   5.257 -0.3568  0.3798 -0.0234
11582TIP3    H156161   2.160   3.177   5.294  1.1079  2.6612  1.2904
11582TIP3    H256162   2.146   3.291   5.196 -1.5263  0.6251 -0.7871
11583TIP3   OH256163   1.609   1.296   0.701  0.3583  0.2488 -0.2201
11583TIP3    H156164   1.596   1.230   0.769  1.1606 -1.3102 -1.5329
11583TIP3    H256165   1.552   1.268   0.629  0.6716  1.0058 -0.7717
11584TIP3   OH256166   4.589   6.559   1.950 -0.2379  0.2096 -0.0271
11584TIP3    H156167   4.530   6.612   1.897  1.3096  1.1246 -0.8755
11584TIP3    H256168   4.587   6.472   1.910 -0.0325  0.5760 -0.8505
11585TIP3   OH256169   6.064   0.585  14.011 -0.2306  0.5524 -0.0657
11585TIP3    H156170   6.157   0.599  13.997 -0.0811 -0.5507 -0.2353
11585TIP3    H256171   6.046   0.500  13.972 -1.4871  1.1308 -0.7872
11586TIP3   OH256172   6.228   0.912  16.119  1.0563 -0.3875  0.4451
11586TIP3    H156173   6.212   0.971  16.045  0.4411 -0.9629  0.1027
11586TIP3    H256174   6.172   0.946  16.189 -1.3722 -2.0955 -0.5938
11587TIP3   OH256175   5.159   4.947   1.931 -0.4011 -0.6668 -0.3351
11587TIP3    H156176   5.221   4.884   1.967 -0.7750 -0.8672 -0.0382
11587TIP3    H256177   5.072   4.910   1.951 -0.6174 -0.4800 -0.8997
11588TIP3   OH256178   4.648   2.782   5.042  0.0466  0.4343  0.2398
11588TIP3    H156179   4.684   2.791   4.954  0.7610 -0.4595  0.4274
11588TIP3    H256180   4.616   2.869   5.065  3.3502  1.6055  0.6220
11589TIP3   OH256181   5.586   6.645  10.698  0.0518  0.1330  0.1566
11589TIP3    H156182   5.677   6.619  10.712  0.2471 -0.2197 -1.6802
11589TIP3    H256183   5.578   6.729  10.744  1.7703  0.9649 -1.0061
11590TIP3   OH256184   5.801   6.722   5.208 -0.2944 -0.1708  0.0278
11590TIP3    H156185   5.827   6.633   5.230  0.4288 -0.3680 -1.5153
11590TIP3    H256186   5.706   6.722   5.213 -0.2736 -0.9313  0.4009
11591TIP3   OH256187   5.646   4.851   1.189  0.0378  0.1665  0.3487
11591TIP3    H156188   5.731   4.894   1.188  0.3144 -0.3929 -0.4264
11591TIP3    H256189   5.643   4.800   1.108 -0.9878  0.0944  0.4198
11592TIP3   OH256190   4.336   0.622  13.949  0.7481  0.0687  0.3134
11592TIP3    H156191   4.328   0.528  13.968 -2.0632  0.0167 -0.9357
11592TIP3    H256192   4.292   0.633  13.865  1.9541  2.3733 -0.0555
11593TIP3   OH256193   3.003   0.732   6.086 -0.1388  0.1436 -0.0984
11593TIP3    H156194   3.020   0.779   6.168 -0.4583 -0.0371  0.0734
11593TIP3    H256195   3.057   0.776   6.021 -0.5416  0.8390  0.0366
11594TIP3   OH256196   0.003   3.607  15.992 -0.5762  0.4751  0.5905
11594TIP3    H156197   0.028   3.552  15.917 -1.7564 -0.4754  0.8768
11594TIP3    H256198   0.020   3.697  15.963  0.2747  0.0291 -0.3124
11595TIP3   OH256199   4.370   2.872   3.711 -0.2185  0.2822  0.4440
11595TIP3    H156200   4.340   2.961   3.691  0.9985  0.6061 -0.0343
11595TIP3    H256201   4.408   2.879   3.798 -0.3375  0.1828  0.5027
11596TIP3   OH256202   5.406   0.622   4.364 -0.4750  0.0237 -0.1363
11596TIP3    H156203   5.419   0.560   4.436  0.6034  1.2289  0.7373
11596TIP3    H256204   5.317   0.605   4.334 -0.8489 -0.6810  1.3112
11597TIP3   OH256205   6.362   4.596  16.790 -0.1526 -0.1245 -0.8223
11597TIP3    H156206   6.358   4.506  16.820 -0.2633  0.4470  0.9180
11597TIP3    H256207   6.420   4.640  16.852 -0.1531  1.0214 -1.6071
11598TIP3   OH256208   6.098   0.999  11.688 -0.0951 -0.2347  0.6112
11598TIP3    H156209   6.037   1.069  11.664 -0.7295 -0.8621  0.3626
11598TIP3    H256210   6.042   0.935  11.733  0.1197 -1.4865 -0.8927
11599TIP3   OH256211   1.482   6.394  16.378 -0.1438  0.2424  0.1275
11599TIP3    H156212   1.389   6.371  16.381 -0.6318  2.1836  0.1605
11599TIP3    H256213   1.527   6.314  16.408 -2.0182  0.5718  4.2349
11600TIP3   OH256214   3.925   3.101   0.791  0.1595 -1.2928 -0.2876
11600TIP3    H156215   3.856   3.136   0.735 -0.7187  0.4224  1.7853
11600TIP3    H256216   4.006   3.141   0.758 -0.3650 -0.2009 -0.2755
11601TIP3   OH256217   1.199   0.781  15.753  0.2270  0.2739  0.0012
11601TIP3    H156218   1.142   0.761  15.679  1.0229  2.5189 -1.2549
11601TIP3    H256219   1.161   0.860  15.792  1.3206  0.6172  0.3852
11602TIP3   OH256220   1.664   1.605  11.363  0.3001  0.4628 -0.0363
11602TIP3    H156221   1.650   1.612  11.269 -0.9248 -1.2935  0.0049
11602TIP3    H256222   1.611   1.675  11.401  1.1650  1.4696 -0.6748
11603TIP3   OH256223   4.210   6.183   2.176  0.4928 -0.1706 -0.2709
11603TIP3    H156224   4.202   6.206   2.083  0.3146 -0.3904 -0.3125
11603TIP3    H256225   4.285   6.123   2.179  2.3996  2.1834  0.1744
11604TIP3   OH256226   3.371   3.922  14.833 -0.3397  1.1118  0.2426
11604TIP3    H156227   3.309   3.990  14.859 -0.6946  1.3081 -1.0923
11604TIP3    H256228   3.316   3.854  14.794  0.3928  1.8219 -2.0564
11605TIP3   OH256229   2.290   3.168   2.451 -0.5371  0.3984  0.9911
11605TIP3    H156230   2.351   3.149   2.380 -0.6256  0.0857  0.9978
11605TIP3    H256231   2.301   3.096   2.512 -1.6570 -0.2083  0.5023
11606TIP3   OH256232   4.540   0.486   5.657  0.3192  0.2740 -0.0864
11606TIP3    H156233   4.588   0.453   5.733  0.9485  2.5346  0.5188
11606TIP3    H256234   4.475   0.418   5.638 -0.3672  0.0254  2.9643
11607TIP3   OH256235   3.036   3.064   4.286 -0.1809 -0.2685  0.2008
11607TIP3    H156236   3.095   3.115   4.341  1.0880 -1.1217 -0.3470
11607TIP3    H256237   3.062   3.085   4.197  0.1400 -1.5939 -0.0365
11608TIP3   OH256238   1.422   2.372   0.150  0.1609 -0.5944 -0.0692
11608TIP3    H156239   1.470   2.292   0.168  1.5844  0.1191 -0.6143
11608TIP3    H256240   1.478   2.421   0.089 -2.3184 -0.7946 -2.5890
11609TIP3   OH256241   5.604   2.671  15.865  0.0046  0.1212  0.8114
11609TIP3    H156242   5.640   2.747  15.911 -2.1829  0.8434  1.3659
11609TIP3    H256243   5.512   2.667  15.891 -0.7898 -0.6771 -1.8639
11610TIP3   OH256244   1.956   4.397   2.296 -0.6915 -0.6103 -0.2129
11610TIP3    H156245   1.884   4.451   2.263 -2.5055 -1.2819  2.4721
11610TIP3    H256246   1.919   4.309   2.302  1.3179 -1.5970 -1.6537
11611TIP3   OH256247   1.652   5.330  14.828 -0.1791 -0.7099  0.1496
11611TIP3    H156248   1.560   5.305  14.834  0.3128 -2.1688  1.9598
11611TIP3    H256249   1.684   5.324  14.918  1.1048  2.0884 -0.0933
11612TIP3   OH256250   5.037   2.751  15.572  0.7849 -1.2015  0.2993
11612TIP3    H156251   5.018   2.683  15.508 -0.7179 -3.1602  2.7433
11612TIP3    H256252   5.060   2.704  15.652 -0.7910  1.1055  2.1993
11613TIP3   OH256253   6.766   5.618   3.275 -0.3408  0.4910  0.4699
11613TIP3    H156254   6.757   5.638   3.368 -0.0384  0.6967  0.4543
11613TIP3    H256255   6.676   5.620   3.241 -0.2050  3.2899  0.1545
11614TIP3   OH256256   0.574   4.071  14.010 -0.4266 -0.0308 -0.9535
11614TIP3    H156257   0.595   4.142  13.950 -0.3949 -1.4059 -2.6277
11614TIP3    H256258   0.592   4.106  14.097  0.4169  1.7045 -1.8066
11615TIP3   OH256259   5.961   3.651   3.921  0.0713 -0.6031  0.0621
11615TIP3    H156260   5.899   3.682   3.986 -0.4954  0.2824 -0.8912
11615TIP3    H256261   6.039   3.627   3.972 -0.4662 -0.2000  1.0859
11616TIP3   OH256262   4.119   4.408  13.205 -0.2527  0.0578 -0.6426
11616TIP3    H156263   4.044   4.441  13.154  0.2374 -1.0266 -2.1234
11616TIP3    H256264   4.128   4.317  13.176  0.9578 -0.1368  0.3367
11617TIP3   OH256265   4.095   0.369   4.658 -0.2253  0.2187 -1.1520
11617TIP3    H156266   4.102   0.274   4.654  1.1282  0.1249  2.2612
11617TIP3    H256267   4.000   0.386   4.661 -0.5452 -0.8371 -3.6784
11618TIP3   OH256268   1.349   6.155  13.784  1.0292 -0.1198  0.7295
11618TIP3    H156269   1.271   6.211  13.773  1.1899  0.2836  1.6338
11618TIP3    H256270   1.420   6.205  13.744  0.9052 -0.3072  0.2709
11619TIP3   OH256271   5.616   0.901  13.514 -0.3230 -0.0937 -0.1368
11619TIP3    H156272   5.634   0.876  13.605 -0.1097 -0.5627 -0.3064
11619TIP3    H256273   5.523   0.880  13.503 -0.0424 -1.2179 -0.4042
11620TIP3   OH256274   2.492   3.757   4.170  0.2732  0.2846  0.2441
11620TIP3    H156275   2.542   3.735   4.091  1.1579  0.1440  0.8355
11620TIP3    H256276   2.528   3.841   4.199  0.7782 -0.2509  1.1746
11621TIP3   OH256277   3.195   1.735   2.703  0.4464  0.4782 -0.2504
11621TIP3    H156278   3.151   1.818   2.684  1.6537  1.2682  0.2797
11621TIP3    H256279   3.130   1.683   2.751  0.0914  1.6352  0.5556
11622TIP3   OH256280   4.329   0.966   6.288  0.4872  0.3402  0.3413
11622TIP3    H156281   4.366   0.945   6.374 -3.0406 -1.0612  1.5800
11622TIP3    H256282   4.299   0.882   6.254 -3.2459  1.6511  0.2376
11623TIP3   OH256283   4.804   2.017  12.254 -0.1553  0.8981  0.0542
11623TIP3    H156284   4.745   2.090  12.271  0.6456  1.5853 -0.0872
11623TIP3    H256285   4.880   2.057  12.212 -0.5200 -0.2558 -1.7833
11624TIP3   OH256286   3.932   5.607  15.638  0.0873  0.1041 -0.0487
11624TIP3    H156287   3.839   5.601  15.619  0.1348  1.5905 -0.8864
11624TIP3    H256288   3.940   5.584  15.731 -1.2813  1.2312  0.3619
11625TIP3   OH256289   3.093   3.649   3.735  0.4372  0.0123 -0.2203
11625TIP3    H156290   3.109   3.720   3.673 -2.6836  0.5143 -0.5654
11625TIP3    H256291   3.065   3.575   3.681 -0.6372 -0.0826  0.4393
11626TIP3   OH256292   6.653   5.643   2.699  0.1711  0.2283 -0.0670
11626TIP3    H156293   6.587   5.707   2.726  0.4111  0.0294  0.9949
11626TIP3    H256294   6.606   5.560   2.696  0.0428  0.3213 -0.6879
11627TIP3   OH256295   3.270   0.219  12.301  1.0147 -0.3046 -0.4054
11627TIP3    H156296   3.257   0.183  12.214  1.0352 -0.7880 -0.2131
11627TIP3    H256297   3.333   0.290  12.289  0.6094 -0.0215 -0.8634
11628TIP3   OH256298   2.967   1.758  10.962 -0.3206 -0.8386  0.5101
11628TIP3    H156299   2.877   1.741  10.934 -0.3797 -0.4030  0.4262
11628TIP3    H256300   2.976   1.853  10.954  0.8935 -1.1009 -1.7336
11629TIP3   OH256301   4.950   3.948  15.461  0.2684 -0.2473  0.4569
11629TIP3    H156302   4.910   3.877  15.411  0.1481  0.6897 -0.7936
11629TIP3    H256303   5.043   3.929  15.458  0.2504 -0.2721 -0.0069
11630TIP3   OH256304   0.752   1.396   5.270 -0.0337  0.4940 -1.0772
11630TIP3    H156305   0.836   1.442   5.273  0.0024  0.5093 -2.0794
11630TIP3    H256306   0.735   1.383   5.176  0.0822 -1.7338 -0.8221
11631TIP3   OH256307   1.273   0.158   6.026 -1.1156 -0.2333  0.0482
11631TIP3    H156308   1.232   0.188   5.945 -0.2558  0.3153 -0.1848
11631TIP3    H256309   1.237   0.070   6.039 -3.0005  0.5640  0.2950
11632TIP3   OH256310   5.921   6.262   4.930 -0.2453 -0.0951 -0.3784
11632TIP3    H156311   5.925   6.358   4.934  0.7094 -0.0542 -1.9569
11632TIP3    H256312   5.968   6.239   4.850 -0.7787 -1.8731 -0.2093
11633TIP3   OH256313   1.390   0.846  15.578  0.4334 -0.2843  0.0264
11633TIP3    H156314   1.467   0.883  15.622 -0.9033 -0.1843  2.3260
11633TIP3    H256315   1.331   0.821  15.648 -2.1996  0.7575 -1.7377
11634TIP3   OH256316   6.546   4.397  12.018  0.1144  0.2381  0.8636
11634TIP3    H156317   6.588   4.347  11.948 -0.4431  0.7211  0.1833
11634TIP3    H256318   6.576   4.487  12.005  0.5971  0.2097  1.6989
11635TIP3   OH256319   0.772   1.923  13.969  0.4066  0.4141 -0.0897
11635TIP3    H156320   0.839   1.947  13.905  1.1360  1.0687  0.9212
11635TIP3    H256321   0.763   2.000  14.025  1.0502 -0.8055  1.7120
11636TIP3   OH256322   5.870   6.557  15.669 -0.5539  0.1038 -0.7814
11636TIP3    H156323   5.843   6.552  15.577  1.8562  1.3810 -1.6176
11636TIP3    H256324   5.921   6.638  15.674  0.4280 -0.6160  1.3874
11637TIP3   OH256325   1.410   3.293  12.661  0.5447 -0.6157  0.0415
11637TIP3    H156326   1.499   3.286  12.627  1.0250  1.1362  0.8178
11637TIP3    H256327   1.375   3.372  12.620 -1.2204 -2.1112 -1.4217
11638TIP3   OH256328   5.974   6.627   1.840 -0.7156 -0.2153  0.8289
11638TIP3    H156329   5.997   6.720   1.851 -1.8039 -0.0611  1.8976
11638TIP3    H256330   5.910   6.627   1.768  1.5215 -0.4981 -1.2321
11639TIP3   OH256331   0.983   6.281  13.310 -0.7088  0.2507  0.1333
11639TIP3    H156332   0.893   6.300  13.337 -0.4473  0.9447  0.5159
11639TIP3    H256333   1.004   6.350  13.247 -0.3823  0.1863  0.1725
11640TIP3   OH256334   5.950   1.550  14.504  0.6651  0.5962  0.4588
11640TIP3    H156335   5.901   1.576  14.426  1.2200 -2.2141 -0.8938
11640TIP3    H256336   6.041   1.564  14.480  0.7707  1.1796  1.1905
11641TIP3   OH256337   4.107   4.338  15.421 -0.4589 -0.1879 -0.2505
11641TIP3    H156338   4.084   4.262  15.473 -0.2603 -0.3798 -0.4393
11641TIP3    H256339   4.101   4.412  15.481  1.4387 -0.6084  0.5010
11642TIP3   OH256340   1.975   4.827   0.114  0.3283 -0.1956 -0.5021
11642TIP3    H156341   2.001   4.747   0.159 -0.8590  0.4517  1.3828
11642TIP3    H256342   2.049   4.847   0.056  2.0802 -0.8236  1.4533
11643TIP3   OH256343   6.176   0.243  16.807 -0.1967  0.8112  0.2190
11643TIP3    H156344   6.184   0.270  16.715 -2.1774  0.2987 -0.1247
11643TIP3    H256345   6.254   0.191  16.823  1.0886  2.4128 -0.6276
11644TIP3   OH256346   2.800   5.007   1.149  0.0452 -0.2196  1.0001
11644TIP3    H156347   2.846   4.944   1.094 -0.4326 -1.3077  1.8256
11644TIP3    H256348   2.842   5.090   1.130 -1.5077 -0.1673 -2.6050
11645TIP3   OH256349   2.681   4.427  11.409  0.1470 -0.1072 -0.1599
11645TIP3    H156350   2.719   4.474  11.483 -1.0805 -0.5255  0.7655
11645TIP3    H256351   2.730   4.457  11.333 -0.1751  2.1777  0.5001
11646TIP3   OH256352   2.589   1.429  16.097  0.5379  0.1207  0.2592
11646TIP3    H156353   2.573   1.497  16.032 -0.6315 -1.5876 -1.2970
11646TIP3    H256354   2.504   1.387  16.110  1.4172 -1.6160  0.5310
11647TIP3   OH256355   3.533   0.105   1.844 -0.2816 -0.3558 -0.3081
11647TIP3    H156356   3.492   0.032   1.890  0.6413  0.4112  1.8212
11647TIP3    H256357   3.460   0.162   1.819 -0.7041 -0.0567  1.5440
11648TIP3   OH256358   4.512   5.019  15.638 -0.0658  0.3102  0.1405
11648TIP3    H156359   4.561   5.045  15.560 -1.6247  0.6959 -0.7395
11648TIP3    H256360   4.577   4.976  15.694  0.8437 -0.9744 -1.8481
11649TIP3   OH256361   6.708   2.942  16.904  0.3225  0.3300 -0.3214
11649TIP3    H156362   6.770   2.969  16.972  0.0220  0.0038  0.0896
11649TIP3    H256363   6.757   2.881  16.849  0.0919 -0.6465  0.5486
11650TIP3   OH256364   2.250   4.875  12.022 -0.2641  0.4285  0.0290
11650TIP3    H156365   2.174   4.844  11.974  0.4716  0.2018 -0.9985
11650TIP3    H256366   2.227   4.963  12.050 -0.2773  0.9720 -1.6638
11651TIP3   OH256367   3.010   5.472  11.424  0.7312 -0.0873  0.0391
11651TIP3    H156368   2.982   5.511  11.341 -2.5813 -2.2074  0.0489
11651TIP3    H256369   3.061   5.395  11.399  0.2722 -0.3670 -0.0468
11652TIP3   OH256370   0.635   6.445   1.117 -0.1118  0.3557  0.0563
11652TIP3    H156371   0.589   6.403   1.044 -0.9328  0.1594  0.6736
11652TIP3    H256372   0.596   6.533   1.122  0.8955  0.8510 -0.5946
11653TIP3   OH256373   5.650   4.136   3.619  0.4263  0.0665  0.0393
11653TIP3    H156374   5.676   4.138   3.527 -0.5124  0.4266 -0.2317
11653TIP3    H256375   5.666   4.046   3.647  1.4773  0.1611 -0.2505
11654TIP3   OH256376   5.787   3.253  11.905 -0.2358 -0.4607  0.5197
11654TIP3    H156377   5.831   3.303  11.837  1.2244 -3.0265 -0.5184
11654TIP3    H256378   5.696   3.248  11.876  0.6713 -2.8737 -2.1830
11655TIP3   OH256379   3.746   2.209   0.671  0.3762  0.4005 -0.3867
11655TIP3    H156380   3.736   2.299   0.703 -1.7298 -0.1913  0.7260
11655TIP3    H256381   3.725   2.215   0.578  0.4910  1.1032 -0.3728
11656TIP3   OH256382   5.455   0.084  13.963  0.2341  0.0218 -0.0411
11656TIP3    H156383   5.534   0.131  13.988  0.8918 -1.2165  0.2677
11656TIP3    H256384   5.420   0.049  14.045 -0.5121  0.3761 -0.2026
11657TIP3   OH256385   3.548   2.714   4.779  0.4119 -0.0821 -0.1123
11657TIP3    H156386   3.497   2.670   4.711 -0.3409  0.7639 -0.1076
11657TIP3    H256387   3.520   2.806   4.775  0.0717 -0.0908  1.5901
11658TIP3   OH256388   6.505   2.468   0.375 -0.3521  0.2724 -0.1399
11658TIP3    H156389   6.595   2.440   0.363 -0.6160 -0.0393 -1.4827
11658TIP3    H256390   6.497   2.485   0.469  0.7999 -0.7109  0.1409
11659TIP3   OH256391   5.472   3.039  10.793 -0.1410  0.3021  0.0974
11659TIP3    H156392   5.419   3.071  10.721 -0.3218 -0.9879 -0.3593
11659TIP3    H256393   5.555   3.087  10.786  0.2500 -0.5651 -1.6292
11660TIP3   OH256394   5.756   3.174   0.276 -0.1983  0.0074 -0.3733
11660TIP3    H156395   5.811   3.168   0.355 -0.1626 -0.4110 -0.4299
11660TIP3    H256396   5.818   3.191   0.205  0.0512 -2.0631 -0.6864
11661TIP3   OH256397   4.112   0.328  11.967  0.0092 -0.1686  0.2741
11661TIP3    H156398   4.059   0.366  12.038  0.2510 -0.6934  0.7447
11661TIP3    H256399   4.153   0.403  11.925  1.1118  0.0643  1.6982
11662TIP3   OH256400   4.155   3.077  12.602 -0.8673 -0.7316  0.1393
11662TIP3    H156401   4.144   3.164  12.566  0.3954  0.1159  1.7280
11662TIP3    H256402   4.070   3.034  12.589 -1.5483  0.7891 -0.4858
11663TIP3   OH256403   3.893   6.197   5.377 -0.3639  0.0500 -0.1992
11663TIP3    H156404   3.873   6.226   5.466  1.3930  0.6093  0.0207
11663TIP3    H256405   3.988   6.188   5.375 -0.6529 -3.3135 -1.0280
11664TIP3   OH256406   1.021   6.328  11.351  0.1808  0.0202  0.3918
11664TIP3    H156407   0.981   6.242  11.335  2.3250 -1.1426  1.1264
11664TIP3    H256408   1.031   6.366  11.264 -0.8374 -0.4329  0.0599
11665TIP3   OH256409   4.727   5.866  15.629 -0.1277  0.2775  0.7050
11665TIP3    H156410   4.762   5.836  15.713  0.8685  0.5635  0.3951
11665TIP3    H256411   4.795   5.845  15.565 -0.3311  1.2614  0.1602
11666TIP3   OH256412   2.419   6.625  17.100  0.3976 -0.2496  0.3173
11666TIP3    H156413   2.356   6.690  17.071  0.7865  0.5153  1.1776
11666TIP3    H256414   2.398   6.547  17.048 -0.1982  0.4872 -0.5605
11667TIP3   OH256415   5.441   2.515   2.213  0.1828 -0.4415 -0.5129
11667TIP3    H156416   5.445   2.609   2.229 -0.6993 -0.4395 -0.3022
11667TIP3    H256417   5.497   2.501   2.136 -1.8966  0.6315 -2.2524
11668TIP3   OH256418   3.070   3.509   6.797 -0.6245  0.1584 -0.5050
11668TIP3    H156419   3.080   3.492   6.891  1.7718  0.8285 -0.6146
11668TIP3    H256420   3.074   3.422   6.756 -1.1241 -0.0839 -0.0560
11669TIP3   OH256421   5.138   3.459  14.778 -0.3705  0.2883  0.3874
11669TIP3    H156422   5.216   3.513  14.763 -1.1034  0.6803 -2.2840
11669TIP3    H256423   5.105   3.488  14.863  3.1617 -0.8902  2.2733
11670TIP3   OH256424   3.103   4.806   0.543 -0.6248  0.3035 -0.0251
11670TIP3    H156425   3.151   4.724   0.552 -1.6453 -0.4726 -1.4339
11670TIP3    H256426   3.106   4.846   0.630 -1.0373 -1.7242  0.9368
11671TIP3   OH256427   5.219   2.328   4.772 -0.2146  0.0539 -0.5467
11671TIP3    H156428   5.254   2.240   4.760  0.6508  0.3645 -0.3577
11671TIP3    H256429   5.131   2.315   4.809  1.2647 -0.6776  2.8996
11672TIP3   OH256430   1.692   2.363  12.053 -0.0090  0.2003  0.0199
11672TIP3    H156431   1.625   2.368  11.985 -0.1892 -1.2894  0.0893
11672TIP3    H256432   1.654   2.309  12.122  0.9188  0.0968  0.4681
11673TIP3   OH256433   2.401   4.933   0.149 -0.2541 -0.4533  0.3429
11673TIP3    H156434   2.318   4.903   0.113  0.5504 -1.6311 -0.5544
11673TIP3    H256435   2.377   5.006   0.206 -1.8123 -0.2179 -0.5788
11674TIP3   OH256436   3.957   0.311  14.967  0.4733  0.6293 -0.0995
11674TIP3    H156437   3.951   0.308  14.872  0.8739  3.7203 -0.2731
11674TIP3    H256438   3.921   0.397  14.991 -0.1804 -0.3336  2.5823
11675TIP3   OH256439   6.366   0.906   4.710 -0.6306 -0.0440  0.2338
11675TIP3    H156440   6.364   1.001   4.700  1.2841 -0.1588 -1.6507
11675TIP3    H256441   6.296   0.874   4.653  0.2247  0.1529 -0.9631
11676TIP3   OH256442   2.371   1.041  14.427 -0.5772 -0.1418 -0.2145
11676TIP3    H156443   2.292   1.070  14.381 -0.4155  0.5812 -0.0564
11676TIP3    H256444   2.392   0.957  14.388 -3.0852 -1.7558  1.7664
11677TIP3   OH256445   0.998   2.669   2.736  0.1163 -0.3268  0.0520
11677TIP3    H156446   0.919   2.713   2.705  1.2885  1.3234 -0.7173
11677TIP3    H256447   1.051   2.655   2.658  1.4075  0.3308  0.7780
11678TIP3   OH256448   6.519   2.091   6.148  0.2158  0.3586  0.1473
11678TIP3    H156449   6.554   2.170   6.189  1.4305  0.0162 -0.2202
11678TIP3    H256450   6.477   2.043   6.220  0.4880  0.7768  0.5847
11679TIP3   OH256451   2.188   2.925  15.796  0.5192 -0.0562  0.0123
11679TIP3    H156452   2.124   2.996  15.798 -0.0290 -0.5300 -0.5459
11679TIP3    H256453   2.207   2.912  15.703  1.2405 -0.0903  0.1559
11680TIP3   OH256454   5.814   3.228  12.293  0.2991  0.0418 -0.6139
11680TIP3    H156455   5.828   3.284  12.216 -0.1127 -1.4177 -1.7747
11680TIP3    H256456   5.722   3.240  12.315  0.2251 -0.1456 -0.8256
11681TIP3   OH256457   2.446   6.016  13.422  0.3811  0.7314  0.2541
11681TIP3    H156458   2.381   5.958  13.462  1.6034 -0.4850  0.5331
11681TIP3    H256459   2.477   6.071  13.494  1.9847 -0.8975  0.8489
11682TIP3   OH256460   3.961   4.550   0.822 -0.0104  0.8273 -0.4688
11682TIP3    H156461   3.901   4.478   0.841  0.7707  0.4601  0.6411
11682TIP3    H256462   4.023   4.550   0.895  1.6482  0.8919 -1.8579
11683TIP3   OH256463   0.301   5.440  14.025 -0.7281  0.3074 -0.0905
11683TIP3    H156464   0.309   5.513  14.087  0.9311  1.0134 -1.1263
11683TIP3    H256465   0.239   5.472  13.959 -2.0938 -0.2509  0.8891
11684TIP3   OH256466   1.555   4.746  16.565  0.0482 -0.2148  0.0813
11684TIP3    H156467   1.540   4.788  16.650  2.8529 -0.3675  0.6896
11684TIP3    H256468   1.513   4.660  16.573 -0.1295 -0.0301  1.1368
11685TIP3   OH256469   2.271   1.098  17.147  0.1831  0.1153  0.0299
11685TIP3    H156470   2.284   1.052  17.230 -0.2802 -1.6011 -0.8216
11685TIP3    H256471   2.180   1.129  17.150  0.0357 -0.3097 -0.0025
11686TIP3   OH256472   5.529   5.378  12.597  0.3656 -0.6635  0.0046
11686TIP3    H156473   5.452   5.372  12.653 -0.3883 -1.0193 -1.0536
11686TIP3    H256474   5.500   5.431  12.522  1.8695  1.3469  0.7878
11687TIP3   OH256475   1.601   0.244   5.037 -0.7149  0.1595  0.0231
11687TIP3    H156476   1.664   0.295   4.985 -2.7639  0.8626 -1.8176
11687TIP3    H256477   1.623   0.264   5.128  0.5886  1.7760 -0.6268
11688TIP3   OH256478   2.876   4.841   5.345  0.0914  0.1843 -0.4960
11688TIP3    H156479   2.953   4.898   5.339 -0.2712  0.5602 -1.7006
11688TIP3    H256480   2.815   4.877   5.281 -0.7801 -0.5957 -0.1067
11689TIP3   OH256481   4.250   0.460   5.622  0.6716 -0.7015 -0.6784
11689TIP3    H156482   4.160   0.449   5.592  0.2481  0.2581  0.2300
11689TIP3    H256483   4.250   0.544   5.668  1.9903 -0.7771 -0.5234
11690TIP3   OH256484   4.541   3.041  13.494  0.5076 -0.6150  0.5553
11690TIP3    H156485   4.614   3.083  13.540 -0.3102 -0.2115  1.4844
11690TIP3    H256486   4.530   2.957  13.539 -0.8403  0.1376  1.6488
11691TIP3   OH256487   4.836   2.649   3.446 -0.6166  0.1675 -0.2369
11691TIP3    H156488   4.760   2.703   3.466  0.4966  2.3627 -1.7728
11691TIP3    H256489   4.837   2.643   3.350 -1.2804 -3.4454 -0.0880
11692TIP3   OH256490   3.264   6.454   5.809 -0.4446 -0.0770  0.5424
11692TIP3    H156491   3.218   6.388   5.758 -1.4333 -0.2031  1.5857
11692TIP3    H256492   3.269   6.530   5.751  1.7166 -1.4158 -1.0810
11693TIP3   OH256493   1.953   5.973  15.495 -0.1980  0.2789 -0.0353
11693TIP3    H156494   1.892   5.940  15.430 -1.0283  0.5405  0.6022
11693TIP3    H256495   2.011   6.032  15.447 -0.6776  0.3152 -0.5665
11694TIP3   OH256496   4.303   5.046   2.778 -0.3435 -0.4564  0.3212
11694TIP3    H156497   4.236   5.069   2.843 -0.4184 -1.0781  0.4655
11694TIP3    H256498   4.377   5.015   2.830 -0.1432 -0.2951  0.1346
11695TIP3   OH256499   1.735   3.855  16.964 -0.6194 -0.1162 -0.3748
11695TIP3    H156500   1.829   3.853  16.978 -0.4425  4.4961 -0.3187
11695TIP3    H256501   1.697   3.851  17.052 -0.4561 -1.1706 -0.3513
11696TIP3   OH256502   2.790   4.693  16.115 -0.4094  0.3268  0.6218
11696TIP3    H156503   2.879   4.727  16.106  0.0195 -0.7565  0.6833
11696TIP3    H256504   2.791   4.647  16.199 -1.1333  0.6248  0.7892
11697TIP3   OH256505   0.838   5.964  10.820 -0.6171 -0.3134 -0.1193
11697TIP3    H156506   0.905   6.028  10.797 -2.1885  0.9577 -1.2994
11697TIP3    H256507   0.808   5.930  10.736 -1.8663 -0.4287  0.3672
11698TIP3   OH256508   2.832   3.327  11.409 -0.4757 -0.0732  0.1481
11698TIP3    H156509   2.862   3.347  11.497 -0.6074 -1.1397  0.4425
11698TIP3    H256510   2.740   3.353  11.408 -0.2205  0.8231  0.0300
11699TIP3   OH256511   2.072   6.096  11.666 -0.6470  0.2724 -0.0183
11699TIP3    H156512   2.104   6.103  11.756  0.0677  2.6086 -0.4068
11699TIP3    H256513   1.977   6.104  11.673 -0.4861  1.9432  0.4165
11700TIP3   OH256514   0.532   3.745  15.699  0.6270  0.2497  0.6625
11700TIP3    H156515   0.548   3.691  15.622  0.6359 -0.8884  1.4428
11700TIP3    H256516   0.438   3.762  15.698  0.1841 -1.9375  1.7813
11701TIP3   OH256517   5.221   2.438   5.669  0.9699 -0.5159 -0.5616
11701TIP3    H156518   5.244   2.408   5.757  1.5595  0.8267 -0.2461
11701TIP3    H256519   5.303   2.474   5.633  0.2537  0.8644 -0.8512
11702TIP3   OH256520   5.312   3.729  13.828  0.0506 -0.4053 -0.0135
11702TIP3    H156521   5.294   3.769  13.913  0.7790 -0.7678  0.3134
11702TIP3    H256522   5.236   3.673  13.811 -0.4032  0.1738  0.0861
11703TIP3   OH256523   5.848   1.477  16.323 -0.6155  0.5197  0.2016
11703TIP3    H156524   5.826   1.444  16.410  0.0324  0.5933  0.3978
11703TIP3    H256525   5.913   1.415  16.290 -2.0719 -0.4477 -0.9045
11704TIP3   OH256526   1.543   3.140  12.875 -0.2350 -0.6251 -0.5388
11704TIP3    H156527   1.583   3.084  12.809 -0.0470  0.6731 -1.5495
11704TIP3    H256528   1.497   3.208  12.825 -0.9756 -0.2242  0.6452
11705TIP3   OH256529   2.009   2.065   5.833 -0.2515  0.1098  0.5608
11705TIP3    H156530   1.988   2.057   5.926  0.0223  0.6512  0.6722
11705TIP3    H256531   2.023   1.975   5.803 -0.6476 -0.0875  0.9697
11706TIP3   OH256532   4.519   3.154  14.996 -0.4252  0.0541 -1.0483
11706TIP3    H156533   4.511   3.187  15.085  1.9711 -0.0061 -0.7657
11706TIP3    H256534   4.466   3.213  14.943  0.2328  1.6877  0.0741
11707TIP3   OH256535   1.819   4.360   1.061 -0.1183 -0.2786  0.0836
11707TIP3    H156536   1.725   4.344   1.064 -0.2736  0.6961  0.5895
11707TIP3    H256537   1.858   4.282   1.099 -0.6736 -1.0417 -0.8733
11708TIP3   OH256538   0.074   3.524   2.963 -0.4450  0.0677 -0.2545
11708TIP3    H156539  -0.017   3.506   2.939 -0.1150 -2.0576 -0.0061
11708TIP3    H256540   0.118   3.438   2.958  1.5522  1.0686 -0.4119
11709TIP3   OH256541   2.565   4.905   2.708  0.1502  0.3340 -0.2238
11709TIP3    H156542   2.590   4.958   2.784 -0.2193 -0.0404  0.1657
11709TIP3    H256543   2.648   4.875   2.672  0.2900 -1.9871  1.8426
11710TIP3   OH256544   2.858   5.774  14.628  0.3815 -0.8704  0.3527
11710TIP3    H156545   2.885   5.787  14.719  2.5490  2.0811 -0.6329
11710TIP3    H256546   2.771   5.735  14.634  0.1415  0.0296  3.6984
11711TIP3   OH256547   0.585   6.632   3.794 -0.2935  0.9519  0.1018
11711TIP3    H156548   0.559   6.545   3.823 -0.5108  1.1626  0.5350
11711TIP3    H256549   0.669   6.648   3.837 -0.3065  1.0012  0.1090
11712TIP3   OH256550   5.591   4.854   5.426  0.2729  0.5563 -0.2553
11712TIP3    H156551   5.505   4.845   5.384  0.2772  0.7567 -0.3082
11712TIP3    H256552   5.570   4.859   5.520  0.2941 -0.2769 -0.2096
11713TIP3   OH256553   2.952   1.027  15.883 -0.4010  0.2863 -0.9010
11713TIP3    H156554   3.008   1.052  15.957  0.1148 -0.6258 -0.9773
11713TIP3    H256555   2.886   1.097  15.878 -1.8658 -0.8215  1.8910
11714TIP3   OH256556   6.433   4.174   3.606  0.0080 -0.4579  0.1093
11714TIP3    H156557   6.508   4.182   3.548  1.0198  1.8735  1.6387
11714TIP3    H256558   6.411   4.265   3.629 -0.0188 -1.3116  3.7741
11715TIP3   OH256559   4.641   1.215  10.616  0.5503 -0.1582  0.2227
11715TIP3    H156560   4.601   1.300  10.635  0.6844 -0.2816  1.0602
11715TIP3    H256561   4.631   1.165  10.697 -0.1149 -1.1697 -0.4732
11716TIP3   OH256562   4.202   5.648  12.721  0.0308 -0.8935 -0.1170
11716TIP3    H156563   4.263   5.717  12.748 -1.2615 -0.4500  1.8181
11716TIP3    H256564   4.210   5.644  12.626  1.1217  0.9873 -0.1309
11717TIP3   OH256565   4.445   3.501   1.158 -0.6565  0.1187 -0.0481
11717TIP3    H156566   4.523   3.557   1.164 -2.5406  2.6142  2.2193
11717TIP3    H256567   4.479   3.415   1.134  2.5916  1.6152 -1.0645
11718TIP3   OH256568   0.316   0.965   1.110 -0.6126 -0.0828 -0.5523
11718TIP3    H156569   0.333   1.056   1.133 -0.2080  0.0070 -1.1966
11718TIP3    H256570   0.323   0.962   1.015 -0.9749 -0.7155 -0.5647
11719TIP3   OH256571   5.895   0.190   1.175 -0.2851 -0.0563  0.1963
11719TIP3    H156572   5.964   0.240   1.218  0.5033 -1.1055  0.1693
11719TIP3    H256573   5.941   0.134   1.113 -1.2900  0.3636 -0.9427
11720TIP3   OH256574   0.867   5.868   3.448  0.0363 -0.1513  0.0062
11720TIP3    H156575   0.810   5.924   3.501 -0.7799  0.3841 -1.3869
11720TIP3    H256576   0.951   5.868   3.494 -0.7745 -0.0737  1.5207
11721TIP3   OH256577   5.641   3.132  16.063 -0.1584 -0.3284 -0.0555
11721TIP3    H156578   5.726   3.175  16.070 -1.1537  1.6151  0.4297
11721TIP3    H256579   5.660   3.047  16.023  1.8459  0.5367 -0.9827
11722TIP3   OH256580   5.894   2.185  14.197  0.0929 -0.3136  0.2200
11722TIP3    H156581   5.808   2.211  14.230 -0.1098 -1.6224  0.7786
11722TIP3    H256582   5.957   2.235  14.250 -0.2967 -0.5695  0.9380
11723TIP3   OH256583   1.235   2.943  16.695 -0.2927  0.6217  0.3192
11723TIP3    H156584   1.251   2.853  16.665  0.8510  0.9084  0.0537
11723TIP3    H256585   1.144   2.942  16.725 -0.4011 -0.5359 -0.0132
11724TIP3   OH256586   0.704   3.770  12.792 -0.2159  0.3862  0.1862
11724TIP3    H156587   0.755   3.850  12.807 -0.3985  0.5693 -0.1413
11724TIP3    H256588   0.769   3.700  12.790 -0.3174  0.1554  3.2019
11725TIP3   OH256589   5.331   4.549   1.052 -0.1531 -0.1635  0.5469
11725TIP3    H156590   5.330   4.491   1.128  0.6908  0.8718  1.3523
11725TIP3    H256591   5.263   4.614   1.071  1.7064  1.5105  1.5307
11726TIP3   OH256592   2.791   2.561   0.095 -0.6407 -0.5102  0.7929
11726TIP3    H156593   2.882   2.552   0.124 -0.7406 -0.9967  0.9635
11726TIP3    H256594   2.748   2.483   0.129 -0.8579 -0.8680 -0.3041
11727TIP3   OH256595   5.642   4.452  16.509 -0.0462  0.2135 -0.0291
11727TIP3    H156596   5.566   4.424  16.559  1.1527  0.0905  1.7789
11727TIP3    H256597   5.649   4.389  16.438 -0.6333 -0.7836  0.7867
11728TIP3   OH256598   2.389   2.682   0.059 -0.2213 -0.5719  0.5161
11728TIP3    H156599   2.349   2.604   0.022  0.3516 -0.9840  0.7573
11728TIP3    H256600   2.369   2.752  -0.003  0.4677 -1.1888 -0.4075
11729TIP3   OH256601   6.490   5.840   1.951  0.0331  0.1763 -0.0949
11729TIP3    H156602   6.459   5.761   1.995 -1.0951  0.6176 -0.0840
11729TIP3    H256603   6.412   5.877   1.911  0.5075  1.4458  0.1391
11730TIP3   OH256604   2.101   0.762   5.095  0.3500 -0.8368 -0.7501
11730TIP3    H156605   2.044   0.685   5.098 -0.1503 -0.4691 -0.6842
11730TIP3    H256606   2.043   0.833   5.067  1.0688 -0.7201 -1.9532
11731TIP3   OH256607   4.498   3.903   3.209  0.6824  0.2276 -0.1764
11731TIP3    H156608   4.558   3.974   3.187  0.6862  0.0505 -0.7499
11731TIP3    H256609   4.554   3.834   3.244  0.4505  1.3354  2.5294
11732TIP3   OH256610   2.949   3.455   0.800 -0.3785  0.1924  0.3291
11732TIP3    H156611   2.978   3.471   0.710 -1.8132  0.3504 -0.1205
11732TIP3    H256612   2.860   3.490   0.803 -0.0119  1.0322  2.0846
11733TIP3   OH256613   2.795   0.953   3.000 -0.2995  0.1877  0.1267
11733TIP3    H156614   2.768   0.966   3.091 -0.9990 -0.4786  0.0249
11733TIP3    H256615   2.721   0.986   2.948 -0.9113 -1.5955 -0.1642
11734TIP3   OH256616   3.364   3.788   5.391 -0.2501 -0.4399  0.0875
11734TIP3    H156617   3.279   3.750   5.412 -0.2021 -0.4632  0.2376
11734TIP3    H256618   3.426   3.717   5.406 -0.1236 -0.1959  0.7045
11735TIP3   OH256619   0.558   3.938  15.430  0.0137 -0.1466 -0.0256
11735TIP3    H156620   0.650   3.962  15.440  0.1712 -1.2132  1.1789
11735TIP3    H256621   0.510   4.015  15.460  0.5226  0.0246  0.3538
11736TIP3   OH256622   0.764   2.445  12.824  0.1277 -0.6115 -0.0376
11736TIP3    H156623   0.858   2.445  12.842  0.0397 -0.4042  0.4481
11736TIP3    H256624   0.728   2.510  12.885 -0.4216 -1.2151  0.2986
11737TIP3   OH256625   6.295   6.225   2.794 -0.1761  0.2151  0.2066
11737TIP3    H156626   6.295   6.151   2.733  0.2229 -0.2236  0.7359
11737TIP3    H256627   6.289   6.185   2.880  1.2587  0.7502  0.5603
11738TIP3   OH256628   5.050   0.828   5.806 -0.1425 -0.3496 -0.5221
11738TIP3    H156629   4.967   0.825   5.759 -1.1099  0.7398  1.0414
11738TIP3    H256630   5.030   0.873   5.888  1.8966 -0.4876  0.1047
11739TIP3   OH256631   3.350   2.819   6.115 -0.2949 -0.2561 -0.4006
11739TIP3    H156632   3.303   2.880   6.058  0.5072 -0.9960 -1.8651
11739TIP3    H256633   3.281   2.781   6.170 -1.3183 -0.6955 -1.9475
11740TIP3   OH256634   4.812   3.477  12.166 -0.3151 -0.0560  0.4291
11740TIP3    H156635   4.777   3.565  12.176 -0.7195 -0.1392 -0.2584
11740TIP3    H256636   4.904   3.490  12.143  0.1647  0.1603  2.3451
11741TIP3   OH256637   6.039   6.063   0.231  0.1989 -0.5903  0.6014
11741TIP3    H156638   6.028   6.158   0.239 -1.0060 -0.8132  1.8979
11741TIP3    H256639   5.949   6.029   0.234  0.3733 -1.5892 -2.9919
11742TIP3   OH256640   4.724   1.328   3.456 -0.5013 -0.4558 -0.4190
11742TIP3    H156641   4.775   1.287   3.386  0.4037  0.4144 -0.2764
11742TIP3    H256642   4.789   1.365   3.515 -1.2755 -0.5879  0.5373
11743TIP3   OH256643   1.170   2.556  13.241 -0.2536  0.0973 -0.1664
11743TIP3    H156644   1.256   2.559  13.200 -0.7609  0.6224 -1.2056
11743TIP3    H256645   1.117   2.500  13.184  0.0800 -2.3020  1.8187
11744TIP3   OH256646   3.035   2.263  16.553  0.2961  0.0405 -0.4772
11744TIP3    H156647   3.034   2.170  16.575 -0.9982  0.5939  1.9910
11744TIP3    H256648   2.942   2.289  16.555  0.6886  1.4932 -0.6296
11745TIP3   OH256649   2.830   0.238  10.778  0.7391 -0.1203  0.4559
11745TIP3    H156650   2.795   0.166  10.726  0.7722 -0.7760  1.3285
11745TIP3    H256651   2.923   0.216  10.789  0.3386 -0.9404  2.3369
11746TIP3   OH256652   5.345   5.279  14.409  0.7745  1.0340 -0.2646
11746TIP3    H156653   5.302   5.335  14.345  1.1158  1.7692  0.1397
11746TIP3    H256654   5.277   5.218  14.437  0.5691  0.8461 -1.1656
11747TIP3   OH256655   0.743   5.499  12.093  0.5073 -0.0457  0.4086
11747TIP3    H156656   0.771   5.588  12.070  0.3286  0.0277  0.4746
11747TIP3    H256657   0.763   5.491  12.186  0.0160  0.1179  0.5311
11748TIP3   OH256658   3.129   6.002  17.220  0.0897 -0.2046  0.1360
11748TIP3    H156659   3.114   5.976  17.129  0.5498 -1.8073  0.5000
11748TIP3    H256660   3.148   6.096  17.215 -0.4414 -0.1636 -1.3569
11749TIP3   OH256661   5.984   2.154   0.751 -0.0658 -0.1706  0.1124
11749TIP3    H156662   5.986   2.068   0.791 -0.5748 -0.8458 -1.2723
11749TIP3    H256663   6.040   2.208   0.807  0.0380 -1.3246  1.1398
11750TIP3   OH256664   1.624   3.966  11.959 -0.4242  0.1113  0.0849
11750TIP3    H156665   1.714   3.995  11.972 -0.7975  1.3879 -0.1571
11750TIP3    H256666   1.590   4.022  11.890 -2.3250  1.6303  2.1847
11751TIP3   OH256667   3.910   1.925   5.005 -0.5967  0.1060 -0.7320
11751TIP3    H156668   3.990   1.908   5.055 -0.3509  2.2119 -0.3441
11751TIP3    H256669   3.849   1.858   5.034  0.4546 -0.4030  0.3385
11752TIP3   OH256670   5.119   3.016   1.977  0.0916  0.3621 -0.0812
11752TIP3    H156671   5.051   3.031   1.911 -0.2208  0.4031  0.2471
11752TIP3    H256672   5.161   3.101   1.988  0.0983  0.3713 -0.1793
11753TIP3   OH256673   0.407   6.375   5.562 -0.4563  0.1193  0.3140
11753TIP3    H156674   0.496   6.407   5.575 -0.0368 -0.6378 -0.6013
11753TIP3    H256675   0.400   6.300   5.621 -0.1890 -0.3404 -0.2263
11754TIP3   OH256676   6.012   0.804  13.164 -0.0303 -0.1028 -0.1073
11754TIP3    H156677   5.995   0.815  13.258  0.1078 -1.9584  0.1472
11754TIP3    H256678   6.090   0.749  13.160 -0.8920 -1.2454 -1.3172
11755TIP3   OH256679   0.566   5.624   6.538 -0.4689  0.1574  0.0489
11755TIP3    H156680   0.565   5.688   6.467  3.6922  2.7624  2.1931
11755TIP3    H256681   0.582   5.540   6.494 -0.6076  1.3257 -2.2932
11756TIP3   OH256682   4.286   4.570  12.062  0.1344 -0.1727 -0.3336
11756TIP3    H156683   4.217   4.588  11.998 -1.6212  0.9360  1.7875
11756TIP3    H256684   4.332   4.653  12.072 -1.1091  0.3417  1.5151
11757TIP3   OH256685   2.342   1.384  13.271 -0.1464  0.0085 -0.2662
11757TIP3    H156686   2.255   1.348  13.284 -0.3888  0.7624  0.2318
11757TIP3    H256687   2.402   1.313  13.296 -0.5998 -1.1045 -2.2708
11758TIP3   OH256688   2.948   3.811   2.277  0.0083  0.7244  1.0587
11758TIP3    H156689   2.913   3.900   2.277 -0.7476  0.4581 -1.0944
11758TIP3    H256690   3.042   3.821   2.263  0.1078  1.2416  2.1171
11759TIP3   OH256691   1.601   2.849   1.765  0.0512 -0.4674  0.2381
11759TIP3    H156692   1.606   2.754   1.776  0.1365 -0.3492  1.2906
11759TIP3    H256693   1.651   2.884   1.839  0.4340  0.3876 -0.4280
11760TIP3   OH256694   5.624   1.011  12.294  0.2268 -0.3831  0.0935
11760TIP3    H156695   5.541   0.964  12.295 -0.4410  0.7852  1.1833
11760TIP3    H256696   5.675   0.969  12.224 -1.3675 -0.9245 -0.7553
11761TIP3   OH256697   5.972   3.058   3.185  0.2531 -0.4756 -0.1357
11761TIP3    H156698   5.968   3.126   3.117 -0.9849  0.1960  0.5789
11761TIP3    H256699   5.993   2.978   3.138 -0.6959 -0.0340 -1.3521
11762TIP3   OH256700   0.219   3.512   2.121 -0.0911 -0.0861  0.3149
11762TIP3    H156701   0.179   3.480   2.202 -0.1818  0.1525  0.3648
11762TIP3    H256702   0.270   3.588   2.147 -0.1163 -0.0110  0.1496
11763TIP3   OH256703   1.125   4.930   4.753  0.5235  0.0867  0.2859
11763TIP3    H156704   1.095   5.000   4.811  2.4348  0.4531  0.8661
11763TIP3    H256705   1.095   4.850   4.795 -0.4574  0.4739  0.3495
11764TIP3   OH256706   2.074   3.722   5.879 -0.0051  0.5121 -0.6093
11764TIP3    H156707   2.142   3.675   5.928 -1.0065 -0.9189 -0.5584
11764TIP3    H256708   2.046   3.792   5.938 -2.0414 -1.9237  1.4033
11765TIP3   OH256709   1.417   3.548   3.330  0.5999  0.1548  0.3922
11765TIP3    H156710   1.448   3.630   3.292  0.9832 -0.2575 -0.1964
11765TIP3    H256711   1.364   3.574   3.406 -0.6194  1.0071 -0.7381
11766TIP3   OH256712   0.474   2.277  15.391  0.0085  0.0489 -0.5645
11766TIP3    H156713   0.454   2.363  15.428 -1.9683  0.5385 -2.6035
11766TIP3    H256714   0.394   2.227  15.403  0.3344 -0.7128 -1.5002
11767TIP3   OH256715   4.925   1.003  15.186  0.4439  0.1136  0.5614
11767TIP3    H156716   5.009   0.979  15.225  1.8409  0.2900 -2.2832
11767TIP3    H256717   4.940   1.088  15.145 -1.3987  0.6081  0.8416
11768TIP3   OH256718   0.387   0.068   2.987  0.5804  0.3312 -0.6470
11768TIP3    H156719   0.316   0.131   2.996  0.4233  0.3272 -1.7424
11768TIP3    H256720   0.467   0.119   2.997  0.4236  0.2274  1.2345
11769TIP3   OH256721   1.839   1.080   1.424  0.0538 -0.0516 -0.3546
11769TIP3    H156722   1.799   1.043   1.346 -1.2926  0.1713  0.2095
11769TIP3    H256723   1.802   1.168   1.431 -1.2132 -0.7022  1.4956
11770TIP3   OH256724   3.127   4.260   6.400  0.8165 -0.1503 -0.3156
11770TIP3    H156725   3.163   4.273   6.313  1.7323 -2.1688 -0.2596
11770TIP3    H256726   3.088   4.172   6.397 -0.7265  0.4796  0.7704
11771TIP3   OH256727   1.259   0.950   5.418 -0.2371 -0.1614 -0.2417
11771TIP3    H156728   1.246   1.013   5.347 -2.0631 -0.4499 -0.1846
11771TIP3    H256729   1.234   0.997   5.497  0.0232 -0.4216 -0.0054
11772TIP3   OH256730   5.854   0.716   3.501 -0.1451 -0.2267  0.1077
11772TIP3    H156731   5.804   0.774   3.444  0.3468  0.9022  0.8037
11772TIP3    H256732   5.898   0.774   3.562  1.3737 -1.2435  0.0299
11773TIP3   OH256733   2.789   5.046  15.409  0.7753 -0.2134  1.0075
11773TIP3    H156734   2.787   5.134  15.449 -1.8035 -0.0491  0.5882
11773TIP3    H256735   2.841   5.057  15.330  1.5579  0.6325  1.6179
11774TIP3   OH256736   1.428   1.908  13.319  0.0828  1.0339 -0.1457
11774TIP3    H156737   1.501   1.965  13.293  1.3735 -0.7791 -0.5642
11774TIP3    H256738   1.402   1.940  13.406  1.9486  1.1280  0.3873
11775TIP3   OH256739   0.424   4.144   2.629  0.4837 -0.2663 -0.6244
11775TIP3    H156740   0.356   4.086   2.662  0.2589  1.8606  2.9701
11775TIP3    H256741   0.498   4.086   2.610 -0.2222 -1.9336  1.4434
11776TIP3   OH256742   4.535   0.973  16.513 -0.1989  0.0583 -0.2823
11776TIP3    H156743   4.567   0.981  16.423 -0.1798  0.0848 -0.2733
11776TIP3    H256744   4.499   0.885  16.518  1.0812 -0.4618  0.0898
11777TIP3   OH256745   1.298   1.112  11.944 -0.8197 -0.2123  0.4298
11777TIP3    H156746   1.285   1.105  12.038  1.5716  2.6948  1.0673
11777TIP3    H256747   1.220   1.159  11.913 -1.0975 -0.2185  1.1157
11778TIP3   OH256748   0.351   6.596   2.368  0.9813  0.3146 -0.2655
11778TIP3    H156749   0.369   6.662   2.301  0.5541  0.9855  0.2818
11778TIP3    H256750   0.373   6.513   2.325  0.7656  0.7388 -1.2288
11779TIP3   OH256751   3.641   5.146  15.427  0.0338 -0.7175 -0.3040
11779TIP3    H156752   3.628   5.231  15.384  1.1570 -1.0541 -1.3512
11779TIP3    H256753   3.720   5.158  15.480  0.9625 -1.4692 -1.4800
11780TIP3   OH256754   1.205   1.088   2.377 -0.0929 -0.1503 -0.2694
11780TIP3    H156755   1.173   1.103   2.288  0.2902  0.7999 -0.2557
11780TIP3    H256756   1.301   1.088   2.367 -0.0233  1.3434  0.3575
11781TIP3   OH256757   1.149   2.282   1.262 -0.4948 -0.4090 -0.0962
11781TIP3    H156758   1.151   2.373   1.291 -1.4760 -0.7394  1.0506
11781TIP3    H256759   1.205   2.280   1.184 -0.4079  1.1477 -0.0822
11782TIP3   OH256760   4.717   4.479  16.877  0.2387  0.2700  0.0024
11782TIP3    H156761   4.770   4.399  16.880 -1.2865 -0.7716 -0.6892
11782TIP3    H256762   4.772   4.542  16.830  1.1529 -0.5752 -0.0867
11783TIP3   OH256763   1.370   6.201  11.153  0.6001 -0.5698  0.1043
11783TIP3    H156764   1.403   6.193  11.063 -0.7800 -0.9200 -0.3927
11783TIP3    H256765   1.275   6.194  11.143  0.4275 -0.3121  1.5698
11784TIP3   OH256766   0.828   4.622   3.513 -0.8854 -0.3224 -0.1339
11784TIP3    H156767   0.877   4.643   3.433 -0.8592 -1.2373 -0.3691
11784TIP3    H256768   0.883   4.560   3.560 -1.2011 -0.2997  0.2705
11785TIP3   OH256769   4.282   6.504   2.622 -0.6069 -0.7767 -0.0983
11785TIP3    H156770   4.254   6.434   2.563  1.3364 -2.9397  1.4543
11785TIP3    H256771   4.265   6.469   2.710  0.6649  0.5813  0.7099
11786TIP3   OH256772   6.082   3.983   2.447  0.3645  0.5136 -0.3124
11786TIP3    H156773   6.040   4.062   2.479  0.3596  1.0710 -1.6578
11786TIP3    H256774   6.101   3.932   2.526  1.0959  2.2057  0.6462
11787TIP3   OH256775   1.934   1.896  12.807  0.0153 -0.4434 -0.3584
11787TIP3    H156776   1.990   1.952  12.754  1.1817 -1.8058 -0.5897
11787TIP3    H256777   1.858   1.951  12.828  0.2237  0.5895 -2.1933
11788TIP3   OH256778   1.124   3.379  13.525 -0.1952 -0.0112 -1.0171
11788TIP3    H156779   1.211   3.339  13.525  0.6509  1.7837 -0.4676
11788TIP3    H256780   1.108   3.401  13.434 -0.1405 -0.4768 -1.1420
11789TIP3   OH256781   1.726   3.428  11.896 -0.3174  0.1278 -0.4128
11789TIP3    H156782   1.638   3.466  11.899  0.3322  1.5358  3.8520
11789TIP3    H256783   1.769   3.472  11.823 -3.0423 -0.4957 -2.4938
11790TIP3   OH256784   4.239   4.816   0.255  0.0290  0.5250  0.6111
11790TIP3    H156785   4.183   4.745   0.223  0.9014 -0.3393  0.9638
11790TIP3    H256786   4.209   4.832   0.345 -1.3352  1.8295 -0.0506
11791TIP3   OH256787   1.053   3.215   4.554 -0.0453 -0.1061  0.1501
11791TIP3    H156788   1.013   3.229   4.639  0.6265 -2.4994  0.8915
11791TIP3    H256789   1.065   3.120   4.548  2.5650  0.2758 -1.3757
11792TIP3   OH256790   5.667   5.429  15.961  0.0649 -0.4506 -0.4644
11792TIP3    H156791   5.641   5.495  16.025  0.2617 -0.5041 -0.3249
11792TIP3    H256792   5.655   5.346  16.008  1.1228 -0.4399 -0.1688
11793TIP3   OH256793   4.907   4.911  13.885  0.4940 -0.2060  0.2443
11793TIP3    H156794   4.860   4.830  13.905  2.1707 -1.3011 -0.2024
11793TIP3    H256795   4.973   4.886  13.821  1.2431  1.4535  0.3442
11794TIP3   OH256796   0.675   4.842  15.954 -0.6643 -0.6818 -0.4964
11794TIP3    H156797   0.585   4.809  15.963 -0.8628  0.2387  0.9901
11794TIP3    H256798   0.710   4.841  16.043  0.1483  0.8036 -0.7860
11795TIP3   OH256799   3.548   3.080  11.562  0.2871  0.0155 -0.1298
11795TIP3    H156800   3.583   3.167  11.581  2.1613 -0.6614 -0.3883
11795TIP3    H256801   3.462   3.096  11.523 -0.0998  1.6856  1.3648
11796TIP3   OH256802   4.795   0.339   6.115 -0.0123 -0.2483 -0.0344
11796TIP3    H156803   4.811   0.371   6.203  1.2640 -1.2155  0.0888
11796TIP3    H256804   4.872   0.287   6.093 -1.3586 -1.9863 -0.8074
11797TIP3   OH256805   4.288   4.510  14.060  0.0384  0.0747 -0.0505
11797TIP3    H156806   4.198   4.496  14.090  0.4003  0.4757  1.2761
11797TIP3    H256807   4.297   4.606  14.058  0.1924  0.0460 -0.9553
11798TIP3   OH256808   2.847   5.648  15.380  0.3069 -0.0082 -0.5155
11798TIP3    H156809   2.768   5.700  15.368 -0.2354 -0.7249 -0.0752
11798TIP3    H256810   2.817   5.557  15.374  0.9628 -0.2958  0.4602
11799TIP3   OH256811   2.187   0.391  11.606 -0.3025 -0.6563  0.1533
11799TIP3    H156812   2.184   0.477  11.562 -0.6812 -1.4469 -1.4190
11799TIP3    H256813   2.115   0.393  11.668 -2.1921 -0.8989 -1.9581
11800TIP3   OH256814   6.142   2.037  11.462 -0.0207 -0.1813 -0.6622
11800TIP3    H156815   6.056   2.024  11.502 -0.4310  0.2230 -1.4048
11800TIP3    H256816   6.204   2.019  11.533 -0.7926  3.0395  0.9351
11801TIP3   OH256817   3.486   0.088  11.494  0.5090 -0.3440  0.1052
11801TIP3    H156818   3.523   0.011  11.450  0.7647  0.3295 -0.8715
11801TIP3    H256819   3.508   0.161  11.437 -2.1432  0.1214 -0.3619
11802TIP3   OH256820   5.827   5.634  10.899 -0.4683 -0.6026  0.1316
11802TIP3    H156821   5.819   5.588  10.815  0.0701  1.3594 -1.0243
11802TIP3    H256822   5.736   5.648  10.927 -0.7353  0.9714 -1.4054
11803TIP3   OH256823   0.135   0.621  15.054 -0.0874  0.8391 -0.0380
11803TIP3    H156824   0.206   0.662  15.104  0.1223  0.4508 -0.0086
11803TIP3    H256825   0.180   0.559  14.996 -0.4928 -0.4669  1.0157
11804TIP3   OH256826   1.810   6.497  16.024  0.0875 -0.2620 -0.4876
11804TIP3    H156827   1.790   6.530  16.111  0.8234 -1.3297  0.1017
11804TIP3    H256828   1.731   6.449  15.998 -0.4053  0.6606 -0.7149
11805TIP3   OH256829   6.522   5.694   5.070  0.2619  0.2586 -0.4138
11805TIP3    H156830   6.520   5.773   5.124 -1.8042 -1.0973  1.5158
11805TIP3    H256831   6.458   5.711   5.001  0.3201  0.5367 -0.4028
11806TIP3   OH256832   2.476   0.044  16.247 -0.2797  0.1095 -0.4679
11806TIP3    H156833   2.435  -0.035  16.211 -0.3908  0.7627 -1.7849
11806TIP3    H256834   2.416   0.073  16.316 -0.5408 -0.6054 -0.3937
11807TIP3   OH256835   0.395   5.507  13.710  0.0724  0.4664 -0.3395
11807TIP3    H156836   0.433   5.562  13.779 -0.0791 -0.0817  0.1859
11807TIP3    H256837   0.322   5.559  13.677 -0.8255  0.0899  0.9935
11808TIP3   OH256838   4.097   6.504  14.948 -0.1098  0.3073  0.6528
11808TIP3    H156839   4.014   6.484  14.905 -0.2897 -1.3543  1.7122
11808TIP3    H256840   4.085   6.473  15.038  2.8166 -3.1436 -0.0516
11809TIP3   OH256841   1.614   5.022   5.014  0.0639  0.3564  0.3169
11809TIP3    H156842   1.562   4.950   5.049 -0.6809  0.9498  0.4424
11809TIP3    H256843   1.684   5.035   5.078  0.4107 -0.4728  0.1220
11810TIP3   OH256844   2.006   0.693   2.618  0.3501 -0.3697 -0.0311
11810TIP3    H156845   1.945   0.639   2.669  0.2446 -0.3017 -0.0846
11810TIP3    H256846   2.092   0.654   2.634  0.4691  0.3794  1.1437
11811TIP3   OH256847   1.462   6.462  11.718 -0.0843  0.6758  0.5041
11811TIP3    H156848   1.383   6.438  11.765  0.4655  2.3528  2.3379
11811TIP3    H256849   1.528   6.400  11.749 -0.6783 -0.8252 -1.1439
11812TIP3   OH256850   2.928   0.013  12.166  0.0368 -0.7964 -0.7173
11812TIP3    H156851   2.920   0.075  12.238 -1.0952 -0.2040 -1.3429
11812TIP3    H256852   2.888   0.058  12.091 -0.5686 -2.1784 -1.2411
11813TIP3   OH256853   5.395   2.267  13.348 -0.0369  0.0768  0.5867
11813TIP3    H156854   5.318   2.213  13.328  0.1154  0.7589 -2.0785
11813TIP3    H256855   5.376   2.351  13.307  0.8791  1.2001  2.4350
11814TIP3   OH256856   5.567   1.468   2.000 -0.0740  0.2991  0.1460
11814TIP3    H156857   5.508   1.507   2.064  1.1549  0.6259  1.1067
11814TIP3    H256858   5.511   1.441   1.928 -1.5774 -0.7338  1.6796
11815TIP3   OH256859   1.219   0.771  11.203  0.1715 -0.1132  0.6317
11815TIP3    H156860   1.151   0.767  11.135 -0.9356 -2.9738  1.8311
11815TIP3    H256861   1.239   0.679  11.222  3.6278  0.6866  1.0806
11816TIP3   OH256862   2.699   2.224   6.000 -0.7579  0.1105 -0.4536
11816TIP3    H156863   2.734   2.289   6.061 -1.8891  0.7536 -0.4776
11816TIP3    H256864   2.706   2.140   6.047 -0.0078  0.3604 -0.1236
11817TIP3   OH256865   3.966   4.084   3.263  0.4953 -0.1969 -0.3888
11817TIP3    H156866   4.014   4.128   3.193  0.9282  1.8264  1.1420
11817TIP3    H256867   4.003   4.119   3.344 -1.8486 -0.4556  0.8441
11818TIP3   OH256868   3.984   0.487   4.072  0.0489  0.1035 -0.4630
11818TIP3    H156869   4.030   0.408   4.043  0.4354 -0.4421  1.5430
11818TIP3    H256870   3.930   0.513   3.997  1.0162 -1.2301 -1.6448
11819TIP3   OH256871   1.028   1.183  16.194  0.0286 -0.9190  0.2790
11819TIP3    H156872   1.070   1.107  16.232  1.8375 -1.5378 -2.8070
11819TIP3    H256873   1.091   1.254  16.205 -0.4972 -0.5053  0.6722
11820TIP3   OH256874   3.116   0.319   5.794 -0.5393  0.7434  0.3848
11820TIP3    H156875   3.088   0.407   5.769 -0.7870 -0.0162 -2.2605
11820TIP3    H256876   3.038   0.265   5.779 -0.0444 -0.1016  0.8467
11821TIP3   OH256877   3.928   5.270   1.900 -0.2816 -0.1907  0.3267
11821TIP3    H156878   3.840   5.253   1.932 -1.0408  0.6265 -1.2543
11821TIP3    H256879   3.952   5.353   1.940 -0.9767  0.5171 -0.7155
11822TIP3   OH256880   2.567   5.161   6.551 -0.0729 -0.1201  0.1611
11822TIP3    H156881   2.550   5.245   6.509  0.5541 -1.0216 -1.9464
11822TIP3    H256882   2.484   5.114   6.547  0.1233 -0.4091 -0.5521
11823TIP3   OH256883   2.210   6.615   3.972  0.0172 -0.0095 -0.4288
11823TIP3    H156884   2.146   6.543   3.973 -1.0436  0.9215 -0.8385
11823TIP3    H256885   2.266   6.595   3.897  0.9109 -1.4182  0.5878
11824TIP3   OH256886   0.047   1.665   6.282 -0.1215 -0.3917  0.3559
11824TIP3    H156887   0.121   1.605   6.272 -0.5508 -1.0418  0.9634
11824TIP3    H256888  -0.023   1.626   6.228 -0.4149 -0.4631  0.7845
11825TIP3   OH256889   5.226   0.728   1.092 -0.9078  0.3032  0.4195
11825TIP3    H156890   5.240   0.663   1.023 -1.0568 -1.2311  1.8054
11825TIP3    H256891   5.241   0.680   1.174  0.0840  2.2979  1.4396
11826TIP3   OH256892   6.551   2.715   4.364 -0.4801  0.1148  0.1841
11826TIP3    H156893   6.472   2.757   4.397 -0.7517 -0.2042 -0.0582
11826TIP3    H256894   6.561   2.750   4.275  0.3113  1.0607  0.6447
11827TIP3   OH256895   3.355   0.186  11.167  0.2727 -0.1563  0.1576
11827TIP3    H156896   3.437   0.189  11.118  2.0351 -1.4370  2.9106
11827TIP3    H256897   3.369   0.244  11.242 -2.0100  1.0084 -0.2459
11828TIP3   OH256898   2.821   6.670   0.757  0.1641  0.0331  0.0400
11828TIP3    H156899   2.790   6.604   0.694  1.2326 -1.2804  0.8790
11828TIP3    H256900   2.743   6.694   0.806 -0.4725  0.2846 -1.0672
11829TIP3   OH256901   2.896   5.527   3.678  0.3944 -0.1198  0.5678
11829TIP3    H156902   2.804   5.502   3.688  0.1214  1.4381  2.1273
11829TIP3    H256903   2.895   5.623   3.677  2.1559 -0.0473  2.3081
11830TIP3   OH256904   1.980   3.426   0.822  0.3038  0.6875  0.4321
11830TIP3    H156905   1.908   3.466   0.774 -0.4639  0.0352  1.0202
11830TIP3    H256906   1.995   3.342   0.778  2.2943  1.8193 -1.1614
11831TIP3   OH256907   5.379   2.826  12.512  0.4729  0.1685 -0.0069
11831TIP3    H156908   5.419   2.804  12.596 -0.5355  0.0514  0.4508
11831TIP3    H256909   5.302   2.879  12.534 -0.3082 -0.6050 -0.7872
11832TIP3   OH256910   3.422   0.851   4.241  0.2377 -0.0742  0.0873
11832TIP3    H156911   3.340   0.831   4.285  0.9837 -2.0026  0.6665
11832TIP3    H256912   3.427   0.786   4.170  1.8612 -0.8074  0.8553
11833TIP3   OH256913   0.579   2.394  15.146 -0.2245  1.0895  0.1278
11833TIP3    H156914   0.542   2.359  15.227 -0.0448  0.8029  0.0861
11833TIP3    H256915   0.624   2.474  15.172 -1.2174  1.6723  0.1203
11834TIP3   OH256916   5.386   0.704  15.562 -0.3772 -0.2051  0.3818
11834TIP3    H156917   5.306   0.664  15.597 -0.0570 -0.1256  1.2255
11834TIP3    H256918   5.450   0.633  15.563 -0.3785 -0.2174 -0.1140
11835TIP3   OH256919   5.705   2.449  16.568 -0.0601 -0.3028  0.1954
11835TIP3    H156920   5.697   2.356  16.589  2.2230 -0.6600 -0.4385
11835TIP3    H256921   5.619   2.486  16.589 -1.8230 -3.0092 -1.9023
11836TIP3   OH256922   2.030   1.398  14.482  0.4442  0.1461  0.0962
11836TIP3    H156923   2.050   1.350  14.402 -1.4198 -0.2775 -0.1188
11836TIP3    H256924   2.116   1.416  14.521  1.2904 -0.8103 -1.3035
11837TIP3   OH256925   2.555   0.437   1.376 -0.1464  0.0014  0.3416
11837TIP3    H156926   2.507   0.451   1.295  0.1274  1.0183  0.3362
11837TIP3    H256927   2.571   0.343   1.380 -1.1652 -0.1905 -0.2021
11838TIP3   OH256928   3.667   4.584  15.316  0.5145  0.4537  0.3305
11838TIP3    H156929   3.647   4.605  15.224 -0.9607 -0.3766  0.4398
11838TIP3    H256930   3.733   4.648  15.341  1.3510  0.3349 -1.4873
11839TIP3   OH256931   4.567   4.047  11.957  0.4476 -0.1906 -0.4175
11839TIP3    H156932   4.569   3.988  11.882 -0.8062 -0.1099 -0.5249
11839TIP3    H256933   4.559   4.134  11.919  0.1582 -0.1218 -0.2087
11840TIP3   OH256934   1.138   2.359   0.117  0.9116  0.5625  0.1659
11840TIP3    H156935   1.152   2.264   0.111  0.6610  0.4628  1.1099
11840TIP3    H256936   1.223   2.394   0.142  0.6676  0.4403  1.1896
11841TIP3   OH256937   3.119   3.680   2.565 -0.7326 -0.2176 -0.3529
11841TIP3    H156938   3.118   3.684   2.661 -0.5151  0.4722 -0.3775
11841TIP3    H256939   3.065   3.754   2.538 -0.0570  0.1171 -0.7783
11842TIP3   OH256940   3.294   1.189  16.301 -0.2341  0.1922 -0.2340
11842TIP3    H156941   3.312   1.283  16.305  4.0028 -0.5673  0.9640
11842TIP3    H256942   3.267   1.166  16.389 -0.2583  0.1034 -0.2652
11843TIP3   OH256943   0.312   1.551  16.580 -0.2181 -0.0270 -0.4109
11843TIP3    H156944   0.235   1.518  16.534 -0.6947  0.6651 -0.1306
11843TIP3    H256945   0.335   1.631  16.533  1.2243 -0.9995 -1.3989
11844TIP3   OH256946   5.814   2.050  14.569  0.2499  0.4867  0.2256
11844TIP3    H156947   5.793   2.140  14.545 -1.4897  0.5762  1.9416
11844TIP3    H256948   5.908   2.052  14.589  0.5766  1.5399 -1.3305
11845TIP3   OH256949   6.566   2.404   4.816  0.2693  0.0556  0.8913
11845TIP3    H156950   6.536   2.372   4.731  1.2219  2.8409 -0.5663
11845TIP3    H256951   6.489   2.400   4.872 -0.8884  0.0635 -0.6734
11846TIP3   OH256952   2.636   3.957  14.246  0.3294 -0.0452 -0.4853
11846TIP3    H156953   2.588   4.039  14.262 -0.9214 -0.7073 -0.7148
11846TIP3    H256954   2.678   3.936  14.329  0.3714  0.6633 -0.3301
11847TIP3   OH256955   1.366   3.961  14.537  0.1291 -0.0660 -0.0913
11847TIP3    H156956   1.348   4.051  14.511  1.9151  0.6380  0.9870
11847TIP3    H256957   1.356   3.962  14.633  2.0656 -0.5410  0.1209
11848TIP3   OH256958   1.806   6.161   6.017 -0.1914  0.7942 -1.1031
11848TIP3    H156959   1.800   6.175   5.923 -1.0775 -0.3198 -1.2298
11848TIP3    H256960   1.896   6.132   6.031 -0.3074  0.1038 -1.7386
11849TIP3   OH256961   1.148   3.037   1.042  0.8616  0.0227  0.1130
11849TIP3    H156962   1.156   2.983   1.121  1.2679  1.1668  0.8578
11849TIP3    H256963   1.057   3.026   1.016  0.9843 -1.1834  0.1426
11850TIP3   OH256964   4.398   1.936  10.613 -0.0128 -0.3913  0.4718
11850TIP3    H156965   4.338   1.966  10.681 -0.4192  0.9771 -0.4772
11850TIP3    H256966   4.400   2.007  10.549  0.9065 -1.3589 -0.6046
11851TIP3   OH256967   6.040   6.349   2.817  0.2422  0.5775 -0.3714
11851TIP3    H156968   6.023   6.312   2.903  1.2419  1.3071  0.1449
11851TIP3    H256969   6.121   6.308   2.788 -0.5265 -0.2901 -1.3352
11852TIP3   OH256970   1.236   5.576   1.226 -0.2595  0.1575  0.2016
11852TIP3    H156971   1.148   5.592   1.190  0.0026 -0.3317 -0.6739
11852TIP3    H256972   1.222   5.571   1.320 -1.1452  0.3130  0.0858
11853TIP3   OH256973   3.610   2.292  11.794  0.6904  0.2396  0.0662
11853TIP3    H156974   3.698   2.313  11.764  0.9919  0.7165  1.2679
11853TIP3    H256975   3.613   2.198  11.813  0.4777 -0.0803 -1.4338
11854TIP3   OH256976   3.303   1.203   5.769  0.3148  0.5695  0.3477
11854TIP3    H156977   3.340   1.291   5.769  0.2585  0.5952  0.0581
11854TIP3    H256978   3.209   1.216   5.756  0.1575  0.5214  1.4036
11855TIP3   OH256979   0.528   3.779   4.684  0.0028 -0.1231  0.1320
11855TIP3    H156980   0.453   3.834   4.709  0.1979  0.4739 -0.5733
11855TIP3    H256981   0.492   3.716   4.623 -0.2873 -0.9959  1.1912
11856TIP3   OH256982   0.763   3.880   0.710 -0.2422  0.6220  0.5535
11856TIP3    H156983   0.744   3.942   0.640  1.1856 -1.2384 -1.5729
11856TIP3    H256984   0.858   3.888   0.723  0.3444 -2.6254 -1.3130
11857TIP3   OH256985   5.919   2.123   3.367  0.1061 -0.2138 -0.2620
11857TIP3    H156986   6.010   2.152   3.372 -0.0510  0.0443  1.4102
11857TIP3    H256987   5.892   2.111   3.459 -1.9133  0.9505 -0.6587
11858TIP3   OH256988   1.445   3.960  12.259  0.2692 -0.4694 -0.1614
11858TIP3    H156989   1.511   3.895  12.237  1.6408  0.6478  0.5510
11858TIP3    H256990   1.389   3.964  12.182  0.5348 -2.0483 -0.4369
11859TIP3   OH256991   3.092   6.680  12.398 -0.3257 -0.0297  0.0095
11859TIP3    H156992   3.013   6.627  12.392 -0.0467 -0.6266  1.3736
11859TIP3    H256993   3.099   6.703  12.491  1.5743 -0.7545  0.0798
11860TIP3   OH256994   1.052   4.499   2.592 -0.6598 -0.3576 -0.0075
11860TIP3    H156995   1.026   4.566   2.655  1.2533 -0.0208  0.4542
11860TIP3    H256996   1.033   4.537   2.507 -0.3764  0.4225  0.2757
11861TIP3   OH256997   2.069   3.410   4.768 -0.2307 -0.6803  0.1216
11861TIP3    H156998   2.011   3.417   4.692  0.4452 -0.2327 -0.3655
11861TIP3    H256999   2.108   3.323   4.760 -0.6511 -0.8884  0.3184
11862TIP3   OH257000   4.244   0.572   0.125 -0.0258 -0.4685  0.6376
11862TIP3    H157001   4.216   0.661   0.146 -1.5245 -0.6423 -0.5708
11862TIP3    H257002   4.164   0.527   0.099  1.1294 -1.3857 -1.4547
11863TIP3   OH257003   5.633   1.183   0.466  0.6667 -0.1150 -0.1758
11863TIP3    H157004   5.598   1.118   0.527 -4.0786  2.8633  0.5091
11863TIP3    H257005   5.633   1.140   0.381 -3.6219 -0.7216  0.0478
11864TIP3   OH257006   1.144   5.064  12.808  0.1520  0.7932 -0.0703
11864TIP3    H157007   1.214   5.127  12.792 -2.5544  3.7397 -0.9762
11864TIP3    H257008   1.127   5.025  12.722  0.0994  0.7413 -0.0364
11865TIP3   OH257009   4.371   1.412   0.985 -0.2501  0.3892  0.3948
11865TIP3    H157010   4.399   1.480   1.047  1.2023 -0.1093  0.3061
11865TIP3    H257011   4.277   1.427   0.974  0.1585  2.7422 -0.0771
11866TIP3   OH257012   0.550   6.320   0.540  0.0845  0.3346  0.8983
11866TIP3    H157013   0.490   6.249   0.516  0.2855  0.7458 -0.8682
11866TIP3    H257014   0.521   6.394   0.488  1.4546  0.8407  0.8439
11867TIP3   OH257015   1.039   3.754  16.477 -0.0675  0.1748 -0.3795
11867TIP3    H157016   0.952   3.743  16.439 -0.5430 -2.0449  1.2199
11867TIP3    H257017   1.078   3.666  16.475  1.8443  0.9850 -0.3861
11868TIP3   OH257018   4.392   6.231  16.833 -0.1279 -0.1741 -0.2006
11868TIP3    H157019   4.319   6.220  16.894  0.5430 -0.2666  0.5819
11868TIP3    H257020   4.374   6.315  16.790  0.2276  0.6552  1.2503
11869TIP3   OH257021   0.147   0.673   6.235  0.1803  0.4267  0.0907
11869TIP3    H157022   0.176   0.604   6.295  3.2627  2.0885  0.6034
11869TIP3    H257023   0.102   0.627   6.165  1.3579 -2.0300  0.9068
11870TIP3   OH257024   1.746   4.916   1.365  0.5271 -0.5225  0.4172
11870TIP3    H157025   1.732   4.978   1.294 -3.8585 -1.9875 -0.1761
11870TIP3    H257026   1.692   4.949   1.436  0.1399 -2.2621  0.9537
11871TIP3   OH257027   3.398   0.523   4.302  0.2187  0.6367 -0.1244
11871TIP3    H157028   3.395   0.559   4.213 -0.1695 -1.7634 -1.1250
11871TIP3    H257029   3.319   0.470   4.309  0.6498  0.1653  1.3850
11872TIP3   OH257030   4.771   4.213  15.009  0.0383  0.0851 -0.2489
11872TIP3    H157031   4.857   4.211  15.051 -0.3162  0.0833  0.4836
11872TIP3    H257032   4.753   4.306  14.995  0.1471  0.0863 -0.3905
11873TIP3   OH257033   1.865   5.113   5.468  0.2336  0.6230  0.3400
11873TIP3    H157034   1.825   5.093   5.553  0.1511  1.6885  0.5610
11873TIP3    H257035   1.886   5.207   5.473  0.5855  0.6008 -0.6676
11874TIP3   OH257036   3.043   5.347  15.311 -0.6609 -0.4883  0.2524
11874TIP3    H157037   3.117   5.297  15.344 -0.9106 -0.9128  0.1742
11874TIP3    H257038   3.082   5.422  15.266 -0.2989 -0.3986  0.7165
11875TIP3   OH257039   6.004   4.456   0.746 -0.0920  0.0409 -0.0382
11875TIP3    H157040   5.955   4.470   0.665 -2.4420 -1.5949  1.0565
11875TIP3    H257041   5.937   4.451   0.814  1.6151 -1.8178  1.5569
11876TIP3   OH257042   3.602   1.033  11.777  0.0631 -0.2793  0.3279
11876TIP3    H157043   3.540   1.089  11.730  1.1684  1.4535  0.8878
11876TIP3    H257044   3.579   1.044  11.869  0.6736 -0.2746  0.4819
11877TIP3   OH257045   6.786   6.101   2.376 -0.5115 -0.7160  0.3317
11877TIP3    H157046   6.786   6.197   2.375 -0.7137 -0.6999  1.3098
11877TIP3    H257047   6.735   6.077   2.299 -0.9490 -0.0207  0.3944
11878TIP3   OH257048   4.183   0.270   3.362  0.9416 -0.5883 -0.0113
11878TIP3    H157049   4.137   0.344   3.322  0.6784 -0.2983  0.8283
11878TIP3    H257050   4.170   0.198   3.300 -0.2332 -0.3791 -0.0153
11879TIP3   OH257051   0.025   3.172   0.792 -0.2093 -0.5883  0.5777
11879TIP3    H157052   0.111   3.187   0.831  0.4401 -2.8719  0.1360
11879TIP3    H257053   0.027   3.218   0.709 -0.3965  1.5649  1.7404
11880TIP3   OH257054   1.285   2.877   2.517 -0.6112  0.1257  0.2229
11880TIP3    H157055   1.223   2.920   2.458 -0.9446 -1.0868 -0.3210
11880TIP3    H257056   1.331   2.814   2.462  0.1259  0.0331  0.9361
11881TIP3   OH257057   5.701   3.170   5.680  0.0770  0.0170  0.0442
11881TIP3    H157058   5.659   3.140   5.760  0.8501 -2.3641 -0.3992
11881TIP3    H257059   5.778   3.113   5.670  0.4738  0.8349 -1.9243
11882TIP3   OH257060   4.016   1.432   4.514 -0.1373  0.1882 -0.0780
11882TIP3    H157061   4.099   1.474   4.536 -0.2104  0.1634  0.2562
11882TIP3    H257062   3.949   1.492   4.550 -0.3256  1.2316 -2.1082
11883TIP3   OH257063   0.221   3.713   0.178 -0.5918  0.2639  0.0114
11883TIP3    H157064   0.147   3.669   0.220 -0.7523  0.2878 -0.2474
11883TIP3    H257065   0.263   3.762   0.249 -0.4667 -0.2281  0.2827
11884TIP3   OH257066   3.057   3.975  11.495  0.2101 -0.2048  0.5431
11884TIP3    H157067   3.116   4.031  11.546 -1.8973  2.2893  0.3202
11884TIP3    H257068   2.981   3.962  11.551  0.2523 -2.1066  0.1960
11885TIP3   OH257069   2.259   0.422   1.604 -0.9483  0.5644  0.5391
11885TIP3    H157070   2.341   0.375   1.620 -1.1095 -0.0106 -0.2592
11885TIP3    H257071   2.198   0.386   1.669 -0.9022  0.1020  0.3301
11886TIP3   OH257072   3.880   5.627   0.486  0.1134 -0.2513 -0.5949
11886TIP3    H157073   3.913   5.598   0.572 -0.9664 -0.1104 -0.1268
11886TIP3    H257074   3.913   5.561   0.425 -0.4456 -1.2493  0.1596
11887TIP3   OH257075   4.820   5.382  14.892 -0.0977  0.0141 -0.2156
11887TIP3    H157076   4.771   5.336  14.960  1.5448 -1.2903  0.1453
11887TIP3    H257077   4.828   5.471  14.924 -1.7358  0.0974 -0.0224
11888TIP3   OH257078   4.149   5.129   2.335  0.2052  0.0649  0.1210
11888TIP3    H157079   4.167   5.047   2.380  0.0756 -0.0636 -0.0628
11888TIP3    H257080   4.191   5.120   2.249  0.8666  0.4993  0.3960
11889TIP3   OH257081   4.469   6.681  16.081 -0.0207 -0.4892 -0.0862
11889TIP3    H157082   4.561   6.676  16.108 -0.4110 -1.7326  1.0355
11889TIP3    H257083   4.460   6.615  16.012  0.0957  0.1441 -0.7113
11890TIP3   OH257084   3.562   1.053   0.065  0.3099  0.3304  0.5336
11890TIP3    H157085   3.575   1.053   0.160  1.3152 -1.6130  0.4291
11890TIP3    H257086   3.576   1.144   0.039  0.1947  0.8499  2.2270
11891TIP3   OH257087   1.230   1.865  15.494 -0.1717  0.4777  0.1160
11891TIP3    H157088   1.282   1.820  15.427  0.2561 -1.3157  1.6139
11891TIP3    H257089   1.142   1.869  15.457  0.4006  0.9549 -1.2216
11892TIP3   OH257090   0.013   1.694   1.167  0.1066 -0.2053  0.9897
11892TIP3    H157091  -0.036   1.612   1.165  2.3126 -1.5583 -1.9193
11892TIP3    H257092   0.083   1.678   1.231 -0.0829 -0.2188  1.1935
11893TIP3   OH257093   1.335   4.532   4.046  0.0682 -0.6177 -0.2662
11893TIP3    H157094   1.328   4.551   4.140 -1.0953  0.0906 -0.4863
11893TIP3    H257095   1.361   4.616   4.007  2.6720 -1.4208 -0.3472
11894TIP3   OH257096   1.895   0.500  15.047  0.2341 -0.0172  0.2247
11894TIP3    H157097   1.836   0.425  15.041 -0.1638  0.1672  1.8352
11894TIP3    H257098   1.962   0.483  14.980 -1.1407 -0.6561 -0.9967
11895TIP3   OH257099   1.886   1.575   2.311  0.0020  0.0024 -0.6624
11895TIP3    H157100   1.809   1.539   2.356  0.6333 -1.5737 -0.8216
11895TIP3    H257101   1.859   1.579   2.219 -0.3858  0.7878 -0.5151
11896TIP3   OH257102   6.720   1.300   4.758  0.0676 -0.1574 -0.2183
11896TIP3    H157103   6.650   1.268   4.815 -0.1559 -0.3812 -0.6063
11896TIP3    H257104   6.767   1.365   4.810 -0.3716 -0.0779  0.0839
11897TIP3   OH257105   4.467   3.460  14.187 -0.7591 -0.3205  0.2325
11897TIP3    H157106   4.524   3.391  14.154  1.3998  0.3542  2.3745
11897TIP3    H257107   4.417   3.419  14.258  0.7982  0.3876  1.7557
11898TIP3   OH257108   3.432   1.408  15.753  0.0136  0.0160 -0.0510
11898TIP3    H157109   3.492   1.338  15.728  0.1871  0.3014 -0.4451
11898TIP3    H257110   3.351   1.363  15.777  0.8135 -0.4641  1.8143
11899TIP3   OH257111   1.404   6.558   1.676  0.7253 -0.2093 -0.3521
11899TIP3    H157112   1.335   6.601   1.625  0.8111  1.4424  0.8599
11899TIP3    H257113   1.467   6.627   1.693  1.2092 -0.9822  1.0857
11900TIP3   OH257114   2.086   0.984   5.411  0.2517 -0.2211 -0.3511
11900TIP3    H157115   2.157   0.942   5.460 -0.5702 -1.3884 -0.1388
11900TIP3    H257116   2.130   1.026   5.337  1.2348 -0.4277  0.0968
11901TIP3   OH257117   0.639   1.194   2.100 -0.4812 -0.5336  0.5840
11901TIP3    H157118   0.641   1.213   2.194 -0.5598 -1.0705  0.6947
11901TIP3    H257119   0.550   1.218   2.073  0.5178  2.8159 -0.0416
11902TIP3   OH257120   1.445   4.443  16.939  0.1191  0.7683  0.7284
11902TIP3    H157121   1.520   4.502  16.937  0.3950  0.3974  0.0858
11902TIP3    H257122   1.470   4.370  16.883 -0.7888  0.7188  0.3720
11903TIP3   OH257123   3.922   5.135  12.096 -0.6167  0.3664 -0.2016
11903TIP3    H157124   3.949   5.222  12.125  1.3986 -0.5483  0.7537
11903TIP3    H257125   4.002   5.083  12.096 -1.5139 -1.1000 -2.2875
11904TIP3   OH257126   0.133   1.438   1.182  0.1911  0.4576 -0.0030
11904TIP3    H157127   0.132   1.412   1.090 -0.0504 -0.4559  0.2459
11904TIP3    H257128   0.226   1.453   1.202  0.0643  2.4902 -0.8767
11905TIP3   OH257129   3.242   3.712  15.478 -0.2487  0.1380 -0.0394
11905TIP3    H157130   3.254   3.797  15.521  0.2795  1.0504 -1.8965
11905TIP3    H257131   3.195   3.733  15.397  2.7086 -0.8591 -2.0993
11906TIP3   OH257132   4.641   4.465  16.305  0.3871  0.2954  0.0408
11906TIP3    H157133   4.636   4.380  16.348  0.1619  0.7850  0.9982
11906TIP3    H257134   4.633   4.445  16.211 -1.7056 -0.5637  0.3781
11907TIP3   OH257135   5.988   4.989  16.630  0.7582  0.0334 -0.6533
11907TIP3    H157136   6.042   4.937  16.689  1.0518  0.4203 -0.5803
11907TIP3    H257137   5.938   5.047  16.688  0.1057 -0.4595 -0.7044
11908TIP3   OH257138   3.019   2.562  13.221 -0.3249 -0.0783  0.3672
11908TIP3    H157139   3.058   2.527  13.141  0.7531 -0.0957  0.8935
11908TIP3    H257140   2.996   2.652  13.199 -0.4604 -0.2265 -0.1008
11909TIP3   OH257141   5.558   3.309  16.590  0.7433  0.0686 -0.2180
11909TIP3    H157142   5.598   3.222  16.590  0.9568  0.1666 -0.5211
11909TIP3    H257143   5.628   3.368  16.561  0.5153  0.3002 -0.3006
11910TIP3   OH257144   0.360   6.562  12.608  0.0995 -0.1969 -0.2445
11910TIP3    H157145   0.419   6.488  12.619 -2.5613 -2.3461  0.2401
11910TIP3    H257146   0.408   6.623  12.552  2.7711 -1.7945  0.1996
11911TIP3   OH257147   2.808   5.167   6.117 -0.4412 -0.3923 -0.5954
11911TIP3    H157148   2.896   5.133   6.104  0.3200  1.6196 -0.9220
11911TIP3    H257149   2.818   5.262   6.109 -2.4575 -0.0746  0.3967
11912TIP3   OH257150   3.187   3.559  17.145  0.1021  0.4929  0.7990
11912TIP3    H157151   3.129   3.490  17.113  0.6454 -0.3133  1.5582
11912TIP3    H257152   3.145   3.591  17.225  1.2982 -0.9082  2.0081
11913TIP3   OH257153   6.090   5.709   0.668 -0.2487  0.7857 -0.3640
11913TIP3    H157154   6.026   5.652   0.626  1.6021 -2.1873  0.6770
11913TIP3    H257155   6.055   5.726   0.755 -0.3895  0.4814 -0.3602
11914TIP3   OH257156   5.295   0.912   3.172  0.1900 -0.2676  0.7139
11914TIP3    H157157   5.223   0.850   3.159  0.5644 -1.1763  2.7540
11914TIP3    H257158   5.375   0.860   3.158  0.4981  0.9145 -2.3158
11915TIP3   OH257159   2.769   6.093  12.120  0.2549 -0.0862 -0.5177
11915TIP3    H157160   2.688   6.143  12.128 -0.1007 -0.6834 -0.3244
11915TIP3    H257161   2.805   6.120  12.035 -0.4724 -0.2811 -0.9004
11916TIP3   OH257162   6.543   1.402  12.094 -0.1266 -0.9428  0.4335
11916TIP3    H157163   6.606   1.456  12.045 -1.9656  0.8795 -0.0095
11916TIP3    H257164   6.512   1.338  12.030 -0.3673 -0.4274  0.0319
11917TIP3   OH257165   1.699   3.185   0.560 -0.2522 -0.2708 -0.0050
11917TIP3    H157166   1.784   3.197   0.602 -0.8077  2.4112  0.3997
11917TIP3    H257167   1.642   3.153   0.629 -0.2544  0.5991  0.3974
11918TIP3   OH257168   6.773   5.249  13.597 -0.4069 -0.1149 -0.2518
11918TIP3    H157169   6.751   5.177  13.538  1.2702  0.6871 -1.9180
11918TIP3    H257170   6.866   5.236  13.616 -0.6152  0.3960  1.1793
11919TIP3   OH257171   2.369   6.237  16.692  0.1453  0.2242 -0.0103
11919TIP3    H157172   2.293   6.183  16.711 -0.7743  1.6840  0.4636
11919TIP3    H257173   2.443   6.185  16.724 -0.8222 -0.2337  1.5501
11920TIP3   OH257174   0.124   6.781   2.715  0.0730  0.0875  0.1458
11920TIP3    H157175   0.161   6.744   2.795  0.4268  1.5188  0.6625
11920TIP3    H257176   0.042   6.822   2.744  0.0107  0.2709 -0.2932
11921TIP3   OH257177   1.489   2.263   3.265  0.2587 -0.1960 -0.6334
11921TIP3    H157178   1.476   2.329   3.196 -0.1628  1.8402  1.3211
11921TIP3    H257179   1.502   2.181   3.218  1.1991  1.3445 -3.1799
11922TIP3   OH257180   2.591   3.712   4.966  0.3428 -0.1858 -0.6619
11922TIP3    H157181   2.633   3.678   4.886  1.5796 -0.9639  0.3020
11922TIP3    H257182   2.527   3.645   4.990 -0.4469  0.3247 -1.3227
11923TIP3   OH257183   4.229   4.859  16.313  0.2936  0.7844 -0.0292
11923TIP3    H157184   4.246   4.848  16.407 -1.1900  0.7703  0.2354
11923TIP3    H257185   4.310   4.899  16.279  2.0666 -2.0357  0.6985
11924TIP3   OH257186   4.601   2.741  12.665 -0.2125 -0.2919 -0.2802
11924TIP3    H157187   4.656   2.814  12.635 -0.2679 -0.0191  0.2847
11924TIP3    H257188   4.511   2.773  12.654 -0.2096  0.5370  1.9966
11925TIP3   OH257189   2.462   1.459   3.583 -0.0325  0.1822 -0.2187
11925TIP3    H157190   2.507   1.540   3.608  0.6928 -0.4522  0.5724
11925TIP3    H257191   2.459   1.461   3.488 -3.2583  2.8810 -0.1723
11926TIP3   OH257192   5.932   3.484  13.789  0.2631  0.2039  0.6250
11926TIP3    H157193   5.874   3.419  13.750  0.1683  1.0604 -0.7066
11926TIP3    H257194   5.982   3.436  13.855 -2.5210 -0.3634  2.3910
11927TIP3   OH257195   3.583   2.200  16.317  0.0685 -0.3085 -0.0803
11927TIP3    H157196   3.533   2.280  16.324 -0.4490 -0.7598  1.4675
11927TIP3    H257197   3.669   2.222  16.353  0.3568 -0.0808 -0.9009
11928TIP3   OH257198   3.507   4.730  15.497 -0.6302  0.0863 -0.4546
11928TIP3    H157199   3.457   4.802  15.458  0.4649  0.4175 -1.2627
11928TIP3    H257200   3.523   4.670  15.424  1.4968  0.7490 -0.5694
11929TIP3   OH257201   2.638   4.613   0.388 -0.5598  0.2843  0.2860
11929TIP3    H157202   2.723   4.638   0.424 -1.3375 -0.0493  2.4271
11929TIP3    H257203   2.600   4.557   0.455 -1.6286 -1.2328 -1.5421
11930TIP3   OH257204   1.396   1.896   2.768  0.3751 -0.5617 -0.3223
11930TIP3    H157205   1.343   1.975   2.780 -0.7509 -1.0451 -1.8597
11930TIP3    H257206   1.372   1.839   2.842  0.1881 -0.0022  0.0493
11931TIP3   OH257207   1.740   3.689   0.894  0.0824  0.2693 -0.1585
11931TIP3    H157208   1.649   3.676   0.870 -0.1749  1.3003  0.2390
11931TIP3    H257209   1.790   3.645   0.825 -0.6492  2.6003 -2.2466
11932TIP3   OH257210   2.361   2.100  14.684  0.1225 -0.6024  0.0985
11932TIP3    H157211   2.343   2.160  14.611  1.1475 -1.6132 -1.0216
11932TIP3    H257212   2.329   2.146  14.761  0.8054  1.3734 -0.7444
11933TIP3   OH257213   2.042   5.791   1.547 -0.2579 -0.2253 -0.0084
11933TIP3    H157214   2.104   5.858   1.576 -1.4362  0.1763  1.6880
11933TIP3    H257215   2.083   5.751   1.470  1.7975  0.4693  0.6947
11934TIP3   OH257216   2.205   2.083  16.054 -0.5283 -0.0943  0.2842
11934TIP3    H157217   2.226   2.171  16.088 -3.0386  0.2049  1.1638
11934TIP3    H257218   2.172   2.036  16.131  0.0919 -1.5820 -0.3551
11935TIP3   OH257219   5.980   2.729  15.987 -0.3662  0.3327  0.0128
11935TIP3    H157220   5.959   2.687  15.904 -0.4570 -0.4681  0.4268
11935TIP3    H257221   5.942   2.671  16.053 -1.4010  1.6347  0.5642
11936TIP3   OH257222   4.351   3.196  13.905  0.1138  0.0218 -0.0224
11936TIP3    H157223   4.286   3.204  13.975 -0.9253 -0.9240 -0.8529
11936TIP3    H257224   4.397   3.115  13.925 -0.8410 -0.7745 -0.9324
11937TIP3   OH257225   3.088   1.031  16.459  0.2498 -0.3474 -0.0539
11937TIP3    H157226   3.088   1.086  16.538 -1.6718 -0.8698  0.3624
11937TIP3    H257227   3.153   0.963  16.477  0.9568  0.4408  0.4181
11938TIP3   OH257228   4.762   1.877  11.802  0.2792 -0.2176 -0.2036
11938TIP3    H157229   4.709   1.798  11.814  0.1443 -0.0689  0.1821
11938TIP3    H257230   4.813   1.860  11.722  0.0172 -0.5642 -0.2991
11939TIP3   OH257231   1.628   1.542   2.972  0.2254  0.0766 -0.3678
11939TIP3    H157232   1.596   1.480   2.905 -1.5576 -0.6839  1.1331
11939TIP3    H257233   1.643   1.623   2.924 -1.8600 -0.2111 -1.5647
11940TIP3   OH257234   3.278   2.793  15.286  0.0680  0.0584  0.0640
11940TIP3    H157235   3.284   2.843  15.205 -0.6239 -0.3795 -0.2569
11940TIP3    H257236   3.358   2.739  15.287  1.5491  2.1904  1.1158
11941TIP3   OH257237   2.158   2.785   4.388  0.2597 -0.4477 -0.5497
11941TIP3    H157238   2.182   2.858   4.446  0.1871  0.6591 -1.9001
11941TIP3    H257239   2.062   2.781   4.394  0.0003  1.5086 -2.7482
11942TIP3   OH257240   5.730   4.650  16.169 -0.2712 -0.0341  0.3215
11942TIP3    H157241   5.740   4.699  16.251 -0.6362 -0.1770  0.4528
11942TIP3    H257242   5.682   4.571  16.195  2.0803 -1.4440  0.4934
11943TIP3   OH257243   5.312   0.832   2.783  0.4524  0.2076 -0.0245
11943TIP3    H157244   5.217   0.818   2.784  0.5407 -0.4172  0.1988
11943TIP3    H257245   5.324   0.921   2.816 -0.2252  1.3495 -2.6821
11944TIP3   OH257246   4.129   2.140  14.844 -0.0830 -0.4565 -0.0805
11944TIP3    H157247   4.133   2.112  14.935  3.6576 -2.5016 -0.7766
11944TIP3    H257248   4.172   2.225  14.842  0.9835 -0.9928 -0.1227
11945TIP3   OH257249   3.434   2.699   5.117  0.5479 -0.1366 -0.3376
11945TIP3    H157250   3.478   2.660   5.193  1.2445  1.7835  0.2780
11945TIP3    H257251   3.440   2.633   5.049  0.1565 -1.7947  1.1970
11946TIP3   OH257252   0.666   0.578   5.031 -0.1593  0.0713 -0.1699
11946TIP3    H157253   0.716   0.551   4.954  0.6902 -0.2296  0.4714
11946TIP3    H257254   0.731   0.579   5.102 -0.6307  1.7131  0.2583
11947TIP3   OH257255   2.163   2.211   2.435 -0.4012  0.5256  0.5114
11947TIP3    H157256   2.256   2.230   2.449 -0.2718 -0.8832  1.6761
11947TIP3    H257257   2.133   2.281   2.377  1.5121  0.6733 -0.3304
11948TIP3   OH257258   5.788   5.993   3.817  0.0250 -0.2185  0.0905
11948TIP3    H157259   5.738   5.934   3.873 -0.6717 -1.0020 -1.3400
11948TIP3    H257260   5.814   6.065   3.875 -2.5404  0.0896  0.8983
11949TIP3   OH257261   0.314   3.581   1.084  0.0645  0.4607 -0.8616
11949TIP3    H157262   0.258   3.575   1.161  1.1627  1.2590  0.0207
11949TIP3    H257263   0.306   3.673   1.056  0.4337  0.4154 -1.1136
11950TIP3   OH257264   5.772   3.978   0.403 -0.2503 -0.3052 -0.4065
11950TIP3    H157265   5.786   4.024   0.486  1.8108 -0.1717 -0.8222
11950TIP3    H257266   5.730   4.042   0.346 -1.0606 -0.1965  0.2919
11951TIP3   OH257267   2.487   4.244   3.791  0.6388  0.6609 -0.4282
11951TIP3    H157268   2.491   4.209   3.702  2.2625 -0.1816 -0.0303
11951TIP3    H257269   2.564   4.208   3.835 -0.6039  0.3892  1.5744
11952TIP3   OH257270   3.401   0.963  12.883  0.3782 -0.0603  0.1075
11952TIP3    H157271   3.330   1.027  12.895 -0.7354 -1.8746  3.9032
11952TIP3    H257272   3.465   0.985  12.952  0.1355 -2.7717  1.2439
11953TIP3   OH257273   0.527   5.474   5.161 -0.6214  1.0267  0.2907
11953TIP3    H157274   0.493   5.512   5.242 -1.7488  0.0604  0.2920
11953TIP3    H257275   0.453   5.476   5.101 -0.5248 -0.5256  0.0853
11954TIP3   OH257276   2.203   6.665   5.463  0.3259 -0.0125  0.4726
11954TIP3    H157277   2.157   6.740   5.427  2.7208  1.0140 -0.5714
11954TIP3    H257278   2.257   6.701   5.533  1.1500 -0.8182  0.2670
11955TIP3   OH257279   5.702   2.354  12.145  0.4243  0.2146  0.0987
11955TIP3    H157280   5.777   2.396  12.103  1.0140 -1.2744 -0.3722
11955TIP3    H257281   5.681   2.411  12.220  0.8520  1.6167 -0.8329
11956TIP3   OH257282   4.416   6.361  12.142 -0.1081  0.0805  0.0480
11956TIP3    H157283   4.328   6.339  12.172 -0.4835 -1.0358 -1.8241
11956TIP3    H257284   4.472   6.291  12.176  0.0473  0.6265  0.9713
11957TIP3   OH257285   6.668   5.999   2.147 -0.6602 -0.2985 -0.1347
11957TIP3    H157286   6.640   5.922   2.197 -0.3809 -1.2005 -1.3425
11957TIP3    H257287   6.587   6.036   2.112 -0.7123 -0.6461 -0.3900
11958TIP3   OH257288   1.242   4.742  11.821 -0.1122  0.1934 -0.0740
11958TIP3    H157289   1.317   4.723  11.878 -0.4081  0.8519  0.5527
11958TIP3    H257290   1.189   4.663  11.823  0.4976 -0.2291 -0.4143
11959TIP3   OH257291   5.132   1.154   0.915 -0.2789 -0.3194 -0.4657
11959TIP3    H157292   5.044   1.115   0.922 -0.5407  0.4906  0.9055
11959TIP3    H257293   5.183   1.110   0.982  0.4040 -0.8784 -1.3521
11960TIP3   OH257294   1.787   2.356  13.645 -0.0146  0.2064 -1.0533
11960TIP3    H157295   1.769   2.265  13.667  0.0249  0.2866 -0.6919
11960TIP3    H257296   1.874   2.354  13.603 -0.2837 -0.0018 -1.6074
11961TIP3   OH257297   5.317   3.835   2.369  0.1405  0.0430  0.4822
11961TIP3    H157298   5.355   3.765   2.422  0.4880  0.0536  0.2509
11961TIP3    H257299   5.393   3.887   2.341 -0.0800  0.2891  0.3379
11962TIP3   OH257300   4.322   1.819  15.522 -0.4392  1.0730 -0.3654
11962TIP3    H157301   4.362   1.807  15.436 -2.7478  1.3132 -1.4991
11962TIP3    H257302   4.397   1.833  15.581  1.2858 -0.9892 -1.9757
11963TIP3   OH257303   5.891   3.357   5.251  0.3977  0.5462  0.2072
11963TIP3    H157304   5.966   3.379   5.196  0.1615 -0.4277 -0.5309
11963TIP3    H257305   5.839   3.437   5.255 -0.0067  0.3883 -1.6743
11964TIP3   OH257306   5.503   2.105   0.693  0.6017 -0.1789 -0.2693
11964TIP3    H157307   5.467   2.106   0.781  2.2804 -1.9461  0.4870
11964TIP3    H257308   5.429   2.126   0.636 -0.6915  0.1298  1.4832
11965TIP3   OH257309   5.199   1.346   5.524  0.1368 -0.2012  0.0813
11965TIP3    H157310   5.138   1.387   5.585  0.5024 -1.6498  1.4425
11965TIP3    H257311   5.269   1.411   5.514 -0.5258  0.5511  0.2316
11966TIP3   OH257312   4.149   5.928  16.865 -0.8866 -0.0857 -0.1339
11966TIP3    H157313   4.162   5.839  16.834 -0.1018  0.3741 -1.1795
11966TIP3    H257314   4.160   5.922  16.960  0.2025 -0.9396 -0.2945
11967TIP3   OH257315   4.682   2.452   3.843 -0.7721 -0.5689 -0.2396
11967TIP3    H157316   4.642   2.538   3.830  1.8784  0.6857 -0.6258
11967TIP3    H257317   4.635   2.414   3.917 -4.0935 -0.1614 -2.0460
11968TIP3   OH257318   5.723   6.133   3.161  0.2235 -0.1543 -0.3562
11968TIP3    H157319   5.733   6.038   3.152 -0.0479 -0.3513  1.3862
11968TIP3    H257320   5.674   6.158   3.082 -1.2637 -1.7192  0.0241
11969TIP3   OH257321   0.472   0.223   2.434 -0.0295  0.0163  0.0479
11969TIP3    H157322   0.420   0.239   2.512  1.0745  0.7680  0.6370
11969TIP3    H257323   0.561   0.252   2.457  0.8714 -2.0622 -0.6277
11970TIP3   OH257324   6.692   4.998   2.884  0.5495  0.1926 -0.0874
11970TIP3    H157325   6.755   4.950   2.939  2.2646  1.3195 -1.0242
11970TIP3    H257326   6.717   4.975   2.795 -1.9531 -1.2789 -0.4348
11971TIP3   OH257327   3.756   4.133  14.139  0.2668 -0.4425 -0.5796
11971TIP3    H157328   3.668   4.135  14.176  0.0425 -1.9706 -0.9868
11971TIP3    H257329   3.813   4.120  14.215 -0.0095 -1.3231 -0.5201
11972TIP3   OH257330   0.901   0.329   4.639 -0.2957  0.5024  0.0646
11972TIP3    H157331   0.846   0.382   4.696  0.9311 -0.6101  2.3383
11972TIP3    H257332   0.988   0.368   4.647  0.0995 -0.3089 -0.2502
11973TIP3   OH257333   0.613   2.807  15.203  0.4653  0.4802  0.2392
11973TIP3    H157334   0.520   2.829  15.199  0.2488 -0.7256 -2.5123
11973TIP3    H257335   0.658   2.886  15.173  0.3075  0.8310  0.9147
11974TIP3   OH257336   0.793   5.139   3.044  0.3121  0.0555 -0.9580
11974TIP3    H157337   0.840   5.143   3.127 -0.4933 -0.4024 -0.4778
11974TIP3    H257338   0.746   5.222   3.039 -0.9407 -0.6077 -0.1831
11975TIP3   OH257339   3.036   5.997   2.903  0.1818  0.5712  0.1319
11975TIP3    H157340   2.975   6.066   2.928 -0.5443  0.5929 -1.6494
11975TIP3    H257341   3.030   5.992   2.808 -0.0102 -2.1573  0.2246
11976TIP3   OH257342   1.889   4.999   5.934  0.2742  0.0864  0.6339
11976TIP3    H157343   1.980   5.013   5.959 -0.1520  0.7210  1.8406
11976TIP3    H257344   1.839   5.005   6.015 -0.7894 -0.8584  0.0746
11977TIP3   OH257345   3.662   0.211  15.575  0.3549  0.4080 -0.5394
11977TIP3    H157346   3.756   0.216  15.594 -0.1376 -0.4521  2.4061
11977TIP3    H257347   3.625   0.291  15.615 -0.5408 -0.7860  1.1039
11978TIP3   OH257348   0.234   4.840  14.751 -0.1800  0.7562 -0.2831
11978TIP3    H157349   0.185   4.922  14.758  2.2485  2.5229 -3.3331
11978TIP3    H257350   0.319   4.859  14.791 -0.7676 -1.3721  2.1397
11979TIP3   OH257351   1.105   6.133  16.315  0.1860  0.2752  0.2943
11979TIP3    H157352   1.180   6.157  16.261  0.1186 -0.7582 -0.2658
11979TIP3    H257353   1.056   6.215  16.326 -0.8437  0.1202 -2.8092
11980TIP3   OH257354   1.702   3.036   3.752 -0.3806  0.3512  0.3832
11980TIP3    H157355   1.700   3.016   3.658 -0.4203  0.4281  0.3670
11980TIP3    H257356   1.613   3.019   3.783 -0.1326 -0.5535  0.5966
11981TIP3   OH257357   6.632   3.954   0.228 -0.3982  0.3362 -0.4789
11981TIP3    H157358   6.612   3.976   0.319  1.1279  1.2010 -0.3290
11981TIP3    H257359   6.615   3.861   0.221 -0.1715  0.1986  0.7981
11982TIP3   OH257360   0.589   0.335   0.929  0.1728  0.1858  0.3382
11982TIP3    H157361   0.681   0.332   0.902  0.2050 -0.2333  0.4990
11982TIP3    H257362   0.592   0.349   1.024  0.1020 -2.3202  0.7416
11983TIP3   OH257363   6.560   6.666   3.026  0.2924 -0.0432 -0.2635
11983TIP3    H157364   6.482   6.720   3.013 -0.1186 -0.5606  0.0370
11983TIP3    H257365   6.624   6.701   2.964 -0.2146  0.3212 -0.5856
11984TIP3   OH257366   3.051   5.582   6.123 -0.1159 -0.7367 -0.3544
11984TIP3    H157367   3.020   5.660   6.168 -1.8319 -0.8312 -1.3093
11984TIP3    H257368   3.113   5.542   6.183 -1.6008 -0.3398  1.4963
11985TIP3   OH257369   4.497   5.962   6.027  0.0485 -0.2661  0.4144
11985TIP3    H157370   4.491   5.921   6.113 -1.2007 -1.7550 -0.3542
11985TIP3    H257371   4.420   6.019   6.021 -2.4162 -3.5574 -1.3786
11986TIP3   OH257372   1.352   3.760   4.834 -0.1854  0.5336  0.3158
11986TIP3    H157373   1.276   3.716   4.874 -0.3495  1.0927  0.6226
11986TIP3    H257374   1.375   3.704   4.759 -2.1378  1.4018 -0.9695
11987TIP3   OH257375   5.958   1.849   4.003 -0.0961  0.4517 -0.2575
11987TIP3    H157376   5.878   1.828   4.051 -0.4816  0.4761 -0.8902
11987TIP3    H257377   6.029   1.826   4.063 -0.5552 -0.6009 -0.1162
11988TIP3   OH257378   1.925   1.755   5.076 -0.0354  0.2542  0.0615
11988TIP3    H157379   1.901   1.835   5.030 -3.9534  0.1988  1.8004
11988TIP3    H257380   1.900   1.685   5.017 -2.0144  0.2648  0.8218
11989TIP3   OH257381   5.788   4.179   4.521  0.1348 -0.2093  0.6298
11989TIP3    H157382   5.855   4.247   4.521 -1.1861  1.1324  0.3939
11989TIP3    H257383   5.711   4.221   4.481 -1.2830 -1.2514  2.1826
11990TIP3   OH257384   4.583   6.353  16.517  0.6697 -0.1774 -0.3783
11990TIP3    H157385   4.504   6.399  16.490  0.5069 -0.1861  0.0765
11990TIP3    H257386   4.602   6.387  16.604  1.4636  0.2074 -0.6896
11991TIP3   OH257387   5.748   5.015   0.550  0.3528  0.3555  0.5345
11991TIP3    H157388   5.830   4.991   0.594  0.5881  1.6924  0.8197
11991TIP3    H257389   5.711   4.931   0.524  1.0360 -0.3649  1.7991
11992TIP3   OH257390   4.726   4.184   3.266  0.1790 -0.0087  0.3817
11992TIP3    H157391   4.690   4.255   3.214 -0.0610 -0.3188  0.1254
11992TIP3    H257392   4.741   4.223   3.352 -0.4744  0.2079  0.4014
11993TIP3   OH257393   4.604   4.227  11.028  0.0075  0.0585  0.1984
11993TIP3    H157394   4.577   4.148  11.075  0.8759 -0.6428 -0.4743
11993TIP3    H257395   4.575   4.213  10.938  1.1935 -0.0179 -0.1809
11994TIP3   OH257396   2.518   0.814  17.147 -0.2308  0.2678 -0.3527
11994TIP3    H157397   2.480   0.821  17.059 -2.9896  2.7300  0.9165
11994TIP3    H257398   2.582   0.885  17.151 -0.2895  0.3185 -0.3085
11995TIP3   OH257399   6.583   0.090   3.731 -0.1625  0.3124  0.5742
11995TIP3    H157400   6.492   0.118   3.720 -0.0402  0.3389 -0.4954
11995TIP3    H257401   6.624   0.163   3.778 -0.2570  1.1780 -0.6487
11996TIP3   OH257402   0.224   6.446   6.291 -1.0128  0.2982 -0.5350
11996TIP3    H157403   0.296   6.490   6.246 -0.4764  1.8931  1.7773
11996TIP3    H257404   0.196   6.508   6.358 -1.4152 -2.1791  1.6789
11997TIP3   OH257405   4.737   6.167   5.855  0.9232  0.1105  0.0554
11997TIP3    H157406   4.648   6.202   5.847  1.0977  0.4159 -0.6055
11997TIP3    H257407   4.750   6.156   5.949 -0.0174 -0.4647  0.1343
11998TIP3   OH257408   4.120   3.726  17.072 -0.6227  0.0875  0.1061
11998TIP3    H157409   4.094   3.775  16.994 -0.4241  0.3015  0.1729
11998TIP3    H257410   4.119   3.790  17.142  0.5368  0.2119  0.0283
11999TIP3   OH257411   0.810   5.981   0.232  0.1128 -0.1628 -0.7982
11999TIP3    H157412   0.811   6.077   0.230  0.5489 -0.1761 -1.2992
11999TIP3    H257413   0.812   5.959   0.325  1.2613  0.3034 -0.7060
12000TIP3   OH257414   2.331   4.210  13.955  0.4240  0.2581  0.3664
12000TIP3    H157415   2.402   4.156  13.987 -0.4823  1.2346  4.2648
12000TIP3    H257416   2.251   4.164  13.980 -0.3523  0.8785 -0.8701
12001TIP3   OH257417   0.798   5.068  13.672 -0.0178 -0.0594  0.1076
12001TIP3    H157418   0.788   5.162  13.680 -1.2627 -0.1706 -0.0412
12001TIP3    H257419   0.829   5.055  13.582  0.6328  0.2370  0.2885
12002TIP3   OH257420   3.180   2.524  11.671 -0.0141 -0.3500  0.3136
12002TIP3    H157421   3.244   2.588  11.640  0.0636 -1.5271 -2.0625
12002TIP3    H257422   3.099   2.573  11.680  0.2743  0.3050 -0.5590
12003TIP3   OH257423   3.745   4.666   2.233 -0.2022 -0.1381 -0.2844
12003TIP3    H157424   3.777   4.683   2.145 -0.6518  1.7850 -0.0877
12003TIP3    H257425   3.823   4.664   2.288 -0.1956  2.0033 -0.2061
12004TIP3   OH257426   1.266   0.462   3.847 -0.1972 -0.7437  0.5787
12004TIP3    H157427   1.188   0.420   3.883 -1.2698 -0.1473 -1.0302
12004TIP3    H257428   1.235   0.546   3.815  1.0943 -0.5576 -0.1880
12005TIP3   OH257429   2.852   1.379  15.315 -0.7862  0.3471 -0.0953
12005TIP3    H157430   2.918   1.447  15.327  0.3622 -0.9096  0.8089
12005TIP3    H257431   2.825   1.356  15.404 -1.6777  0.1031 -0.4231
12006TIP3   OH257432   2.681   4.204   0.121  0.1295 -0.1923  0.2832
12006TIP3    H157433   2.692   4.118   0.083  0.8912 -0.7641  1.7300
12006TIP3    H257434   2.599   4.199   0.170 -0.1537  0.1072 -0.1576
12007TIP3   OH257435   4.034   5.968   3.956  0.0609  0.2329 -0.6570
12007TIP3    H157436   4.030   6.060   3.929  1.2048  0.2269 -0.8537
12007TIP3    H257437   3.962   5.926   3.909 -0.4856  1.0359 -0.5428
12008TIP3   OH257438   5.945   2.450   4.937 -0.0554  0.5709 -0.3958
12008TIP3    H157439   6.016   2.396   4.902  2.0846  2.2561  1.1493
12008TIP3    H257440   5.928   2.413   5.024 -0.5157  0.6477 -0.4566
12009TIP3   OH257441   2.917   6.705   5.683  0.3510 -0.1640  0.4015
12009TIP3    H157442   2.961   6.699   5.768 -0.9145  1.8735  1.2602
12009TIP3    H257443   2.841   6.647   5.691  0.5218 -0.3765  0.4745
12010TIP3   OH257444   6.301   6.039  16.341  0.1041  0.1219 -0.6208
12010TIP3    H157445   6.345   6.115  16.302  0.6963  0.3834  0.5597
12010TIP3    H257446   6.344   5.963  16.302  1.0798  0.3807 -0.0590
12011TIP3   OH257447   1.065   5.085   5.224 -0.1319  0.4199 -0.0162
12011TIP3    H157448   1.090   5.102   5.314 -0.4748  1.8368 -0.1806
12011TIP3    H257449   0.975   5.116   5.217 -0.0352  0.5359 -0.9072
12012TIP3   OH257450   5.999   1.658  16.992  0.0874  0.0337  0.1211
12012TIP3    H157451   6.025   1.659  16.899 -1.0580  0.4531 -0.2013
12012TIP3    H257452   6.079   1.681  17.039  0.9310 -1.1389 -0.7041
12013TIP3   OH257453   3.902   1.248  16.344 -0.4294 -0.0165 -0.6171
12013TIP3    H157454   3.933   1.222  16.430  3.1699 -2.5002 -2.5288
12013TIP3    H257455   3.904   1.343  16.345  0.0842 -0.0203  1.8430
12014TIP3   OH257456   0.790   6.042   5.074  0.2175  0.0590  0.0057
12014TIP3    H157457   0.822   6.002   5.155  1.4729  0.1464 -0.4295
12014TIP3    H257458   0.767   6.132   5.099  1.9106  0.5181 -0.0003
12015TIP3   OH257459   2.871   0.932   4.765 -0.4299 -1.0421  0.2444
12015TIP3    H157460   2.809   0.994   4.726  0.7525  0.1476  0.2146
12015TIP3    H257461   2.831   0.908   4.848 -0.5702  0.3219  0.5860
12016TIP3   OH257462   6.433   2.920  14.780 -0.2288  0.7653 -0.4633
12016TIP3    H157463   6.355   2.950  14.828 -1.7229 -0.7503 -1.8739
12016TIP3    H257464   6.493   2.889  14.848 -1.1040  1.3857  0.6014
12017TIP3   OH257465   1.115   3.968   2.527  0.2525 -0.3157  0.1494
12017TIP3    H157466   1.094   4.058   2.552 -2.2444 -0.4030 -1.4464
12017TIP3    H257467   1.051   3.914   2.573  0.3237 -1.0849 -0.6261
12018TIP3   OH257468   2.866   4.914  13.847 -0.2001  0.0349 -0.1494
12018TIP3    H157469   2.901   4.829  13.874  0.1459 -0.4833 -2.1198
12018TIP3    H257470   2.788   4.893  13.796  0.0956  0.8582 -0.9664
12019TIP3   OH257471   5.371   5.720  13.192 -0.2347  0.0584  0.4396
12019TIP3    H157472   5.322   5.648  13.231  0.3278 -0.0769  0.9011
12019TIP3    H257473   5.458   5.714  13.231 -0.3061  1.2379  0.8113
12020TIP3   OH257474   0.281   6.380   3.009  0.2066 -0.0333  0.6623
12020TIP3    H157475   0.207   6.421   3.052 -1.3146 -0.0145 -1.8554
12020TIP3    H257476   0.253   6.289   2.994  0.7765 -0.1000 -0.0630
12021TIP3   OH257477   6.405   3.457   3.151 -0.9214 -0.2098 -0.1985
12021TIP3    H157478   6.462   3.475   3.226  0.0359  0.1514 -0.9982
12021TIP3    H257479   6.324   3.504   3.171 -0.3792  0.5724  0.2321
12022TIP3   OH257480   2.306   3.066   5.372 -0.0765 -0.6649 -0.4334
12022TIP3    H157481   2.397   3.080   5.344 -0.5401  1.5285 -0.9060
12022TIP3    H257482   2.292   2.971   5.361  2.0424 -0.9734 -0.6612
12023TIP3   OH257483   2.310   2.075   5.590  0.0449  0.0701  0.3310
12023TIP3    H157484   2.239   2.137   5.576 -0.5374 -0.5369  0.5555
12023TIP3    H257485   2.359   2.110   5.665  0.1947  0.6688 -0.0425
12024TIP3   OH257486   4.756   3.612   2.039 -0.2348  0.5383 -0.3594
12024TIP3    H157487   4.800   3.608   1.954  2.2205  1.0930  0.8204
12024TIP3    H257488   4.794   3.690   2.081 -3.5151  1.9486  0.1332
12025TIP3   OH257489   3.906   5.694  12.210 -0.0635  0.2668 -0.2325
12025TIP3    H157490   3.914   5.654  12.124 -2.0961 -1.1629  0.2208
12025TIP3    H257491   3.950   5.779  12.201 -0.5614  0.2925 -2.7807
12026TIP3   OH257492   6.563   5.102   1.809  0.3157  0.0545  0.5659
12026TIP3    H157493   6.598   5.085   1.896 -1.3555 -0.1318  1.2179
12026TIP3    H257494   6.469   5.086   1.817 -0.0783  1.4845 -0.8925
12027TIP3   OH257495   1.812   4.855  14.719 -0.3443 -0.1020  0.4536
12027TIP3    H157496   1.721   4.838  14.745 -0.5576 -1.0706 -0.8445
12027TIP3    H257497   1.813   4.948  14.697 -0.8693  0.0605  1.0883
12028TIP3   OH257498   1.366   1.128  14.188  0.5496  0.2035  0.0622
12028TIP3    H157499   1.286   1.109  14.237  0.0983 -1.0880 -1.1241
12028TIP3    H257500   1.436   1.090  14.241  0.1995 -0.0733  0.3331
12029TIP3   OH257501   4.374   5.342  13.384 -0.1786 -0.2378  0.2015
12029TIP3    H157502   4.449   5.283  13.391  0.5409  0.5846 -0.5350
12029TIP3    H257503   4.363   5.376  13.473 -0.2871 -1.1030  0.5196
12030TIP3   OH257504   0.974   4.256   3.218  0.2518 -0.3873 -0.0022
12030TIP3    H157505   1.042   4.320   3.197 -0.2703 -0.3046 -1.4671
12030TIP3    H257506   0.994   4.181   3.163 -1.9942  0.3937 -1.9750
12031TIP3   OH257507   5.691   3.896   5.956 -0.2848 -0.4889 -0.6153
12031TIP3    H157508   5.709   3.958   5.886 -0.2495 -0.3320 -0.4673
12031TIP3    H257509   5.641   3.826   5.914  0.6657 -0.9276 -1.0295
12032TIP3   OH257510   1.052   6.204   5.660 -0.2686 -0.5787  0.2199
12032TIP3    H157511   1.045   6.226   5.753 -0.3552 -0.5468  0.2061
12032TIP3    H257512   1.146   6.198   5.644 -0.2236  0.4929  0.0636
12033TIP3   OH257513   4.120   6.279   0.885  0.2670  0.5953  0.8560
12033TIP3    H157514   4.079   6.364   0.900  1.5791  1.1429  1.4160
12033TIP3    H257515   4.136   6.277   0.790  0.4561  1.0790  0.8763
12034TIP3   OH257516   1.753   3.135  11.942 -0.2184  0.2125  0.6402
12034TIP3    H157517   1.745   3.225  11.913 -2.7066  0.0465  0.7013
12034TIP3    H257518   1.687   3.126  12.011 -1.9259 -2.3881 -1.2607
12035TIP3   OH257519   2.781   6.270   4.243 -0.6761  0.0923  0.7097
12035TIP3    H157520   2.767   6.269   4.337 -0.1947  2.0912  0.8254
12035TIP3    H257521   2.829   6.351   4.227 -0.5051 -0.3701 -1.2180
12036TIP3   OH257522   3.551   0.933   6.587 -0.3022  0.5328  0.2036
12036TIP3    H157523   3.465   0.906   6.553 -0.6563 -0.5505  1.9080
12036TIP3    H257524   3.542   1.027   6.603 -1.9136  0.0424  2.4221
12037TIP3   OH257525   3.619   0.077  15.824 -0.2774  0.3161 -0.3205
12037TIP3    H157526   3.555   0.094  15.893  0.1021 -2.2347  0.7343
12037TIP3    H257527   3.570   0.081  15.743 -1.4122  0.1867  0.3515
12038TIP3   OH257528   3.855   4.061   5.847 -0.4877  0.1311  0.6865
12038TIP3    H157529   3.881   4.032   5.934  1.3848 -1.1023 -0.2429
12038TIP3    H257530   3.935   4.095   5.807 -0.8367 -1.1939 -1.2512
12039TIP3   OH257531   3.600   6.083   3.319  0.0004  0.6536 -0.0073
12039TIP3    H157532   3.579   6.169   3.282 -1.3492  0.1212 -0.5052
12039TIP3    H257533   3.679   6.098   3.371 -0.9014  2.4685  0.8947
12040TIP3   OH257534   5.820   6.260   5.713 -0.9219  0.0494 -0.2181
12040TIP3    H157535   5.805   6.281   5.805 -0.1960  0.3054 -0.1577
12040TIP3    H257536   5.811   6.165   5.708  1.4402 -0.2268  0.5681
12041TIP3   OH257537   5.730   4.840  16.686  0.3644 -0.7813  0.1207
12041TIP3    H157538   5.803   4.859  16.627 -0.0154  1.0443  0.2366
12041TIP3    H257539   5.756   4.758  16.729  1.4815 -1.1458 -1.2033
12042TIP3   OH257540   6.567   1.392   4.004 -0.7454  0.3219 -0.1070
12042TIP3    H157541   6.639   1.390   4.067 -0.0397  0.4093 -0.9053
12042TIP3    H257542   6.490   1.412   4.057 -0.1099  0.7121  0.6824
12043TIP3   OH257543   4.941   1.168  14.324 -0.0267  0.1588 -0.6769
12043TIP3    H157544   4.872   1.177  14.389  0.2201  1.0693 -0.5329
12043TIP3    H257545   4.935   1.248  14.272  0.5433 -0.0232 -1.0278
12044TIP3   OH257546   0.120   6.354   1.034  0.4515 -0.1039  0.3421
12044TIP3    H157547   0.147   6.309   1.114  1.0329 -0.6443 -0.1535
12044TIP3    H257548   0.157   6.301   0.963  1.1813  1.1770 -0.2532
12045TIP3   OH257549   3.562   2.308   4.216 -0.3690  0.1083  0.6732
12045TIP3    H157550   3.605   2.342   4.295 -1.1070  1.7734  0.3916
12045TIP3    H257551   3.479   2.273   4.247  0.2259 -1.1121  0.9107
12046TIP3   OH257552   3.481   5.798   5.636 -0.5028 -0.1504 -0.3255
12046TIP3    H157553   3.519   5.867   5.582  1.0889  0.0067  0.9657
12046TIP3    H257554   3.413   5.842   5.688  1.9996  0.9662  2.1188
12047TIP3   OH257555   6.547   5.052   5.425  0.3590 -0.4480 -0.6074
12047TIP3    H157556   6.543   4.965   5.385 -0.7441 -0.7209  0.0710
12047TIP3    H257557   6.605   5.041   5.501 -0.8216 -0.9143  0.2398
12048TIP3   OH257558   4.057   5.635  11.026  0.4466 -0.3053 -0.3137
12048TIP3    H157559   4.105   5.649  10.945  0.4860  0.5784 -0.1456
12048TIP3    H257560   4.027   5.723  11.052 -0.6970 -0.7583 -0.0734
12049TIP3   OH257561   2.990   3.998   4.170 -0.1159  0.5016 -0.0505
12049TIP3    H157562   3.084   4.009   4.184  0.0866  0.1764 -1.0606
12049TIP3    H257563   2.954   4.086   4.178  0.3966  0.7525 -0.4597
12050TIP3   OH257564   5.845   4.939  15.077 -0.1757  0.6088  0.0892
12050TIP3    H157565   5.759   4.900  15.092  0.4478 -0.5705  0.7074
12050TIP3    H257566   5.869   4.978  15.161 -1.0828  2.9612 -0.7024
12051TIP3   OH257567   5.171   1.147   2.022 -0.2138  0.3841 -0.3507
12051TIP3    H157568   5.160   1.078   1.956 -3.6585  1.1315 -0.6841
12051TIP3    H257569   5.191   1.226   1.971 -2.3720  0.8561 -0.5148
12052TIP3   OH257570   4.814   4.988   6.067  0.0874 -0.1678  0.6843
12052TIP3    H157571   4.860   4.948   5.993  2.4678  0.0823  1.9778
12052TIP3    H257572   4.884   5.022   6.123 -1.7419  1.6385  1.9428
12053TIP3   OH257573   6.281   1.977  16.908  0.0930  0.5281 -0.0935
12053TIP3    H157574   6.347   1.955  16.842 -0.7268  0.4476 -0.8966
12053TIP3    H257575   6.286   1.907  16.972 -0.6933 -0.6318 -1.2744
12054TIP3   OH257576   4.988   4.366   3.591  0.0200  0.5364  0.0671
12054TIP3    H157577   5.068   4.315   3.603 -1.1201 -1.4583 -0.6484
12054TIP3    H257578   4.995   4.400   3.501 -0.0965  0.0780 -0.1146
12055TIP3   OH257579   4.577   4.419  10.347  0.1042  0.4007  0.5774
12055TIP3    H157580   4.645   4.395  10.410  0.3551  1.8144  0.8746
12055TIP3    H257581   4.626   4.445  10.268 -0.0946  1.0790  0.6713
12056TIP3   OH257582   5.012   3.685  17.093  0.5661  0.4476  0.4617
12056TIP3    H157583   5.064   3.758  17.128  1.7913  0.0155 -0.4339
12056TIP3    H257584   4.987   3.714  17.005  1.1802 -0.2635  0.0500
12057TIP3   OH257585   4.466   6.157  12.903 -0.4647  1.0944  0.3838
12057TIP3    H157586   4.438   6.097  12.834 -1.3206  1.1845  0.6459
12057TIP3    H257587   4.479   6.241  12.858 -1.0899  1.1698  0.3474
12058TIP3   OH257588   6.139   2.290   0.549  0.0227  0.2011 -0.0938
12058TIP3    H157589   6.063   2.266   0.603  0.7669 -0.0625  0.8342
12058TIP3    H257590   6.150   2.217   0.489 -0.6592  0.3904 -0.4634
12059TIP3   OH257591   4.962   4.141  11.214 -0.3218  0.3326 -0.6111
12059TIP3    H157592   5.031   4.083  11.245 -0.5271  0.2697 -0.2698
12059TIP3    H257593   5.007   4.204  11.158 -0.0651 -0.0149 -0.7965
12060TIP3   OH257594   4.026   5.565  13.352  0.9533  0.0219 -0.3104
12060TIP3    H157595   3.937   5.588  13.326  1.1145 -1.1032 -1.9085
12060TIP3    H257596   4.016   5.486  13.405  0.9669  0.1512 -0.1140
12061TIP3   OH257597   0.733   2.926  12.060  0.4190  0.2397  0.2821
12061TIP3    H157598   0.659   2.917  12.000  0.9350  0.6905 -0.4204
12061TIP3    H257599   0.705   2.994  12.121  0.9477  1.6853 -1.0549
12062TIP3   OH257600   5.222   2.460   4.393  0.0948 -0.6977 -0.1910
12062TIP3    H157601   5.269   2.506   4.323 -1.2423  0.2680 -0.4748
12062TIP3    H257602   5.212   2.525   4.462 -0.0962 -1.1457  0.2059
12063TIP3   OH257603   1.208   3.630   5.737 -0.2712 -0.6049  0.7261
12063TIP3    H157604   1.148   3.580   5.682 -0.5007  1.1653 -0.6887
12063TIP3    H257605   1.153   3.673   5.802 -0.2885 -0.6724  0.7562
12064TIP3   OH257606   6.082   3.022  16.882  0.6041  0.0045  0.0797
12064TIP3    H157607   6.170   3.008  16.919  1.1480 -2.4480 -2.0366
12064TIP3    H257608   6.030   2.949  16.916 -0.2152  0.5592  0.0326
12065TIP3   OH257609   3.892   3.110   3.068 -0.5044  0.6379  0.1265
12065TIP3    H157610   3.833   3.166   3.018 -1.4832 -0.7847 -0.3582
12065TIP3    H257611   3.958   3.081   3.005 -0.3939  0.7076  0.2107
12066TIP3   OH257612   4.987   3.381  14.178 -0.8715 -0.3771 -0.0185
12066TIP3    H157613   4.906   3.346  14.215 -0.3129 -0.0047  1.5847
12066TIP3    H257614   5.056   3.322  14.209 -0.4015 -0.1496 -0.6084
12067TIP3   OH257615   2.279   0.808   3.767  0.4986 -0.0759  0.1973
12067TIP3    H157616   2.336   0.827   3.842 -0.8883  0.1145  1.2257
12067TIP3    H257617   2.269   0.892   3.723 -1.7621  0.6735  2.0119
12068TIP3   OH257618   4.441   5.753  14.036 -0.2793 -0.2265  0.1682
12068TIP3    H157619   4.453   5.822  14.101  1.2625 -1.4402  1.1828
12068TIP3    H257620   4.447   5.798  13.952  1.9342  0.7156  0.8000
12069TIP3   OH257621   2.163   2.830   4.872 -0.2876  0.0673 -0.3240
12069TIP3    H157622   2.095   2.840   4.805 -2.0386  3.0895  1.8208
12069TIP3    H257623   2.122   2.775   4.939  0.4323 -0.5037 -0.3456
12070TIP3   OH257624   2.141   3.374  14.373 -0.5474  0.4277  0.2854
12070TIP3    H157625   2.098   3.289  14.361  2.4409 -1.1884  0.6518
12070TIP3    H257626   2.087   3.419  14.438 -2.0322 -1.2737  0.2626
12071TIP3   OH257627   1.449   4.010  16.912  0.1897 -0.4591 -0.4750
12071TIP3    H157628   1.415   4.023  17.001  2.5338  1.4667  0.1917
12071TIP3    H257629   1.499   3.928  16.917 -0.3250 -0.7607 -0.2235
12072TIP3   OH257630   2.428   3.089  15.236  0.1562 -0.6274  0.1344
12072TIP3    H157631   2.402   3.016  15.291  0.3120 -0.0119  1.0312
12072TIP3    H257632   2.424   3.166  15.294 -1.4365  0.3086 -1.1529
12073TIP3   OH257633   6.251   0.675  16.297 -0.9107 -0.0013  0.5176
12073TIP3    H157634   6.185   0.727  16.250 -1.5993 -0.9610  0.4065
12073TIP3    H257635   6.224   0.679  16.388 -0.4133  0.6229  0.6478
12074TIP3   OH257636   2.738   1.786   0.415  0.2284 -0.2950 -0.0128
12074TIP3    H157637   2.732   1.817   0.324  2.4962  0.7958  0.1627
12074TIP3    H257638   2.719   1.863   0.468 -1.0442 -0.9215  0.4516
12075TIP3   OH257639   4.303   6.680  15.019 -0.0614 -0.5449  0.0849
12075TIP3    H157640   4.357   6.665  14.941 -0.5775 -0.3363 -0.3191
12075TIP3    H257641   4.225   6.627  15.004  0.7083 -2.0744  1.3924
12076TIP3   OH257642   5.670   5.605  13.067  0.4080 -0.3810 -0.5396
12076TIP3    H157643   5.669   5.645  13.154 -1.9233  0.6305 -0.9776
12076TIP3    H257644   5.699   5.515  13.083  1.2979  0.1628  1.0866
12077TIP3   OH257645   4.170   6.713   2.873 -0.2897  0.0230  0.5063
12077TIP3    H157646   4.182   6.623   2.844 -2.9592 -0.6005  1.1944
12077TIP3    H257647   4.128   6.705   2.959  0.5822  1.8983  1.1271
12078TIP3   OH257648   1.299   5.986   5.433 -0.5454  0.5466 -0.1878
12078TIP3    H157649   1.333   5.908   5.478 -0.1637  0.2515 -0.9685
12078TIP3    H257650   1.293   5.959   5.341 -0.4933  1.4174 -0.4493
12079TIP3   OH257651   0.236   6.655   2.917  0.0041  0.0954  0.0788
12079TIP3    H157652   0.317   6.706   2.925 -0.2893  0.5642  0.0707
12079TIP3    H257653   0.266   6.565   2.904  0.5292  0.0004  1.7876
12080TIP3   OH257654   2.304   4.975   1.733 -0.1644 -0.6633  0.0260
12080TIP3    H157655   2.325   4.929   1.814  0.8338 -0.0300  0.1267
12080TIP3    H257656   2.387   4.981   1.686  0.2680  3.1961  1.1233
12081TIP3   OH257657   6.553   0.764  15.486 -0.1475  0.2868  0.0070
12081TIP3    H157658   6.626   0.824  15.468 -0.1172  0.7207  1.5394
12081TIP3    H257659   6.545   0.764  15.581 -1.9613  0.0114 -0.1385
12082TIP3   OH257660   0.267   1.794  17.168  0.6936  0.2502 -0.1114
12082TIP3    H157661   0.317   1.798  17.249  0.6596  0.9235 -0.1258
12082TIP3    H257662   0.176   1.787  17.197  0.7921 -1.1067 -0.0841
12083TIP3   OH257663   5.013   1.563   4.077  0.0531 -0.0846  0.2485
12083TIP3    H157664   5.100   1.579   4.116 -0.5695  0.7359  1.3318
12083TIP3    H257665   5.001   1.468   4.086  1.3020 -0.3721 -0.9198
12084TIP3   OH257666   0.692   0.832  11.923 -0.1678 -0.3212 -0.1261
12084TIP3    H157667   0.703   0.925  11.941 -1.4020 -0.3826  1.0272
12084TIP3    H257668   0.778   0.803  11.891 -0.1054  1.4416 -1.5800
12085TIP3   OH257669   3.547   0.675   4.028 -0.2875 -0.5960  0.1612
12085TIP3    H157670   3.532   0.585   4.057 -3.6125 -0.6193 -1.4242
12085TIP3    H257671   3.505   0.680   3.943  1.6625  1.9349 -0.7041
12086TIP3   OH257672   3.744   2.087   2.371  0.7221 -0.3589  0.0744
12086TIP3    H157673   3.821   2.075   2.426  1.0514  0.0135 -0.3032
12086TIP3    H257674   3.761   2.168   2.322 -0.8822  0.9583  1.6273
12087TIP3   OH257675   1.325   4.386  12.744 -0.4761 -0.2778  0.0136
12087TIP3    H157676   1.411   4.348  12.761 -0.2780  0.8609  1.6070
12087TIP3    H257677   1.336   4.434  12.661  0.5768  0.3479  0.5101
12088TIP3   OH257678   3.530   3.266   2.449  0.5547  0.4919  0.0945
12088TIP3    H157679   3.590   3.237   2.518  2.7976  0.8885 -1.6574
12088TIP3    H257680   3.475   3.189   2.433  0.5801  0.1075  1.6751
12089TIP3   OH257681   3.555   3.723   0.427 -0.2951  0.3286 -0.1801
12089TIP3    H157682   3.561   3.818   0.419  0.5022  0.2400 -0.7210
12089TIP3    H257683   3.575   3.704   0.518 -4.2648  0.9645  0.9193
12090TIP3   OH257684   0.658   6.488  15.193 -0.0494 -0.0751 -0.3750
12090TIP3    H157685   0.730   6.489  15.256 -0.9209 -0.9404  0.6528
12090TIP3    H257686   0.596   6.425  15.228  0.9929 -3.2427 -3.8511
12091TIP3   OH257687   0.947   3.556  15.558  0.4779  0.6227 -0.1519
12091TIP3    H157688   0.964   3.631  15.500 -0.5392  1.4602  0.6136
12091TIP3    H257689   1.003   3.486  15.524  1.2315  1.6485 -1.0488
12092TIP3   OH257690   0.700   2.318   2.946 -0.0428 -0.4170 -0.3161
12092TIP3    H157691   0.744   2.341   2.864  1.0146  1.3070  0.6935
12092TIP3    H257692   0.617   2.366   2.943 -0.1855 -0.6857 -0.5756
12093TIP3   OH257693   2.556   5.102   5.746  0.2159  0.2164 -0.4993
12093TIP3    H157694   2.576   5.183   5.697 -0.4105 -0.0726 -1.2422
12093TIP3    H257695   2.591   5.118   5.834  2.4673  0.2701 -1.3762
12094TIP3   OH257696   2.431   6.012  11.948  0.4651  0.3634 -0.5007
12094TIP3    H157697   2.478   6.074  12.003  0.9387  1.8280 -2.4844
12094TIP3    H257698   2.498   5.951  11.917  0.3790  0.1608 -0.2912
12095TIP3   OH257699   1.781   1.785   0.003  0.7505  0.0790 -0.5569
12095TIP3    H157700   1.756   1.842   0.075  0.0106  0.6622 -1.2714
12095TIP3    H257701   1.873   1.766   0.019  0.6624  0.4103  0.3981
12096TIP3   OH257702   6.761   3.715  15.645  0.9765  0.0918 -0.4961
12096TIP3    H157703   6.821   3.749  15.578  0.5638 -0.1931 -1.0155
12096TIP3    H257704   6.687   3.680  15.595 -0.8138  2.7253  0.1953
12097TIP3   OH257705   4.360   6.454  16.409 -0.4098 -0.3436 -0.5017
12097TIP3    H157706   4.307   6.380  16.379 -0.6155 -0.1151 -0.7116
12097TIP3    H257707   4.328   6.528  16.358 -1.6210  0.3073  1.1537
12098TIP3   OH257708   2.824   3.312   5.310  0.2145  0.4013 -0.0295
12098TIP3    H157709   2.816   3.261   5.390  0.4610  0.5141  0.0680
12098TIP3    H257710   2.913   3.295   5.279 -0.1586 -0.3171 -0.7404
12099TIP3   OH257711   0.201   5.741  12.222  0.1717 -0.0607  0.0874
12099TIP3    H157712   0.129   5.723  12.162  0.0366  1.2588 -0.1508
12099TIP3    H257713   0.164   5.796  12.290  0.5597 -0.7575  0.8824
12100TIP3   OH257714   2.650   3.451   3.770 -1.0763  0.2904 -0.1996
12100TIP3    H157715   2.600   3.398   3.831  0.3458 -0.7472  0.0683
12100TIP3    H257716   2.620   3.423   3.683 -0.1066 -1.2000 -0.0689
12101TIP3   OH257717   1.068   0.121   0.458  0.3520 -0.7661 -0.2412
12101TIP3    H157718   1.017   0.095   0.382  1.7889 -0.5839 -1.2757
12101TIP3    H257719   1.118   0.198   0.429  0.2263 -0.1393  1.1513
12102TIP3   OH257720   3.717   6.666  14.502 -0.2060 -0.3414 -0.4883
12102TIP3    H157721   3.757   6.598  14.447 -2.5224 -1.6458 -0.6066
12102TIP3    H257722   3.784   6.687  14.567  0.9171 -2.0014 -1.0889
12103TIP3   OH257723   0.012   3.900   5.673 -0.4608  0.2248  0.0043
12103TIP3    H157724   0.097   3.873   5.709  1.9359  4.4330 -2.0695
12103TIP3    H257725   0.012   3.866   5.583 -1.6467 -0.9638  0.4376
12104TIP3   OH257726   6.207   5.315   0.926  0.0975 -0.0474 -0.4674
12104TIP3    H157727   6.118   5.306   0.961  0.5220 -1.6495  0.2401
12104TIP3    H257728   6.242   5.392   0.970 -1.0175  0.7522 -0.9428
12105TIP3   OH257729   4.788   5.961  16.688  0.2894 -0.5781  0.1466
12105TIP3    H157730   4.798   5.885  16.745  0.7242 -0.2711  0.4896
12105TIP3    H257731   4.727   6.018  16.734  0.0071 -0.6981 -0.0828
12106TIP3   OH257732   6.293   2.088  14.255  0.0153  0.2595 -0.0575
12106TIP3    H157733   6.286   2.103  14.349  0.9630 -0.7399  0.1789
12106TIP3    H257734   6.380   2.119  14.231  1.3158 -3.0077  0.1230
12107TIP3   OH257735   3.029   1.570   4.607  0.6056 -0.0428  0.9506
12107TIP3    H157736   3.018   1.663   4.586  1.9450 -0.5924 -2.4554
12107TIP3    H257737   3.110   1.566   4.658 -0.2790  0.7856  2.4727
12108TIP3   OH257738   5.845   5.525   6.049 -0.0536  0.0455  0.2378
12108TIP3    H157739   5.921   5.582   6.049  0.2306 -0.3235 -0.8037
12108TIP3    H257740   5.781   5.571   6.103  0.1491  1.3912 -0.6323
12109TIP3   OH257741   5.482   0.097   1.591 -0.1427  0.4001 -0.5009
12109TIP3    H157742   5.419   0.143   1.645 -0.3691  0.7416 -1.0477
12109TIP3    H257743   5.436   0.020   1.559 -0.0798  0.3132 -0.3794
12110TIP3   OH257744   0.645   2.147  11.887  0.3541 -0.5124  0.4340
12110TIP3    H157745   0.580   2.198  11.936  1.7309 -0.3678  2.1743
12110TIP3    H257746   0.606   2.060  11.879 -1.3327  0.3675 -1.1825
12111TIP3   OH257747   5.648   2.812   0.815  0.4775  0.0615 -0.1273
12111TIP3    H157748   5.588   2.770   0.877  1.4076  1.9212  2.1077
12111TIP3    H257749   5.724   2.837   0.868  1.9192  0.4579 -2.3119
12112TIP3   OH257750   2.000   5.153  11.785  0.2437 -0.6121 -0.3680
12112TIP3    H157751   2.068   5.155  11.852 -0.0072 -0.6693 -0.1134
12112TIP3    H257752   2.031   5.215  11.719 -0.5584  1.1144  0.8334
12113TIP3   OH257753   4.903   1.995   4.726 -0.3265 -0.2334  0.3208
12113TIP3    H157754   4.914   2.067   4.664 -1.2695  0.9558  1.5117
12113TIP3    H257755   4.833   2.024   4.785 -0.0713 -1.7273  1.3901
12114TIP3   OH257756   2.211   4.925  16.822  0.5622 -0.2485  0.2789
12114TIP3    H157757   2.231   4.845  16.774  0.3363  0.7306 -1.4863
12114TIP3    H257758   2.115   4.929  16.822  0.6026  1.1918 -1.6538
12115TIP3   OH257759   1.430   6.323  12.054  0.3669  0.2802 -0.0730
12115TIP3    H157760   1.347   6.282  12.030  1.0271  0.1187 -2.1225
12115TIP3    H257761   1.496   6.256  12.037  0.8352 -0.1082  2.9015
12116TIP3   OH257762   4.927   2.560   4.167  0.5027  0.2007 -0.1402
12116TIP3    H157763   4.946   2.566   4.073  1.1943  0.6298  0.0245
12116TIP3    H257764   4.853   2.499   4.173  0.3019  0.3584 -0.9828
12117TIP3   OH257765   3.283   3.730  16.925 -0.0519  0.7573  0.2360
12117TIP3    H157766   3.293   3.655  16.866  1.1063  0.9007  0.2478
12117TIP3    H257767   3.251   3.691  17.007 -1.0919  0.4903 -0.2834
12118TIP3   OH257768   4.578   2.554  11.187 -0.1707  0.2594  0.1261
12118TIP3    H157769   4.641   2.488  11.214 -1.2212 -0.4965  0.7774
12118TIP3    H257770   4.496   2.526  11.228 -0.7861  1.5545 -0.2147
12119TIP3   OH257771   4.036   5.909  14.552  0.1952 -0.0977 -0.5263
12119TIP3    H157772   3.971   5.840  14.560 -1.8227  1.7782 -0.0390
12119TIP3    H257773   4.118   5.870  14.584 -1.5751 -1.2984  2.7271
12120TIP3   OH257774   4.689   3.179  17.031  0.6616 -0.6367  0.2910
12120TIP3    H157775   4.744   3.195  17.108 -0.4814 -0.0390  0.9873
12120TIP3    H257776   4.602   3.209  17.057 -0.1898 -2.3643 -0.5064
12121TIP3   OH257777   4.927   5.379  13.750  0.5384 -0.0613 -0.0848
12121TIP3    H157778   5.014   5.406  13.721  0.8907 -1.0282  0.0440
12121TIP3    H257779   4.891   5.456  13.794  1.6836  0.0751  0.6391
12122TIP3   OH257780   5.490   1.726  15.021 -0.4396 -0.1401 -0.0971
12122TIP3    H157781   5.466   1.702  14.932 -1.0395  2.0474 -0.5535
12122TIP3    H257782   5.584   1.711  15.025 -0.6469 -1.7009 -0.6069
12123TIP3   OH257783   0.758   6.177  16.392  0.1424 -0.0227 -0.0375
12123TIP3    H157784   0.805   6.234  16.332 -0.0591 -1.7308 -1.8854
12123TIP3    H257785   0.755   6.226  16.474 -1.5936  3.3893 -2.0167
12124TIP3   OH257786   0.068   4.538  12.615 -0.0675 -0.3623  0.4554
12124TIP3    H157787   0.045   4.466  12.556  0.8567 -1.4235  1.3609
12124TIP3    H257788  -0.015   4.584  12.629 -0.8134 -1.6599  0.4008
12125TIP3   OH257789   2.206   2.079  11.894 -0.4014 -0.0008  0.2832
12125TIP3    H157790   2.111   2.062  11.897 -0.3567 -0.5357 -0.8828
12125TIP3    H257791   2.221   2.147  11.960 -1.6034  0.1143  0.4462
12126TIP3   OH257792   0.210   3.642  14.492  0.2620  0.1911 -0.3392
12126TIP3    H157793   0.131   3.693  14.474 -0.0936  0.3186  1.4989
12126TIP3    H257794   0.282   3.705  14.487 -0.1071  0.7669  1.2506
12127TIP3   OH257795   2.490   3.746  12.645 -0.0953  0.0474 -0.0739
12127TIP3    H157796   2.503   3.697  12.564  3.4229 -0.4260  0.7057
12127TIP3    H257797   2.469   3.835  12.616 -0.2040 -0.4292 -1.4813
12128TIP3   OH257798   0.360   5.406   5.853 -0.1704 -0.8130 -0.0153
12128TIP3    H157799   0.416   5.348   5.802 -0.7888 -0.6721 -0.8738
12128TIP3    H257800   0.419   5.473   5.888  0.4478 -1.6120  0.4644
12129TIP3   OH257801   4.237   4.577  15.356  0.2573  0.5662 -0.4353
12129TIP3    H157802   4.193   4.521  15.292 -0.4907  0.9620 -0.2701
12129TIP3    H257803   4.170   4.598  15.420  0.7455  0.9937 -0.0569
12130TIP3   OH257804   0.100   0.581   2.396 -0.2535  0.1068 -0.1768
12130TIP3    H157805   0.170   0.531   2.353 -0.3493 -0.4858  0.3558
12130TIP3    H257806   0.146   0.650   2.443 -0.0862  0.2376 -0.5299
12131TIP3   OH257807   2.787   1.970   1.051  0.2649  0.1529  0.1145
12131TIP3    H157808   2.837   1.894   1.021  0.0615  0.1272 -0.1626
12131TIP3    H257809   2.852   2.040   1.058  1.0373 -0.8324  3.3984
12132TIP3   OH257810   0.877   0.125  16.299 -0.2967  0.4033  0.3801
12132TIP3    H157811   0.882   0.048  16.357  0.1641 -0.0006 -0.1928
12132TIP3    H257812   0.968   0.148  16.283 -0.4298  0.6961  0.0512
12133TIP3   OH257813   3.753   2.957   0.431 -0.3417  0.1691 -0.1184
12133TIP3    H157814   3.807   2.882   0.458  0.0701  0.5082 -0.0012
12133TIP3    H257815   3.700   2.923   0.359 -0.3787 -0.3256  0.1395
12134TIP3   OH257816   1.081   4.076   2.993  0.5947  0.6321 -0.8325
12134TIP3    H157817   1.031   4.042   2.918  2.8105 -1.8451 -1.2671
12134TIP3    H257818   1.144   4.137   2.954 -0.1977  1.5958 -0.6185
12135TIP3   OH257819   6.389   6.278  14.226  0.1439  0.5274  0.0098
12135TIP3    H157820   6.410   6.360  14.272  1.3704 -0.4289  1.1830
12135TIP3    H257821   6.316   6.241  14.276 -0.2708  0.7976 -0.3944
12136TIP3   OH257822   6.372   5.874   4.180 -0.1738 -0.1454 -0.3833
12136TIP3    H157823   6.466   5.857   4.178  0.1213  1.1195  1.5921
12136TIP3    H257824   6.335   5.796   4.221 -0.0577 -0.8665 -1.6285
12137TIP3   OH257825   2.662   6.724  12.297 -0.0215 -0.0880 -0.2055
12137TIP3    H157826   2.685   6.761  12.212 -0.1947  0.5996  0.0435
12137TIP3    H257827   2.727   6.655  12.312  0.6266  0.4663 -0.4368
12138TIP3   OH257828   1.353   2.380  15.868 -0.0522  0.8009 -0.1575
12138TIP3    H157829   1.326   2.334  15.789 -1.5571  1.6265 -0.1265
12138TIP3    H257830   1.352   2.473  15.844  1.2299  0.9584  0.3144
12139TIP3   OH257831   0.225   3.836  16.223  0.3609  1.0570  0.2589
12139TIP3    H157832   0.304   3.882  16.252  0.7842  0.3662  0.2312
12139TIP3    H257833   0.253   3.790  16.144  0.1665  0.1130  0.7365
12140TIP3   OH257834   6.280   5.914   5.785  0.0433  0.0656  0.0210
12140TIP3    H157835   6.231   5.957   5.855 -2.3344  0.9268 -2.0701
12140TIP3    H257836   6.342   5.857   5.830 -1.0055  1.0399  2.8102
12141TIP3   OH257837   4.338   0.671  16.058  0.3656 -0.1896  0.1072
12141TIP3    H157838   4.347   0.626  16.142 -0.1615  1.2790  0.9846
12141TIP3    H257839   4.243   0.686  16.050  0.5520  0.9218 -0.0619
12142TIP3   OH257840   0.261   1.802  15.555  0.1749 -0.1995 -0.1028
12142TIP3    H157841   0.197   1.833  15.619 -0.2536 -0.9810 -0.1392
12142TIP3    H257842   0.332   1.866  15.558  0.1410 -0.2119  1.1208
12143TIP3   OH257843   4.171   2.892   2.095  0.2850 -0.0150 -0.4134
12143TIP3    H157844   4.224   2.839   2.154 -1.3156 -0.5531  0.5642
12143TIP3    H257845   4.233   2.925   2.030  2.1104  0.7236  1.6541
12144TIP3   OH257846   3.833   1.935   0.768 -0.5374  0.4129 -0.1551
12144TIP3    H157847   3.749   1.913   0.728  0.3762 -1.4677 -1.0634
12144TIP3    H257848   3.860   2.015   0.723 -0.5273 -0.5118 -1.8378
12145TIP3   OH257849   2.108   3.159   6.019  0.3636 -0.5389  0.1624
12145TIP3    H157850   2.051   3.085   6.039 -1.8919  1.4531  1.4823
12145TIP3    H257851   2.140   3.189   6.104  1.5134 -0.1998 -0.3777
12146TIP3   OH257852   3.535   3.375  16.060 -0.1379  0.3282 -0.2884
12146TIP3    H157853   3.600   3.330  16.005  1.0290  1.6977 -0.0470
12146TIP3    H257854   3.523   3.316  16.134  0.6607 -0.0415 -0.4442
12147TIP3   OH257855   0.174   6.109  14.866  0.3319  0.1405  0.5551
12147TIP3    H157856   0.152   6.018  14.847  1.1087  0.6875 -3.5655
12147TIP3    H257857   0.269   6.114  14.853  0.0551  1.8839 -1.1500
12148TIP3   OH257858   2.571   5.740  12.522 -0.4089  0.1036  0.4820
12148TIP3    H157859   2.565   5.828  12.486  1.0254 -0.2570 -0.6566
12148TIP3    H257860   2.648   5.742  12.578 -1.4125  0.0630  1.8823
12149TIP3   OH257861   1.224   1.635  16.075 -0.4416 -0.0496 -0.2287
12149TIP3    H157862   1.167   1.613  16.001 -1.1508  0.8232  0.0509
12149TIP3    H257863   1.304   1.669  16.033 -0.5678 -0.2083 -0.6041
12150TIP3   OH257864   2.694   5.046   4.751  0.1560 -0.5765 -0.1830
12150TIP3    H157865   2.601   5.053   4.773  0.8105  1.1469  2.1267
12150TIP3    H257866   2.703   5.095   4.670 -0.5810  1.1382  0.7408
12151TIP3   OH257867   1.754   2.025  16.615 -0.3036 -0.0190 -0.8134
12151TIP3    H157868   1.665   2.016  16.648  0.4156 -1.4732  0.8248
12151TIP3    H257869   1.808   1.979  16.679  1.6482  0.9475 -1.7097
12152TIP3   OH257870   5.576   5.665   4.473 -0.0343 -0.5441 -0.5915
12152TIP3    H157871   5.533   5.675   4.557 -1.5996  0.6271 -1.5115
12152TIP3    H257872   5.531   5.592   4.431 -1.0064  0.5433 -1.4675
12153TIP3   OH257873   5.427   2.256  16.452  0.3889 -0.2696 -0.1081
12153TIP3    H157874   5.424   2.318  16.525  1.7516 -1.8168  1.3197
12153TIP3    H257875   5.379   2.180  16.484  0.3351 -0.6724 -1.1351
12154TIP3   OH257876   1.281   6.584   5.353 -0.4005 -0.0294  0.3101
12154TIP3    H157877   1.232   6.525   5.411  0.9047 -0.4953  0.9466
12154TIP3    H257878   1.373   6.569   5.374  0.1653 -0.8245 -2.4611
12155TIP3   OH257879   6.115   2.856  13.060 -0.2057  0.2475  0.2070
12155TIP3    H157880   6.148   2.866  13.149  0.9109  2.0309 -0.3820
12155TIP3    H257881   6.047   2.789  13.067  1.5335 -1.3921  1.9606
12156TIP3   OH257882   5.403   6.292  15.287  0.6266  0.1011 -0.1607
12156TIP3    H157883   5.318   6.252  15.305  0.8673 -0.1186  0.4843
12156TIP3    H257884   5.450   6.225  15.236  1.2878 -0.7259  1.5157
12157TIP3   OH257885   4.012   1.003  16.229 -0.0370  0.2942  0.2996
12157TIP3    H157886   4.092   1.047  16.200 -0.3699  0.3120 -0.5924
12157TIP3    H257887   3.964   1.069  16.278  0.8763  0.0502  1.5792
12158TIP3   OH257888   4.777   0.523  14.562  0.2575 -0.3974 -0.2414
12158TIP3    H157889   4.780   0.427  14.571  2.2390 -0.3613 -0.2793
12158TIP3    H257890   4.836   0.555  14.630 -1.3154  0.8637  0.5463
12159TIP3   OH257891   6.550   6.083   1.837  0.0571 -0.7795 -0.1744
12159TIP3    H157892   6.538   6.000   1.883 -1.1516 -0.0381  0.8446
12159TIP3    H257893   6.469   6.094   1.786  0.1091 -0.0912 -0.1048
12160TIP3   OH257894   6.759   5.307  14.083  0.2663 -0.0404  0.2997
12160TIP3    H157895   6.727   5.223  14.049 -0.1750  0.1510  0.2371
12160TIP3    H257896   6.825   5.335  14.020 -1.0254  0.6350 -0.7677
12161TIP3   OH257897   2.409   2.953   0.412  0.1573  0.0338 -0.2587
12161TIP3    H157898   2.327   2.998   0.434 -0.3749 -0.5926 -0.9582
12161TIP3    H257899   2.435   2.990   0.328  1.2639  1.1380  0.5449
12162TIP3   OH257900   2.209   3.778   0.244 -0.3115  0.4589  0.2768
12162TIP3    H157901   2.186   3.771   0.151 -3.3070 -2.0929  1.1016
12162TIP3    H257902   2.283   3.718   0.254 -0.2811  0.3775 -0.3857
12163TIP3   OH257903   4.394   2.952  12.585 -0.1241  0.1697  0.3050
12163TIP3    H157904   4.305   2.987  12.594 -0.0529  0.3346  0.3755
12163TIP3    H257905   4.451   3.021  12.619 -0.0826 -0.6665  1.9924
12164TIP3   OH257906   1.897   4.796   3.033  0.6640  0.5192  0.0531
12164TIP3    H157907   1.859   4.749   3.108 -0.6598  1.4340 -0.0165
12164TIP3    H257908   1.946   4.729   2.985  1.6548 -0.0404  1.8153
12165TIP3   OH257909   2.625   3.404   6.313 -0.2113  0.0287  0.0900
12165TIP3    H157910   2.622   3.500   6.314  1.8141  0.1176  2.2481
12165TIP3    H257911   2.539   3.376   6.343 -0.3558  1.1975  0.7864
12166TIP3   OH257912   2.638   3.040   4.926  0.1695 -0.4537  0.1503
12166TIP3    H157913   2.652   3.132   4.907 -0.1703 -0.3684  0.3144
12166TIP3    H257914   2.696   3.022   5.001 -0.8759 -0.0074  1.0731
12167TIP3   OH257915   1.652   3.515  13.854 -0.0457  0.1604  0.2569
12167TIP3    H157916   1.633   3.532  13.946  0.7850  0.4240  0.3861
12167TIP3    H257917   1.591   3.446  13.829  0.0463 -0.2403  1.1304
12168TIP3   OH257918   1.688   0.665  11.681 -0.5535  0.2764 -0.1178
12168TIP3    H157919   1.659   0.580  11.646  2.8789  0.2053 -3.0668
12168TIP3    H257920   1.616   0.725  11.658 -0.6771 -0.8193 -2.8928
12169TIP3   OH257921   1.658   5.860   4.630  0.0418 -0.2514 -0.3179
12169TIP3    H157922   1.596   5.806   4.680  0.7619  0.3341  1.2655
12169TIP3    H257923   1.702   5.798   4.572 -0.7640 -0.9792 -0.1652
12170TIP3   OH257924   0.528   0.815  15.810 -0.1778 -0.2336 -0.2910
12170TIP3    H157925   0.546   0.907  15.828 -0.9872 -0.2734  0.7722
12170TIP3    H257926   0.614   0.776  15.795  0.4784  0.0283  2.5043
12171TIP3   OH257927   5.825   6.742  12.814 -0.0120 -0.4769 -0.4503
12171TIP3    H157928   5.917   6.742  12.839 -0.2694  1.5842  0.5911
12171TIP3    H257929   5.798   6.650  12.822  1.9012 -1.0687 -0.6141
12172TIP3   OH257930   1.366   3.701   0.239  0.0494  0.1934  0.0753
12172TIP3    H157931   1.452   3.660   0.251 -0.3829 -0.2554  1.7556
12172TIP3    H257932   1.375   3.787   0.280 -0.3387  0.0773  0.4117
12173TIP3   OH257933   6.369   0.509   1.506  0.0543  0.1511  0.7524
12173TIP3    H157934   6.323   0.425   1.512  0.7773 -0.2649  0.4271
12173TIP3    H257935   6.325   0.564   1.571 -0.0664 -0.6482  1.3603
12174TIP3   OH257936   6.700   3.933  16.979  1.1280 -0.6671 -0.7848
12174TIP3    H157937   6.652   3.981  17.048  1.0092 -1.6746 -0.1622
12174TIP3    H257938   6.719   4.000  16.913 -0.0590  0.0054 -0.4682
12175TIP3   OH257939   2.271   2.773  15.998  0.0674  0.4409 -0.3914
12175TIP3    H157940   2.305   2.835  16.062  0.1562  0.4777 -0.4728
12175TIP3    H257941   2.247   2.827  15.923 -0.0920  0.4043 -0.3662
12176TIP3   OH257942   3.437   5.683  17.201  0.2676 -0.0816 -0.4307
12176TIP3    H157943   3.384   5.607  17.224 -0.7879  0.3608 -1.3469
12176TIP3    H257944   3.427   5.690  17.106  0.5324  1.0753 -0.3738
12177TIP3   OH257945   2.198   3.227   3.691 -0.5278  0.0786 -0.5962
12177TIP3    H157946   2.160   3.215   3.778 -1.9847  0.3922 -1.1808
12177TIP3    H257947   2.136   3.185   3.631  0.8535 -0.8220 -1.4165
12178TIP3   OH257948   1.549   0.834   1.569  0.1152  0.2422 -0.0362
12178TIP3    H157949   1.542   0.799   1.480  0.4341  2.1684 -0.8529
12178TIP3    H257950   1.643   0.836   1.587  0.1000  0.5844  0.0232
12179TIP3   OH257951   0.950   3.748   2.657  0.0313  0.4591 -0.2165
12179TIP3    H157952   0.957   3.704   2.742 -1.4463  0.1374 -0.2498
12179TIP3    H257953   0.909   3.683   2.600  3.3631 -0.2876 -1.9176
12180TIP3   OH257954   3.530   4.360   2.238 -0.0213  0.0657 -0.3667
12180TIP3    H157955   3.452   4.337   2.288  0.8207 -1.4253  0.3195
12180TIP3    H257956   3.598   4.371   2.304  0.1980  2.0935 -0.9040
12181TIP3   OH257957   5.793   1.986   2.541  0.2386 -0.0773 -0.2976
12181TIP3    H157958   5.836   1.921   2.486  1.5018  1.2384 -0.9153
12181TIP3    H257959   5.865   2.039   2.575 -0.4146 -1.5776  3.6137
12182TIP3   OH257960   1.883   2.855  12.294 -0.1512  0.2670  0.2875
12182TIP3    H157961   1.860   2.762  12.291 -0.4695  0.3790 -1.5808
12182TIP3    H257962   1.942   2.863  12.369 -1.2385 -1.1766  1.3165
12183TIP3   OH257963   2.936   3.185  14.363  0.4650  0.1230  0.5661
12183TIP3    H157964   2.870   3.235  14.315  1.2549 -0.1799 -0.8481
12183TIP3    H257965   2.887   3.142  14.433 -0.6444  0.8270  0.2350
12184TIP3   OH257966   4.324   2.253   4.928  0.5049 -0.1551 -0.2802
12184TIP3    H157967   4.249   2.309   4.948  2.5291  3.5919 -2.5729
12184TIP3    H257968   4.319   2.239   4.833  2.9417  0.6765 -0.5817
12185TIP3   OH257969   5.880   5.210  13.616 -0.1707 -0.3927 -0.0122
12185TIP3    H157970   5.972   5.185  13.623  0.0454  0.4788  0.3413
12185TIP3    H257971   5.843   5.191  13.702  0.1834  1.2392  0.5059
12186TIP3   OH257972   5.797   5.719  14.793 -0.1068 -0.4924 -0.2032
12186TIP3    H157973   5.870   5.702  14.734  0.2526 -3.4118  0.9785
12186TIP3    H257974   5.719   5.702  14.740  0.0503  1.6160 -1.1686
12187TIP3   OH257975   0.306   0.439  13.730  1.3723 -0.3321  0.3560
12187TIP3    H157976   0.400   0.426  13.718  1.2214  0.2378 -1.6961
12187TIP3    H257977   0.282   0.504  13.664 -0.5350 -0.7528  0.5880
12188TIP3   OH257978   4.191   0.901  14.028 -0.0991  0.0030 -0.1266
12188TIP3    H157979   4.148   0.976  14.071 -1.6013 -0.1251 -1.3346
12188TIP3    H257980   4.172   0.827  14.085 -0.8654  0.0872 -0.2580
12189TIP3   OH257981   6.400   2.408  11.018  0.1508  0.9566 -0.5489
12189TIP3    H157982   6.475   2.399  10.959 -0.1504  0.7183 -0.8934
12189TIP3    H257983   6.437   2.450  11.096  1.1879 -1.4867  0.3247
12190TIP3   OH257984   2.050   2.639  12.140 -0.1947 -0.7709  0.2047
12190TIP3    H157985   2.135   2.620  12.180 -0.7720  2.1641  3.1213
12190TIP3    H257986   1.987   2.589  12.193 -0.4862 -1.1489 -0.4971
12191TIP3   OH257987   1.007   1.770   2.873 -0.2723 -0.1589 -0.6209
12191TIP3    H157988   0.995   1.865   2.864 -2.2824 -0.3014  0.1031
12191TIP3    H257989   0.926   1.733   2.838  0.0122 -1.5397  0.1679
12192TIP3   OH257990   1.421   0.934   0.382 -0.1070  0.4857  0.0590
12192TIP3    H157991   1.393   0.976   0.300  1.3747 -0.9726 -1.2511
12192TIP3    H257992   1.505   0.894   0.360 -0.0976 -0.6559  2.0737
12193TIP3   OH257993   3.524   1.249   5.450 -0.1017 -0.1975 -0.5073
12193TIP3    H157994   3.442   1.260   5.402 -1.7234 -0.9171  2.0123
12193TIP3    H257995   3.576   1.326   5.427 -1.5709  0.3879 -1.9479
12194TIP3   OH257996   4.822   5.371  13.490 -0.1119 -0.0790 -0.3530
12194TIP3    H157997   4.827   5.353  13.584  0.9165 -0.8088 -0.5565
12194TIP3    H257998   4.745   5.323  13.461 -0.0685 -0.3578 -0.0088
12195TIP3   OH257999   0.480   3.262  16.065 -0.6815 -0.2484  0.2075
12195TIP3    H158000   0.500   3.186  16.120 -0.1022  0.0702  0.4358
12195TIP3    H258001   0.385   3.272  16.073 -0.4949  0.3399  1.8680
12196TIP3   OH258002   5.534   4.553  11.984 -0.4988  0.2001 -0.1182
12196TIP3    H158003   5.606   4.536  12.045 -0.4036  0.9018 -0.0235
12196TIP3    H258004   5.479   4.475  11.987  0.5019 -0.5361 -0.5211
12197TIP3   OH258005   1.386   4.068   1.214 -0.0791 -0.6926  0.9303
12197TIP3    H158006   1.296   4.085   1.186 -0.4944 -1.2931  1.8488
12197TIP3    H258007   1.425   4.154   1.224 -0.2046 -0.4542 -0.5774
12198TIP3   OH258008   1.132   5.195  16.750  0.1083 -0.2648 -0.4196
12198TIP3    H158009   1.116   5.283  16.714  0.1349  0.4881  1.3185
12198TIP3    H258010   1.063   5.141  16.713  1.0767  0.0957 -2.8257
12199TIP3   OH258011   2.129   0.143  14.462 -0.1671 -0.0054 -0.2434
12199TIP3    H158012   2.185   0.066  14.468  1.4047  1.1964  0.8935
12199TIP3    H258013   2.155   0.186  14.380 -2.3302 -1.6310 -1.8336
12200TIP3   OH258014   5.435   3.514  11.116  0.0970 -0.0413 -0.3107
12200TIP3    H158015   5.412   3.564  11.037 -0.3353 -1.4744 -1.0993
12200TIP3    H258016   5.530   3.524  11.123  0.2912 -0.8813 -1.6800
12201TIP3   OH258017   2.064   3.670   4.546  0.4303  0.9912  0.0089
12201TIP3    H158018   1.986   3.718   4.520 -1.2033 -1.5193  0.0850
12201TIP3    H258019   2.082   3.612   4.471  1.6014  0.8018  0.4266
12202TIP3   OH258020   0.307   5.092  16.788 -0.1471  0.3086 -0.3461
12202TIP3    H158021   0.238   5.074  16.852  1.0395 -1.1644  0.5603
12202TIP3    H258022   0.308   5.015  16.731 -0.4980  1.1542 -1.5076
12203TIP3   OH258023   3.483   3.346  15.021 -0.0895 -0.6462  0.1864
12203TIP3    H158024   3.432   3.406  14.966 -0.7493 -1.0895  0.3122
12203TIP3    H258025   3.510   3.399  15.096 -0.1484 -0.3416 -0.0087
12204TIP3   OH258026   6.416   6.098   1.351  0.9293 -0.3186 -0.0017
12204TIP3    H158027   6.483   6.167   1.348 -0.0719  0.6807  0.5809
12204TIP3    H258028   6.451   6.035   1.414  2.2014 -0.7375 -1.0850
12205TIP3   OH258029   0.696   1.468   6.434  0.1374 -0.4820 -0.6043
12205TIP3    H158030   0.763   1.535   6.422 -0.5692  0.2894 -0.3723
12205TIP3    H258031   0.729   1.412   6.504  0.0847  0.4931  0.2101
12206TIP3   OH258032   6.643   5.817   4.202 -0.3958 -0.2870 -0.4044
12206TIP3    H158033   6.688   5.833   4.285 -0.8091 -0.9860 -0.0478
12206TIP3    H258034   6.678   5.884   4.142  1.0566 -0.7873 -0.1140
12207TIP3   OH258035   3.670   6.474   2.434  0.0252  0.2079 -0.0207
12207TIP3    H158036   3.695   6.556   2.390 -1.3777  0.8711  0.3797
12207TIP3    H258037   3.660   6.499   2.526 -0.8840 -0.3065  0.0197
12208TIP3   OH258038   4.585   5.184  13.494 -0.9498  0.3119 -0.0786
12208TIP3    H158039   4.524   5.178  13.567 -0.9868 -0.0686 -0.1422
12208TIP3    H258040   4.626   5.098  13.489  0.0159  0.7325  0.3300
12209TIP3   OH258041   5.946   1.937  11.664  0.2259  0.1118 -0.4695
12209TIP3    H158042   5.856   1.959  11.687  0.0852 -0.4791 -0.4395
12209TIP3    H258043   5.956   1.846  11.693  1.2201  0.5744  0.6850
12210TIP3   OH258044   5.587   4.938  11.800  0.5007 -0.2908 -0.2847
12210TIP3    H158045   5.578   4.844  11.787 -1.3349 -0.4316  1.7227
12210TIP3    H258046   5.538   4.956  11.881  0.2536  2.4741 -1.0000
12211TIP3   OH258047   3.993   4.017  13.329  0.3268 -0.2179 -0.0327
12211TIP3    H158048   4.012   4.002  13.421  0.7283  0.2562 -0.0344
12211TIP3    H258049   3.900   4.043  13.327  0.3244 -0.2067  0.2383
12212TIP3   OH258050   4.104   4.461  13.734 -0.3157  0.3070  0.2656
12212TIP3    H158051   4.142   4.541  13.698  3.1517 -0.9747  0.9119
12212TIP3    H258052   4.068   4.488  13.819  1.0051  1.1880  0.5740
12213TIP3   OH258053   4.935   6.080  11.949 -0.4117 -0.4374 -0.2915
12213TIP3    H158054   4.906   6.067  12.039 -0.0927 -2.3092 -0.4208
12213TIP3    H258055   5.009   6.020  11.939 -0.2990 -0.0914 -1.7265
12214TIP3   OH258056   5.496   5.477   1.390  0.1219  0.0870 -0.0719
12214TIP3    H158057   5.485   5.440   1.478  2.1421  0.2038  0.2703
12214TIP3    H258058   5.407   5.490   1.357 -0.6317 -1.5525  1.2829
12215TIP3   OH258059   3.914   3.487  14.094 -0.5573  0.2797 -0.4114
12215TIP3    H158060   3.916   3.581  14.081 -2.1910  0.3274 -0.4681
12215TIP3    H258061   3.993   3.468  14.146 -0.8556  1.8498  0.6622
12216TIP3   OH258062   0.094   2.878   4.887  0.3152  0.5064 -0.6501
12216TIP3    H158063   0.092   2.784   4.873 -0.1569  0.6297 -1.4625
12216TIP3    H258064   0.165   2.910   4.831 -0.4657  0.7988 -1.4875
12217TIP3   OH258065   0.413   2.889   1.656 -0.2035  0.4379 -0.2558
12217TIP3    H158066   0.492   2.838   1.674 -0.1656 -0.0449 -1.7598
12217TIP3    H258067   0.427   2.972   1.702  1.6661  0.7968 -1.4486
12218TIP3   OH258068   4.952   3.707   4.478 -0.0632  0.0735 -0.1766
12218TIP3    H158069   4.964   3.742   4.566 -1.6015 -1.8651  0.8267
12218TIP3    H258070   5.028   3.650   4.464  0.1326  0.3084 -0.0824
12219TIP3   OH258071   1.675   5.173  15.669  1.0109  0.1831 -0.4772
12219TIP3    H158072   1.579   5.178  15.662  1.1237  1.4382 -1.1766
12219TIP3    H258073   1.690   5.153  15.762  0.0548 -0.7763 -0.5097
12220TIP3   OH258074   3.198   0.158   2.112  0.3428  0.1359 -0.0568
12220TIP3    H158075   3.146   0.122   2.184  0.2989 -0.7120 -0.5042
12220TIP3    H258076   3.137   0.166   2.039  0.9556 -1.4578 -0.7760
12221TIP3   OH258077   2.711   6.136  14.531  0.1236 -0.6300  0.2861
12221TIP3    H158078   2.652   6.063  14.512  0.0604  0.0394 -2.4223
12221TIP3    H258079   2.799   6.102  14.509  0.3568 -0.6008  1.1719
12222TIP3   OH258080   1.132   5.233   6.397  0.4562 -0.0293  0.0916
12222TIP3    H158081   1.068   5.301   6.417  0.2106  0.0594 -1.0137
12222TIP3    H258082   1.099   5.155   6.442  0.9054  0.6386  1.6397
12223TIP3   OH258083   1.463   1.029   5.016  0.3540  0.0107  0.2601
12223TIP3    H158084   1.373   1.050   5.042 -0.5653 -1.9695 -1.1704
12223TIP3    H258085   1.498   1.111   4.981 -0.2713  1.2496  2.4089
12224TIP3   OH258086   1.536   3.315  14.572 -0.6875 -0.1420  0.2283
12224TIP3    H158087   1.466   3.271  14.621 -0.0760 -0.2760  0.9984
12224TIP3    H258088   1.568   3.383  14.631  1.1775 -1.3774  0.6826
12225TIP3   OH258089   6.014   6.079  10.931  0.4046 -0.0542 -0.0550
12225TIP3    H158090   5.955   6.122  10.870  1.5820 -0.2176 -1.3136
12225TIP3    H258091   6.097   6.072  10.885  0.8222 -1.7820  0.9007
12226TIP3   OH258092   4.789   4.113   1.415  0.4264 -0.0578 -0.2954
12226TIP3    H158093   4.860   4.125   1.478 -0.5194  1.5941  0.4636
12226TIP3    H258094   4.796   4.187   1.356  1.9954 -2.1651 -2.8785
12227TIP3   OH258095   4.346   4.386  11.283  0.2897 -0.5171  0.8062
12227TIP3    H158096   4.291   4.410  11.209  1.8014 -0.8174 -0.4521
12227TIP3    H258097   4.309   4.303  11.315 -1.4727  0.5441  1.5618
12228TIP3   OH258098   6.329   5.018  16.654  0.4227  0.1311  0.2783
12228TIP3    H158099   6.360   4.939  16.610  0.5462 -0.0727  0.7343
12228TIP3    H258100   6.363   5.090  16.600  1.2389 -0.1007  0.4840
12229TIP3   OH258101   2.606   5.497   3.621  0.1000  0.6730  0.3430
12229TIP3    H158102   2.580   5.572   3.567  1.6595  1.1952  0.2823
12229TIP3    H258103   2.555   5.506   3.701 -1.2880  0.6119 -0.5204
12230TIP3   OH258104   0.735   6.382  15.686 -0.8784  0.3794 -0.2040
12230TIP3    H158105   0.719   6.462  15.736 -2.6566  0.4435 -0.8344
12230TIP3    H258106   0.746   6.412  15.596  4.2634  0.4726  0.3297
12231TIP3   OH258107   2.645   0.447  15.034  0.7967 -0.2227  0.4121
12231TIP3    H158108   2.700   0.412  14.964 -0.0371  0.2336 -0.4769
12231TIP3    H258109   2.621   0.370  15.087  0.9088 -0.6533 -0.1647
12232TIP3   OH258110   5.482   5.757   2.355 -0.5397  0.3348 -0.9940
12232TIP3    H158111   5.498   5.852   2.360 -1.2089  0.4761 -1.3923
12232TIP3    H258112   5.516   5.732   2.269  1.0427 -0.0712 -0.2534
12233TIP3   OH258113   5.493   5.970  11.523  0.5697  0.0463 -0.0225
12233TIP3    H158114   5.500   6.031  11.450  0.0217 -2.9203 -2.6396
12233TIP3    H258115   5.401   5.972  11.548  0.3516 -0.4770 -0.7857
12234TIP3   OH258116   0.104   6.613  14.333  0.0696 -0.0417  0.5789
12234TIP3    H158117   0.148   6.561  14.265 -2.0836 -3.0416  1.3512
12234TIP3    H258118   0.074   6.548  14.397 -0.7763  2.4117  2.7631
12235TIP3   OH258119   5.117   6.085  13.168 -0.0149  0.5095 -0.8837
12235TIP3    H158120   5.108   6.019  13.099 -2.1988 -1.3988  1.1582
12235TIP3    H258121   5.161   6.039  13.240  0.1617  1.8119 -0.1450
12236TIP3   OH258122   5.456   1.046   2.011  0.1203  0.0725  0.4723
12236TIP3    H158123   5.367   1.079   2.003 -1.0484 -3.1004 -0.1764
12236TIP3    H258124   5.498   1.071   1.928 -0.7694 -0.1532 -0.0539
12237TIP3   OH258125   3.183   4.052   2.200  0.5342 -0.0508  0.5608
12237TIP3    H158126   3.201   4.080   2.111  0.5122 -0.6131  0.3795
12237TIP3    H258127   3.223   3.966   2.207  1.3779  0.4025  1.3968
12238TIP3   OH258128   4.402   3.190  14.362 -0.8885 -0.2842  0.5118
12238TIP3    H158129   4.427   3.101  14.386  0.8199  0.3235  1.1372
12238TIP3    H258130   4.383   3.233  14.446 -0.0204  0.3995  0.3711
12239TIP3   OH258131   2.811   5.801  12.682 -0.4699 -0.3866  0.0841
12239TIP3    H158132   2.874   5.779  12.751 -0.5089 -0.4394  0.1032
12239TIP3    H258133   2.860   5.791  12.600 -0.8879 -1.9737  0.0035
12240TIP3   OH258134   4.165   0.693  12.111 -0.3523 -0.4878 -0.0931
12240TIP3    H158135   4.254   0.722  12.132 -0.9208 -0.1389  1.9033
12240TIP3    H258136   4.139   0.747  12.036  0.9780 -0.3374 -0.4572
12241TIP3   OH258137   4.119   4.267  13.539  0.2270 -0.7207  0.1949
12241TIP3    H158138   4.210   4.253  13.563 -0.4800 -2.0811  2.3153
12241TIP3    H258139   4.090   4.338  13.596 -0.3057 -1.0466  0.3445
12242TIP3   OH258140   6.206   2.948   0.760  0.0312  0.2032 -0.7726
12242TIP3    H158141   6.175   2.888   0.827  2.7792 -1.3035 -0.7803
12242TIP3    H258142   6.259   3.012   0.808  0.3825  0.2750 -1.2532
12243TIP3   OH258143   4.434   6.555   6.723 -0.0388  0.3645  0.4906
12243TIP3    H158144   4.509   6.530   6.778  0.6763  0.3255 -0.5004
12243TIP3    H258145   4.392   6.472   6.701  1.3515  0.1327 -1.3951
12244TIP3   OH258146   6.082   4.897  15.292 -0.7377  0.5798  0.5881
12244TIP3    H158147   6.067   4.945  15.374  1.2179 -1.1276  2.0040
12244TIP3    H258148   6.176   4.880  15.291 -1.1181 -1.6234 -0.7381
12245TIP3   OH258149   4.495   5.899  13.158  0.3942 -0.5656 -0.4541
12245TIP3    H158150   4.490   5.989  13.190  0.6535 -0.3820 -0.9158
12245TIP3    H258151   4.432   5.896  13.086  0.3439 -0.7641 -0.3993
12246TIP3   OH258152   2.709   1.893  13.175 -0.3735  0.3059 -0.4248
12246TIP3    H158153   2.750   1.812  13.144  0.7235  0.8118 -0.3188
12246TIP3    H258154   2.616   1.872  13.182 -0.3890 -0.3708 -2.3101
12247TIP3   OH258155   0.294   0.776   4.840 -0.6186 -0.2204 -0.2815
12247TIP3    H158156   0.341   0.725   4.906 -2.3975 -1.8110 -0.2136
12247TIP3    H258157   0.355   0.782   4.766  0.4381 -0.5392  0.5624
12248TIP3   OH258158   1.501   2.777   3.951 -0.5240 -0.1925 -0.5629
12248TIP3    H158159   1.478   2.804   3.862 -1.0963  0.2858 -0.2781
12248TIP3    H258160   1.488   2.856   4.003  1.1241 -0.1032 -0.2742
12249TIP3   OH258161   2.183   2.491   4.610 -0.3278 -0.6738 -0.4454
12249TIP3    H158162   2.150   2.556   4.672 -1.4787 -1.8384  0.2002
12249TIP3    H258163   2.152   2.407   4.645  1.0225 -1.5569 -1.3285
12250TIP3   OH258164   3.616   1.141  13.933  0.0630  0.5021 -0.3944
12250TIP3    H158165   3.681   1.190  13.983  0.2790  1.0199 -1.1607
12250TIP3    H258166   3.541   1.133  13.992  0.9202 -0.3391  0.5930
12251TIP3   OH258167   6.386   0.933  15.239  0.7920  0.1397 -0.2941
12251TIP3    H158168   6.309   0.887  15.206  0.4076  0.5233  0.0525
12251TIP3    H258169   6.439   0.865  15.281  2.3025 -0.7275 -3.5007
12252TIP3   OH258170   5.574   1.215  14.339 -0.1631 -0.1556 -0.0762
12252TIP3    H158171   5.485   1.179  14.339  0.0180 -0.6641 -2.1308
12252TIP3    H258172   5.630   1.140  14.316  0.3548  1.0545 -2.9752
12253TIP3   OH258173   0.590   5.613  16.123  0.2615  0.1278  0.3175
12253TIP3    H158174   0.596   5.523  16.154  0.7669  0.0931  0.1291
12253TIP3    H258175   0.673   5.653  16.149  0.1227  0.4805  0.2223
12254TIP3   OH258176   2.348   1.554   5.088  0.4604  0.1648 -0.1169
12254TIP3    H158177   2.399   1.634   5.075 -1.5130  1.3617 -0.7605
12254TIP3    H258178   2.261   1.585   5.113  0.2228 -1.8411  1.6250
12255TIP3   OH258179   2.808   1.556   5.769  0.3130  0.0682  0.4348
12255TIP3    H158180   2.871   1.629   5.776  1.2671 -0.6631 -0.3532
12255TIP3    H258181   2.731   1.595   5.729  0.6497  0.7582  0.4478
12256TIP3   OH258182   1.950   5.335   3.878  0.1236 -0.0433 -0.3280
12256TIP3    H158183   2.033   5.345   3.832 -1.1870  1.2507 -2.5044
12256TIP3    H258184   1.918   5.249   3.852 -0.1261  0.2631 -1.0556
12257TIP3   OH258185   2.131   1.781  10.979 -0.3463  0.4038  0.2411
12257TIP3    H158186   2.054   1.768  10.923 -0.1608  0.3542 -0.0062
12257TIP3    H258187   2.197   1.816  10.919  0.7867 -2.3910 -0.1923
12258TIP3   OH258188   1.532   6.249   2.079 -0.3586 -0.0658 -0.2411
12258TIP3    H158189   1.509   6.156   2.082  0.3670 -0.2104  2.0254
12258TIP3    H258190   1.533   6.270   1.986  0.9334 -2.7155 -0.8949
12259TIP3   OH258191   5.375   0.191  16.687 -0.0423 -0.0139  0.0517
12259TIP3    H158192   5.404   0.274  16.651 -1.2311  0.4577  0.1422
12259TIP3    H258193   5.418   0.125  16.633 -0.0869  0.6752 -0.8397
12260TIP3   OH258194   5.845   2.865  11.373  0.1901 -0.2043  0.2067
12260TIP3    H158195   5.836   2.790  11.315  0.0482  0.6445 -0.8859
12260TIP3    H258196   5.881   2.934  11.318 -2.0825  1.3041  0.5402
12261TIP3   OH258197   3.213   2.487  13.994 -0.1485 -0.0930  0.4847
12261TIP3    H158198   3.225   2.569  13.947 -1.8776  0.2769  0.6844
12261TIP3    H258199   3.264   2.423  13.943 -1.6489  0.3722 -1.6939
12262TIP3   OH258200   2.773   3.054   4.163 -0.1527 -0.1730 -0.6217
12262TIP3    H158201   2.853   3.050   4.216 -0.2926 -0.9596 -0.4650
12262TIP3    H258202   2.703   3.064   4.227 -0.4223 -2.2227 -0.5674
12263TIP3   OH258203   4.397   4.372  14.338  0.6198 -0.1894  0.0754
12263TIP3    H158204   4.452   4.445  14.364 -0.3935  0.7777 -0.4342
12263TIP3    H258205   4.351   4.403  14.260  1.4463 -1.9714 -1.1662
12264TIP3   OH258206   4.702   4.797  11.614  0.0327  0.0959 -0.1234
12264TIP3    H158207   4.766   4.850  11.568 -0.4176  0.6406 -0.1267
12264TIP3    H258208   4.675   4.851  11.689 -1.8037  0.6502 -1.1673
12265TIP3   OH258209   0.317   4.852  13.512 -0.1181 -0.3915  0.8645
12265TIP3    H158210   0.345   4.885  13.597 -2.5955  2.3495  0.6981
12265TIP3    H258211   0.235   4.806  13.531 -1.2182  1.1158 -0.1531
12266TIP3   OH258212   0.089   6.451   4.186 -0.5170 -0.3802 -0.2663
12266TIP3    H158213   0.043   6.504   4.121  0.2926  0.8151  0.1212
12266TIP3    H258214   0.172   6.496   4.199 -1.2707  0.2665  2.7078
12267TIP3   OH258215   5.620   2.059  12.060 -0.3175  0.5124 -0.2934
12267TIP3    H158216   5.650   1.968  12.048 -0.2682  0.4388  0.3572
12267TIP3    H258217   5.619   2.071  12.155 -1.0363  0.9602 -0.3597
12268TIP3   OH258218   0.604   4.318  15.680 -0.2416  0.3369 -0.2230
12268TIP3    H158219   0.590   4.411  15.662  0.0814  0.8831  2.2143
12268TIP3    H258220   0.564   4.303  15.765 -0.9613 -1.9521 -0.9369
12269TIP3   OH258221   6.297   4.512   0.257 -0.2021 -0.4700 -0.0975
12269TIP3    H158222   6.309   4.537   0.348  0.5634 -1.7367  0.1600
12269TIP3    H258223   6.208   4.541   0.236 -0.2891  0.0577  0.9617
12270TIP3   OH258224   3.787   3.780  13.427  0.3957  0.4167 -0.3872
12270TIP3    H158225   3.842   3.786  13.505 -1.3356  1.0493  0.8200
12270TIP3    H258226   3.754   3.869  13.414 -0.1347  0.0993 -1.2302
12271TIP3   OH258227   2.210   5.451  16.845  0.0738 -0.2204 -0.2799
12271TIP3    H158228   2.134   5.395  16.852 -0.1870  0.2530  0.7823
12271TIP3    H258229   2.189   5.511  16.774  0.0967 -1.0597 -1.0030
12272TIP3   OH258230   2.785   2.523  16.839 -0.1976  0.2115 -0.0890
12272TIP3    H158231   2.786   2.590  16.907  0.4809  1.2293 -1.0706
12272TIP3    H258232   2.698   2.484  16.845 -0.5572  1.0950  0.5824
12273TIP3   OH258233   4.093   1.815   3.954  0.0402 -0.4888 -0.0667
12273TIP3    H158234   4.042   1.828   4.033 -0.6920  0.4884 -0.6909
12273TIP3    H258235   4.082   1.896   3.904 -1.3189 -1.9195 -2.1693
12274TIP3   OH258236   4.510   0.357   2.086  0.4796 -0.3998 -0.7456
12274TIP3    H158237   4.587   0.373   2.031  1.1548 -0.0709  0.2860
12274TIP3    H258238   4.500   0.437   2.137  0.7221 -1.2400  0.6461
12275TIP3   OH258239   2.877   0.950   0.936 -0.1029 -0.2108 -0.0774
12275TIP3    H158240   2.971   0.956   0.953 -0.2992  1.2094  0.6405
12275TIP3    H258241   2.850   0.868   0.975  0.7235 -0.3065  0.2997
12276TIP3   OH258242   2.944   1.367   1.936  0.2602  0.0718  0.0751
12276TIP3    H158243   2.884   1.311   1.985  1.8334 -0.9663  0.8796
12276TIP3    H258244   2.890   1.439   1.904 -1.4151 -0.8827  0.6967
12277TIP3   OH258245   3.299   6.288   4.582 -0.3286 -0.0719 -0.4510
12277TIP3    H158246   3.257   6.224   4.640  2.4481  0.0032  1.7445
12277TIP3    H258247   3.388   6.255   4.571  0.3914  2.1257 -1.2966
12278TIP3   OH258248   0.387   1.402  15.355 -0.8806 -0.4662 -0.0255
12278TIP3    H158249   0.378   1.492  15.323 -0.0321 -0.8129 -1.2773
12278TIP3    H258250   0.481   1.385  15.354 -0.9918 -1.1258  0.8761
12279TIP3   OH258251   5.565   3.534  12.539 -0.3207  0.5518 -0.1249
12279TIP3    H158252   5.571   3.449  12.496 -0.3944  0.6914 -0.4158
12279TIP3    H258253   5.639   3.537  12.599 -0.6874  0.0222  0.3524
12280TIP3   OH258254   0.046   2.732  11.134  0.3794 -0.5031 -0.0742
12280TIP3    H158255   0.044   2.823  11.106  1.3839  0.0156  1.4623
12280TIP3    H258256   0.078   2.684  11.058 -1.1534  0.2726 -1.2394
12281TIP3   OH258257   1.949   1.742  11.185  0.3601 -0.0264 -0.3693
12281TIP3    H158258   1.997   1.769  11.108  0.3661 -0.9658 -0.6968
12281TIP3    H258259   1.907   1.659  11.160 -0.2251  0.0324  0.3881
12282TIP3   OH258260   0.468   3.717   5.803  0.0145  0.7100  0.1832
12282TIP3    H158261   0.452   3.628   5.834  3.3003 -0.6049 -1.6784
12282TIP3    H258262   0.440   3.715   5.711 -2.0165  2.2841  0.7206
12283TIP3   OH258263   6.164   4.858   0.850  1.1429 -0.4691  0.0026
12283TIP3    H158264   6.215   4.885   0.926 -0.9059  2.8548  0.3112
12283TIP3    H258265   6.091   4.808   0.887  1.7213 -1.3672 -0.0552
12284TIP3   OH258266   4.911   1.214  16.177 -0.5538 -0.1583  0.2894
12284TIP3    H158267   4.846   1.227  16.107  0.1904 -0.7911 -0.5307
12284TIP3    H258268   4.964   1.294  16.175 -0.9462  0.1149  0.5862
12285TIP3   OH258269   4.719   5.013  11.883 -0.3284 -0.1747 -0.3405
12285TIP3    H158270   4.781   5.074  11.844 -2.1333  1.5744 -0.5471
12285TIP3    H258271   4.657   5.068  11.931 -2.2161 -1.7927 -0.8437
12286TIP3   OH258272   4.272   5.441   2.843 -0.1397 -0.1735 -0.1527
12286TIP3    H158273   4.303   5.409   2.758  0.7381  0.3543 -0.0384
12286TIP3    H258274   4.351   5.444   2.897 -0.6947 -0.5062  0.6841
12287TIP3   OH258275   0.339   3.956   4.833 -0.3920  0.4046  0.1429
12287TIP3    H158276   0.365   4.043   4.863 -1.9980  0.6320  0.8751
12287TIP3    H258277   0.246   3.963   4.814  0.1987 -0.1734 -3.3369
12288TIP3   OH258278   3.640   2.439   6.853 -0.3049 -0.0158 -0.8212
12288TIP3    H158279   3.618   2.531   6.836 -0.1813  0.0385 -0.6966
12288TIP3    H258280   3.723   2.444   6.901  0.3214 -0.2370 -1.8628
12289TIP3   OH258281   6.047   4.372  11.150  0.1099  0.3795  0.0041
12289TIP3    H158282   6.057   4.397  11.058  0.0403  2.1195  0.4459
12289TIP3    H258283   6.104   4.296  11.160  0.1792  0.2137 -1.4493
12290TIP3   OH258284   4.904   1.033   2.899  0.0904  0.0415 -0.0157
12290TIP3    H158285   4.869   1.104   2.846 -1.2079  0.2703  1.0983
12290TIP3    H258286   4.969   0.990   2.843  0.5326  1.7870 -0.8704
12291TIP3   OH258287   5.671   0.715   0.839  0.3793  0.9251  0.5731
12291TIP3    H158288   5.632   0.704   0.753  0.6855  0.7317  0.4572
12291TIP3    H258289   5.765   0.708   0.824  0.4218  0.6158  0.9623
12292TIP3   OH258290   4.759   5.363   5.138 -0.6190  0.2338 -0.1874
12292TIP3    H158291   4.676   5.318   5.151 -0.2218 -0.6733 -0.7657
12292TIP3    H258292   4.807   5.348   5.220 -0.6497 -0.0557 -0.2209
12293TIP3   OH258293   0.009   3.625   5.900  0.3589  0.5242 -0.1371
12293TIP3    H158294   0.046   3.626   5.811 -1.2644 -1.5065 -0.8668
12293TIP3    H258295  -0.085   3.610   5.887  0.0940  0.2434  1.9357
12294TIP3   OH258296   5.515   1.543   3.291 -0.3173 -0.0059  0.2104
12294TIP3    H158297   5.585   1.522   3.352  2.9158  1.4505 -2.8008
12294TIP3    H258298   5.500   1.637   3.303 -0.3974  0.0760 -0.4783
12295TIP3   OH258299   3.656   6.541  11.096 -0.6427 -0.1317  0.9656
12295TIP3    H158300   3.628   6.470  11.038 -0.3306 -1.1319  2.0078
12295TIP3    H258301   3.603   6.528  11.175  2.5930 -1.9866  2.9393
12296TIP3   OH258302   1.591   0.456  13.623 -1.0908 -0.8616  0.6433
12296TIP3    H158303   1.601   0.368  13.659  0.7599 -0.3714  1.3767
12296TIP3    H258304   1.555   0.508  13.694 -0.8062 -0.7006  0.6719
12297TIP3   OH258305   6.752   2.145   3.686  0.4486  0.0130 -0.2949
12297TIP3    H158306   6.776   2.211   3.622 -0.5972 -0.5986 -1.3314
12297TIP3    H258307   6.836   2.119   3.726  0.9560  1.2971 -0.5052
12298TIP3   OH258308   2.856   4.389   6.284 -0.2821  0.9168 -0.2949
12298TIP3    H158309   2.899   4.383   6.369 -0.3020 -0.0058 -0.3398
12298TIP3    H258310   2.773   4.342   6.295 -0.5365  1.2684 -0.6690
12299TIP3   OH258311   5.256   2.602  13.422 -0.1087  0.3933 -0.0403
12299TIP3    H158312   5.244   2.544  13.348 -0.4895  0.7520 -0.2566
12299TIP3    H258313   5.177   2.591  13.475  0.2948 -0.0862  0.4624
12300TIP3   OH258314   6.038   3.980   4.486 -0.3053 -0.4411  0.1079
12300TIP3    H158315   6.086   4.033   4.423 -2.9823  2.7019  0.6101
12300TIP3    H258316   6.048   4.026   4.569 -3.4168 -0.1101  0.3800
12301TIP3   OH258317   0.275   0.549   2.936 -0.2394 -0.0227 -0.2556
12301TIP3    H158318   0.289   0.623   2.995 -0.9045  0.7384 -1.0491
12301TIP3    H258319   0.192   0.569   2.892 -0.3665 -1.1828 -0.5570
12302TIP3   OH258320   4.939   3.943  15.918  0.8163  0.1408 -0.0307
12302TIP3    H158321   5.031   3.935  15.942  0.1924 -3.5989  1.3648
12302TIP3    H258322   4.920   3.865  15.866 -2.3620 -0.9498  2.5672
12303TIP3   OH258323   0.371   4.279  12.489 -0.3262 -0.6607 -0.1059
12303TIP3    H158324   0.366   4.374  12.495 -1.0030 -0.6355 -1.0066
12303TIP3    H258325   0.378   4.250  12.580  0.0061  0.2544  0.1635
12304TIP3   OH258326   0.387   4.774  16.004  0.2941  0.5149  0.6727
12304TIP3    H158327   0.397   4.716  16.079 -0.6079  0.0016  0.3988
12304TIP3    H258328   0.355   4.717  15.933  0.9939  1.0185 -0.0619
12305TIP3   OH258329   1.027   1.282  15.905 -0.3672 -0.1735 -0.8212
12305TIP3    H158330   1.062   1.207  15.856 -0.8066 -0.2582 -1.0094
12305TIP3    H258331   1.000   1.246  15.989 -0.8132 -0.2771 -1.0073
12306TIP3   OH258332   3.122   3.075  17.085 -0.4522 -0.1355 -0.4481
12306TIP3    H158333   3.053   3.017  17.116 -1.3799  1.4587  0.5849
12306TIP3    H258334   3.167   3.026  17.017 -0.8953 -2.2246  0.7376
12307TIP3   OH258335   4.496   5.288  14.750 -0.3411  0.2787 -0.1387
12307TIP3    H158336   4.523   5.224  14.816 -0.1692  0.6884  0.1942
12307TIP3    H258337   4.517   5.247  14.667 -0.0269 -0.0066  0.0814
12308TIP3   OH258338   3.775   0.864  14.572  0.7767 -0.4880  0.9098
12308TIP3    H158339   3.693   0.860  14.621  0.8266 -0.9458  0.9592
12308TIP3    H258340   3.843   0.876  14.638  0.8674 -1.3327  0.9846
12309TIP3   OH258341   2.970   6.485   0.062 -0.4423  0.3260  0.2504
12309TIP3    H158342   2.930   6.565   0.027 -0.5421 -0.7348 -2.1608
12309TIP3    H258343   2.898   6.423   0.067 -0.1510  0.0589  1.1062
12310TIP3   OH258344   1.555   1.789  13.087  0.3015  0.3158 -0.3238
12310TIP3    H158345   1.536   1.857  13.151  1.2395  1.4456 -1.2051
12310TIP3    H258346   1.651   1.791  13.078  0.4684 -1.9806  0.5475
12311TIP3   OH258347   0.801   2.599   4.624  0.5169 -1.1818  0.5449
12311TIP3    H158348   0.717   2.613   4.669  0.0076 -0.6137 -0.5483
12311TIP3    H258349   0.863   2.582   4.694 -0.3453 -0.7421  1.4350
12312TIP3   OH258350   3.823   6.625   5.577  0.5010 -0.0311  0.5220
12312TIP3    H158351   3.859   6.670   5.500  0.0797  0.6416  0.7120
12312TIP3    H258352   3.768   6.691   5.619  0.3031 -0.5673  1.1046
12313TIP3   OH258353   0.238   3.061   1.141 -0.5244 -0.7299  0.6548
12313TIP3    H158354   0.293   3.137   1.163  1.1875 -2.4015  2.2872
12313TIP3    H258355   0.272   3.032   1.056  0.0804 -0.8237  0.9286
12314TIP3   OH258356   6.784   1.192  15.711 -0.6273  0.4352  0.4053
12314TIP3    H158357   6.789   1.116  15.769  1.0059  2.1947  2.7063
12314TIP3    H258358   6.866   1.191  15.663  0.1804  1.6306  1.6948
12315TIP3   OH258359   4.439   3.311   5.134  0.0683  0.1946 -0.5790
12315TIP3    H158360   4.465   3.289   5.223 -1.5921  0.3194 -0.0347
12315TIP3    H258361   4.520   3.308   5.083  0.8325 -1.1094  0.6866
12316TIP3   OH258362   6.461   4.973   2.292  0.0586  0.3101 -0.5078
12316TIP3    H158363   6.373   5.010   2.283 -0.3739 -0.6301 -0.2284
12316TIP3    H258364   6.513   5.018   2.225 -0.9197  0.0180 -1.4769
12317TIP3   OH258365   4.017   4.445  14.816  0.2249 -0.2644  0.1531
12317TIP3    H158366   4.102   4.483  14.792  0.6844 -0.6260  1.2204
12317TIP3    H258367   3.973   4.514  14.866 -0.5264  0.2944 -1.2460
12318TIP3   OH258368   3.515   0.531   1.468  0.6081  0.9211  0.1550
12318TIP3    H158369   3.502   0.554   1.375 -0.3097  0.6012  0.1950
12318TIP3    H258370   3.605   0.555   1.486  0.5087  1.8921 -0.5660
12319TIP3   OH258371   3.419   5.178  16.546 -0.1351  0.1228 -0.0628
12319TIP3    H158372   3.365   5.108  16.508  0.3300 -0.1018 -0.3089
12319TIP3    H258373   3.496   5.182  16.489  0.2506  0.2384  0.4670
12320TIP3   OH258374   6.297   2.122  10.939  0.2131 -0.7660 -0.3604
12320TIP3    H158375   6.218   2.173  10.954  0.9718  0.0223  1.1451
12320TIP3    H258376   6.344   2.125  11.023  1.4084 -1.9501 -0.9541
12321TIP3   OH258377   4.485   2.933  13.917  0.1175  0.1364 -0.4785
12321TIP3    H158378   4.412   2.888  13.876 -1.6954  2.6511 -0.1666
12321TIP3    H258379   4.556   2.927  13.854 -0.5765 -1.6865 -1.1232
12322TIP3   OH258380   3.866   2.284  14.530  0.2856  0.2215  0.6907
12322TIP3    H158381   3.886   2.349  14.598  0.5220  0.4183  0.4383
12322TIP3    H258382   3.772   2.292  14.516  0.1878 -0.0325  1.2102
12323TIP3   OH258383   1.757   5.009  15.872 -0.5087 -0.5063  0.3430
12323TIP3    H158384   1.718   4.937  15.823 -0.7563  0.0404 -0.2688
12323TIP3    H258385   1.797   4.967  15.949  3.4227 -1.9584 -2.3045
12324TIP3   OH258386   2.995   6.174   0.653 -0.5505  0.3188  0.4340
12324TIP3    H158387   3.040   6.160   0.569 -1.7602 -0.6501 -0.0759
12324TIP3    H258388   3.065   6.179   0.717  0.3442 -0.0440 -0.5000
12325TIP3   OH258389   2.654   3.589  11.109 -0.0999 -0.4008 -0.0337
12325TIP3    H158390   2.666   3.546  11.024 -0.1231 -0.7095  0.1181
12325TIP3    H258391   2.573   3.639  11.100  1.1601  1.5323 -0.9956
12326TIP3   OH258392   3.711   2.410   2.556  0.9842 -0.4527 -0.0400
12326TIP3    H158393   3.718   2.503   2.533 -0.1383 -0.2933  0.2553
12326TIP3    H258394   3.790   2.392   2.608  1.0787  0.3919  0.1081
12327TIP3   OH258395   1.071   4.621   1.619  0.2470  0.0627  0.1854
12327TIP3    H158396   0.987   4.584   1.646 -1.4502  2.7527 -1.1891
12327TIP3    H258397   1.130   4.603   1.693 -2.0034 -0.2673  1.9600
12328TIP3   OH258398   5.707   0.095   3.010 -0.0416  0.3631  0.0213
12328TIP3    H158399   5.783   0.047   3.041 -1.1501 -1.3406  0.1832
12328TIP3    H258400   5.685   0.155   3.082 -0.1079 -0.6246  0.8323
12329TIP3   OH258401   5.375   1.349  14.905  0.7219 -0.3160 -0.8298
12329TIP3    H158402   5.283   1.326  14.923  0.7119  0.8542  0.7211
12329TIP3    H258403   5.370   1.431  14.857  0.9871  0.4449  0.4288
12330TIP3   OH258404   0.073   3.653  16.361  0.3598  0.5194  0.8469
12330TIP3    H158405   0.119   3.709  16.298 -0.1849  1.5606  1.3560
12330TIP3    H258406   0.141   3.625  16.422  0.4895  1.2959  1.0624
12331TIP3   OH258407   0.209   4.733  13.237  0.4089 -1.0646 -0.5197
12331TIP3    H158408   0.113   4.731  13.244  0.5632 -1.2062  1.6652
12331TIP3    H258409   0.238   4.770  13.320  2.2910 -1.5610 -0.9506
12332TIP3   OH258410   5.457   0.414   5.746  0.1715  0.0081  0.4085
12332TIP3    H158411   5.527   0.360   5.782  0.2657  0.6373  1.1816
12332TIP3    H258412   5.501   0.471   5.683  0.0403 -0.9425 -0.5623
12333TIP3   OH258413   0.170   3.209  11.212  0.0286 -0.1883 -1.0034
12333TIP3    H158414   0.154   3.128  11.164 -0.7441 -1.5424  1.4806
12333TIP3    H258415   0.114   3.203  11.289  1.7109  1.6486  0.4218
12334TIP3   OH258416   5.186   5.927  15.969 -0.2313 -0.3332  0.0644
12334TIP3    H158417   5.149   5.952  16.054  0.7339  2.5275 -0.3004
12334TIP3    H258418   5.266   5.878  15.991  0.3294  0.8947  0.8256
12335TIP3   OH258419   0.027   3.021  16.598  0.1446 -0.7047  0.3996
12335TIP3    H158420  -0.015   2.935  16.599 -0.6778 -0.3055  0.4308
12335TIP3    H258421  -0.005   3.063  16.519  0.0979 -0.2008  0.6809
12336TIP3   OH258422   2.085   1.771   1.797 -0.0615  0.5458  0.0546
12336TIP3    H158423   2.068   1.762   1.891  2.3594  0.7278  0.5415
12336TIP3    H258424   2.016   1.720   1.755 -1.9374  1.4925  1.8737
12337TIP3   OH258425   4.933   1.779  17.113 -0.1836  0.1155 -0.4302
12337TIP3    H158426   4.872   1.711  17.084 -0.2269 -0.2605  0.5083
12337TIP3    H258427   4.905   1.858  17.067  0.5651 -0.7402 -2.4016
12338TIP3   OH258428   0.874   3.816   3.380 -0.0072 -0.0532 -0.2676
12338TIP3    H158429   0.895   3.900   3.421  2.2224 -0.8975  0.4026
12338TIP3    H258430   0.801   3.781   3.431  1.9530 -0.5519  2.3302
12339TIP3   OH258431   2.515   1.178  13.352  0.6370 -0.4767 -0.4721
12339TIP3    H158432   2.526   1.174  13.447  0.0736 -0.5659 -0.4048
12339TIP3    H258433   2.470   1.096  13.330 -1.4159  0.6272 -0.4932
12340TIP3   OH258434   4.621   3.704  11.250  0.1354 -0.1188 -0.4208
12340TIP3    H158435   4.696   3.760  11.227 -0.1923  1.7667  2.9013
12340TIP3    H258436   4.656   3.642  11.314 -1.0639  0.6999  1.0706
12341TIP3   OH258437   5.241   6.181   4.636 -0.0075  0.2517 -0.2501
12341TIP3    H158438   5.247   6.234   4.557  1.5150  1.0801  0.4044
12341TIP3    H258439   5.161   6.131   4.625 -0.3719  1.1518 -1.8286
12342TIP3   OH258440   2.314   2.548   2.341 -0.6713 -0.1852 -0.3963
12342TIP3    H158441   2.338   2.604   2.267 -1.7161 -2.2522 -2.3497
12342TIP3    H258442   2.293   2.610   2.412  1.5869  1.7950 -1.3910
12343TIP3   OH258443   0.580   4.950   2.676  0.2605  0.4834 -0.5938
12343TIP3    H158444   0.618   4.935   2.762 -0.0193 -1.8242 -0.8307
12343TIP3    H258445   0.655   4.961   2.618  0.6230 -2.5704 -0.8045
12344TIP3   OH258446   6.437   0.947  12.998  0.1106 -0.2429 -0.0689
12344TIP3    H158447   6.466   0.937  12.908  0.8819  0.6769  0.0728
12344TIP3    H258448   6.482   1.025  13.030 -1.7269  0.6443  0.4669
12345TIP3   OH258449   2.849   0.137   4.317 -0.6492  0.0737 -0.0087
12345TIP3    H158450   2.782   0.078   4.351  0.1763 -0.7752  0.1707
12345TIP3    H258451   2.857   0.206   4.383 -0.7737 -0.2592  0.3550
12346TIP3   OH258452   1.307   1.897   3.585 -0.9224  0.3626 -0.0668
12346TIP3    H158453   1.217   1.929   3.575 -1.5161 -1.5563 -0.9807
12346TIP3    H258454   1.301   1.803   3.571  1.2729  0.2379 -0.3213
12347TIP3   OH258455   6.511   5.552   0.101 -0.4792 -0.0266 -0.2202
12347TIP3    H158456   6.507   5.535   0.196 -0.3398 -0.4804 -0.2950
12347TIP3    H258457   6.506   5.647   0.094 -0.5300  0.0087  0.2435
12348TIP3   OH258458   6.766   6.567  15.941 -0.1734  0.6243 -0.0279
12348TIP3    H158459   6.801   6.646  15.901  0.1707  0.1355 -0.7085
12348TIP3    H258460   6.804   6.565  16.029  2.2051 -0.3172 -1.0211
12349TIP3   OH258461   2.530   1.855   2.854 -0.2165 -0.0189 -0.1540
12349TIP3    H158462   2.584   1.861   2.933 -0.2851 -1.1229 -0.0211
12349TIP3    H258463   2.447   1.818   2.884 -0.1839 -0.5985 -0.7635
12350TIP3   OH258464   1.024   3.141   1.447  0.6154  0.0390 -0.0104
12350TIP3    H158465   1.095   3.165   1.508 -0.5233  2.4454  0.4490
12350TIP3    H258466   1.067   3.139   1.361  1.6890 -0.6712  0.5330
12351TIP3   OH258467   3.496   3.382  13.885 -0.0581 -0.0886  0.5014
12351TIP3    H158468   3.459   3.421  13.806  0.6486 -0.6443 -0.1105
12351TIP3    H258469   3.426   3.327  13.920 -0.0955 -0.4833 -0.1904
12352TIP3   OH258470   0.079   5.297  15.749  0.1804  0.4397  0.4193
12352TIP3    H158471  -0.007   5.338  15.754 -0.6983 -1.5463  1.8591
12352TIP3    H258472   0.062   5.203  15.742  2.2073  0.1058 -0.6109
12353TIP3   OH258473   5.973   0.077   3.761  0.4234  0.1295 -0.3148
12353TIP3    H158474   5.878   0.069   3.750  0.4755 -0.1171 -0.5728
12353TIP3    H258475   6.010   0.009   3.706  0.7957  0.8778 -1.0066
12354TIP3   OH258476   4.977   1.886   1.090  0.1295  0.2176 -0.1032
12354TIP3    H158477   5.043   1.817   1.086  0.0662  0.1193  0.5736
12354TIP3    H258478   5.022   1.962   1.127  0.0704  0.3920 -0.3848
12355TIP3   OH258479   1.626   1.022   6.269 -0.1574 -0.0092 -0.4138
12355TIP3    H158480   1.715   1.054   6.280 -0.3379  0.8331 -1.2496
12355TIP3    H258481   1.571   1.098   6.288 -0.6119  0.1344 -2.1746
12356TIP3   OH258482   1.816   4.693   2.105 -0.0904  0.4659 -0.1645
12356TIP3    H158483   1.809   4.701   2.010 -0.3000 -0.2269 -0.2065
12356TIP3    H258484   1.889   4.750   2.128  1.7562 -1.5059 -1.0328
12357TIP3   OH258485   4.241   2.742  14.990  0.0925  0.4942  0.0510
12357TIP3    H158486   4.322   2.789  15.010  0.5379 -0.3414  0.2327
12357TIP3    H258487   4.242   2.666  15.049  0.8397 -1.3647 -2.2653
12358TIP3   OH258488   5.327   3.609  10.869  0.3385  0.0339  0.3173
12358TIP3    H158489   5.235   3.613  10.843  0.9940  2.7825 -1.8522
12358TIP3    H258490   5.359   3.528  10.831 -0.4826  0.5012 -1.4304
12359TIP3   OH258491   6.763   5.036  13.425 -0.0708 -0.7189  0.2608
12359TIP3    H158492   6.833   5.027  13.360 -1.7805  1.1534 -1.8854
12359TIP3    H258493   6.685   5.004  13.381 -1.0681 -0.4608  1.7951
12360TIP3   OH258494   0.410   2.207   4.264 -0.3177 -0.6418  0.3508
12360TIP3    H158495   0.434   2.124   4.305 -0.4831 -0.5316  0.6653
12360TIP3    H258496   0.420   2.272   4.333 -0.4612 -0.4373  0.1788
12361TIP3   OH258497   1.857   3.013   0.336  0.2716  0.2010 -0.2391
12361TIP3    H158498   1.816   2.980   0.416 -0.3404  0.1638 -0.5664
12361TIP3    H258499   1.834   2.950   0.268  1.3765 -0.1362 -0.3066
12362TIP3   OH258500   2.881   0.693  10.617 -0.4489  0.2388  0.5900
12362TIP3    H158501   2.828   0.736  10.685 -0.7006 -0.1930  0.6624
12362TIP3    H258502   2.828   0.699  10.538 -0.1893  0.6703  0.4429
12363TIP3   OH258503   4.240   2.527  13.206 -0.0971 -0.0334 -0.7014
12363TIP3    H158504   4.178   2.454  13.202 -0.4696  0.3266 -1.6236
12363TIP3    H258505   4.248   2.557  13.116 -0.5336  1.5557 -0.2339
12364TIP3   OH258506   1.499   6.643  13.453  0.3327 -0.1293 -0.4155
12364TIP3    H158507   1.569   6.695  13.494  1.0339 -0.8943 -0.6348
12364TIP3    H258508   1.525   6.637  13.362  0.9227 -1.9456 -0.1476
12365TIP3   OH258509   0.966   3.977  11.472 -0.0978  0.6412  0.1335
12365TIP3    H158510   0.943   4.009  11.385 -0.2576 -1.7342 -0.7149
12365TIP3    H258511   0.886   3.936  11.505  0.4276  0.0984  0.7431
12366TIP3   OH258512   0.385   3.300  13.843 -0.4539 -0.6681  0.0062
12366TIP3    H158513   0.327   3.370  13.870  1.3478  0.6694  0.4867
12366TIP3    H258514   0.365   3.286  13.751 -0.1539  1.1671 -0.3557
12367TIP3   OH258515   0.133   0.413  16.632  0.2432 -0.5470 -0.5701
12367TIP3    H158516   0.072   0.343  16.609 -1.5040  0.5678  0.6247
12367TIP3    H258517   0.087   0.465  16.698  1.8655  1.2432 -0.8102
12368TIP3   OH258518   0.130   4.674   4.753  0.1338 -0.1846 -0.1043
12368TIP3    H158519   0.098   4.687   4.842  2.9746 -0.3784  0.9928
12368TIP3    H258520   0.157   4.761   4.724 -2.3741  0.1872 -1.4632
12369TIP3   OH258521   6.177   4.134   1.113  0.2283  0.3192  0.2810
12369TIP3    H158522   6.236   4.164   1.043  0.3212  0.9867  0.6399
12369TIP3    H258523   6.192   4.195   1.184 -1.7221  1.1637 -0.0099
12370TIP3   OH258524   1.473   5.366   0.317  0.1001  0.2229 -0.4624
12370TIP3    H158525   1.434   5.453   0.314 -0.5459 -0.0373  0.2072
12370TIP3    H258526   1.502   5.350   0.227  0.2579  1.1402 -0.5780
12371TIP3   OH258527   1.893   5.925  16.807 -0.0202 -0.1126 -0.1554
12371TIP3    H158528   1.829   5.919  16.737 -0.7172  0.3306  0.4329
12371TIP3    H258529   1.971   5.881  16.773 -0.7448 -0.9331 -0.7531
12372TIP3   OH258530   1.641   0.703   5.217 -0.6845 -0.2899 -0.1389
12372TIP3    H158531   1.628   0.767   5.287 -0.9994  0.3414 -0.7717
12372TIP3    H258532   1.603   0.622   5.252 -0.4048 -0.1025  0.6070
12373TIP3   OH258533   2.563   4.966  10.512  0.0419 -0.1800 -0.5686
12373TIP3    H158534   2.599   5.052  10.534 -1.2634  0.0888  0.6179
12373TIP3    H258535   2.491   4.985  10.451  0.2964 -0.5043 -0.9734
12374TIP3   OH258536   6.032   0.957  14.842  0.0873 -0.5080 -0.4799
12374TIP3    H158537   6.109   1.011  14.826  1.4252 -1.0166  3.5781
12374TIP3    H258538   5.959   1.019  14.842  0.7930  0.3490 -1.8176
12375TIP3   OH258539   2.264   5.623  11.709 -0.8112  0.5870  0.0245
12375TIP3    H158540   2.304   5.702  11.672 -2.3369  1.8816  1.0686
12375TIP3    H258541   2.197   5.656  11.768  1.0325 -1.4520  3.4056
12376TIP3   OH258542   3.389   0.171  15.733 -0.5432 -0.5476  0.2680
12376TIP3    H158543   3.382   0.163  15.828  1.3229  1.2590  0.5878
12376TIP3    H258544   3.442   0.250  15.719 -0.0593 -1.2781 -2.2666
12377TIP3   OH258545   4.384   4.370  10.147 -0.0999  0.1133 -0.6445
12377TIP3    H158546   4.417   4.451  10.109  1.6733 -0.6844 -0.8742
12377TIP3    H258547   4.439   4.356  10.224 -2.0391  0.4194  0.8115
12378TIP3   OH258548   1.280   3.953   2.752  0.3307  0.0608  0.1837
12378TIP3    H158549   1.368   3.985   2.729  0.6979 -2.2942 -1.7674
12378TIP3    H258550   1.227   3.970   2.675 -0.1966 -1.3332  0.2382
12379TIP3   OH258551   3.843   1.413   0.427  0.3971 -0.0739  0.0759
12379TIP3    H158552   3.775   1.356   0.390  0.8342  0.0077 -0.8758
12379TIP3    H258553   3.796   1.492   0.453  0.5441  1.2613 -3.4467
12380TIP3   OH258554   1.704   1.884   1.981 -0.6441  0.0381 -0.2886
12380TIP3    H158555   1.638   1.838   1.929  0.5625  1.0268 -2.7191
12380TIP3    H258556   1.683   1.977   1.969  0.0448  0.2949  0.4668
12381TIP3   OH258557   4.143   0.852   2.264  0.2789  0.6274  0.5202
12381TIP3    H158558   4.055   0.818   2.281  0.6424  0.2450  1.7676
12381TIP3    H258559   4.159   0.833   2.172  0.1802 -1.9730  0.9970
12382TIP3   OH258560   4.711   0.411   1.934 -0.6756 -0.2665  0.3364
12382TIP3    H158561   4.719   0.368   1.849  1.2738  0.0219  0.3389
12382TIP3    H258562   4.757   0.494   1.923 -0.7102 -0.0804  1.5609
12383TIP3   OH258563   5.976   1.055   4.049  0.1868 -0.1309  0.3893
12383TIP3    H158564   6.027   0.975   4.040 -0.4258 -0.2934 -1.9898
12383TIP3    H258565   5.919   1.038   4.124  1.7662 -0.9628  1.4217
12384TIP3   OH258566   4.923   5.977  13.552 -0.2923 -0.0940 -0.0692
12384TIP3    H158567   4.894   6.033  13.624  0.2394 -0.2604  0.2770
12384TIP3    H258568   4.859   5.993  13.482 -1.0487 -0.2360  0.5749
12385TIP3   OH258569   0.132   4.585   5.286  0.1072  0.7156 -0.1636
12385TIP3    H158570   0.076   4.527   5.235 -1.4352  1.9728  0.0605
12385TIP3    H258571   0.186   4.527   5.339  0.8214 -0.5693 -2.2821
12386TIP3   OH258572   6.668   1.612   0.457 -0.1159  0.1169  0.3773
12386TIP3    H158573   6.599   1.674   0.433 -0.2937 -0.6259 -1.1124
12386TIP3    H258574   6.625   1.526   0.455  0.7030 -0.2928  0.0122
12387TIP3   OH258575   1.213   2.379   2.681  0.3286 -0.0455  0.5709
12387TIP3    H158576   1.215   2.468   2.647  0.7411  0.1300  1.0565
12387TIP3    H258577   1.130   2.374   2.729 -0.0889 -0.1852 -0.1561
12388TIP3   OH258578   3.326   3.539  16.105  0.1467  0.3238 -0.2415
12388TIP3    H158579   3.296   3.505  16.189 -0.3196 -1.0943 -0.9650
12388TIP3    H258580   3.406   3.490  16.086  0.3947  0.8258 -0.4941
12389TIP3   OH258581   2.925   2.214  14.312  0.2002 -0.3429 -0.2681
12389TIP3    H158582   3.013   2.176  14.322  0.3695  0.3266  0.7856
12389TIP3    H258583   2.931   2.264  14.231  0.2716 -1.7250 -1.1430
12390TIP3   OH258584   2.331   3.921  12.408  0.0204 -0.1410 -1.0007
12390TIP3    H158585   2.424   3.910  12.389 -0.2233 -0.1201 -2.1974
12390TIP3    H258586   2.289   3.844  12.370 -0.1394 -1.6122  2.0215
12391TIP3   OH258587   4.348   0.437   4.742  0.9530 -0.0503 -0.2932
12391TIP3    H158588   4.390   0.352   4.726 -0.3852 -0.9679  0.9099
12391TIP3    H258589   4.262   0.429   4.700 -0.1815 -0.2619  1.9774
12392TIP3   OH258590   1.879   0.499   5.495  0.2458 -0.3329  0.6789
12392TIP3    H158591   1.827   0.450   5.559 -3.1879 -1.5272 -2.7629
12392TIP3    H258592   1.826   0.577   5.477  0.7702 -0.3666 -1.1270
12393TIP3   OH258593   0.753   6.078  14.675 -0.0067  0.4436  0.0774
12393TIP3    H158594   0.847   6.061  14.678 -0.3645 -1.8656 -1.1599
12393TIP3    H258595   0.718   6.033  14.752 -0.3733 -0.5266 -0.6545
12394TIP3   OH258596   6.582   3.808   3.609  0.5326 -0.2213  0.1730
12394TIP3    H158597   6.647   3.738   3.606  0.3060 -0.4439  0.4242
12394TIP3    H258598   6.625   3.883   3.567  0.7249 -0.5491 -0.2148
12395TIP3   OH258599   5.285   0.968   0.679  0.3700 -0.2643  0.1212
12395TIP3    H158600   5.254   0.881   0.653  0.0830 -0.4116  0.9431
12395TIP3    H258601   5.236   0.988   0.759 -0.4448  1.1597 -0.7165
12396TIP3   OH258602   3.546   3.642  14.390 -0.0006  0.2679 -0.0341
12396TIP3    H158603   3.523   3.731  14.364  0.2484 -0.1297 -1.6772
12396TIP3    H258604   3.632   3.650  14.432  1.2593  0.4869 -2.5316
12397TIP3   OH258605   3.017   0.795  11.058  0.3199  0.0018  0.4469
12397TIP3    H158606   3.053   0.878  11.089 -2.1514  1.4934 -0.5777
12397TIP3    H258607   3.038   0.793  10.965 -1.1605  0.3255  0.0944
12398TIP3   OH258608   3.634   5.604   0.380 -0.0343  0.1920 -0.2717
12398TIP3    H158609   3.572   5.677   0.387 -2.2140 -1.7017  1.0439
12398TIP3    H258610   3.699   5.622   0.448  0.0142  1.4037 -0.6191
12399TIP3   OH258611   1.417   2.486  16.417 -0.4351  0.1023  0.4265
12399TIP3    H158612   1.487   2.472  16.481  0.9589 -2.7018 -1.5730
12399TIP3    H258613   1.459   2.531  16.344 -1.2460  0.4630  0.1760
12400TIP3   OH258614   2.756   4.745  12.144 -0.5188 -0.3963  0.0514
12400TIP3    H158615   2.833   4.695  12.117  0.8621  0.5938  2.0155
12400TIP3    H258616   2.771   4.834  12.110  0.3848  0.4031  2.4215
12401TIP3   OH258617   1.562   5.148  10.978  0.2425  0.0410  0.5887
12401TIP3    H158618   1.534   5.122  11.066  0.1301 -0.3873  0.4255
12401TIP3    H258619   1.480   5.156  10.929  0.2695  0.8134  0.6690
12402TIP3   OH258620   6.107   2.433   3.603  0.1330  0.3652  0.2197
12402TIP3    H158621   6.154   2.511   3.633  0.9949 -0.4025  0.9176
12402TIP3    H258622   6.104   2.376   3.680  1.0511 -1.0167 -0.7326
12403TIP3   OH258623   4.512   1.488  16.751  0.7443 -0.1886  0.2238
12403TIP3    H158624   4.432   1.539  16.762 -0.0589 -1.0594 -1.3786
12403TIP3    H258625   4.569   1.544  16.699  0.2913 -0.4700 -0.5814
12404TIP3   OH258626   6.407   2.568   3.256  0.0552 -0.0355 -0.1076
12404TIP3    H158627   6.361   2.647   3.283  1.1185  0.1044  1.4067
12404TIP3    H258628   6.418   2.518   3.337  0.6909 -1.0444 -0.7969
12405TIP3   OH258629   5.248   6.336   3.862 -0.1524 -0.0808  0.3579
12405TIP3    H158630   5.237   6.247   3.895  0.2524 -0.4601 -0.5037
12405TIP3    H258631   5.286   6.384   3.935 -0.4641 -0.5915  0.8612
12406TIP3   OH258632   3.007   0.357  13.173 -0.1072  0.7138 -0.2325
12406TIP3    H158633   3.101   0.369  13.167 -0.0394  1.5806  1.8287
12406TIP3    H258634   2.995   0.264  13.191  0.4715  0.8940  1.1475
12407TIP3   OH258635   2.682   2.236   2.679  0.0960  0.3852 -0.2887
12407TIP3    H158636   2.687   2.142   2.660  0.6599  0.5923 -1.2309
12407TIP3    H258637   2.767   2.270   2.651 -0.7224  1.4436 -1.5668
12408TIP3   OH258638   5.922   0.525  13.499  0.6250  0.1433 -0.1303
12408TIP3    H158639   5.916   0.511  13.593  1.4441 -0.8666 -0.2176
12408TIP3    H258640   5.854   0.470  13.462  1.3718 -0.7369 -0.2243
12409TIP3   OH258641   0.813   1.246   5.921  0.1341  0.4143 -0.3009
12409TIP3    H158642   0.851   1.247   6.009  1.5855  1.2223 -0.9041
12409TIP3    H258643   0.813   1.154   5.895 -1.0785  0.0840  0.8658
12410TIP3   OH258644   6.184   4.061   5.719 -0.1469  0.3771 -0.1560
12410TIP3    H158645   6.235   4.129   5.676 -0.9296  2.1239  1.6302
12410TIP3    H258646   6.168   4.094   5.807 -3.2398 -0.7005 -0.2520
12411TIP3   OH258647   4.441   4.681   5.567 -0.5992  0.0519  0.1978
12411TIP3    H158648   4.427   4.587   5.580  1.4327 -0.4157 -0.7679
12411TIP3    H258649   4.479   4.711   5.650  1.4174 -0.5826 -0.4618
12412TIP3   OH258650   4.650   3.468   6.694  0.6855 -0.2583 -0.1879
12412TIP3    H158651   4.694   3.467   6.609  0.1598  0.1778 -0.4705
12412TIP3    H258652   4.689   3.541   6.741  1.1426 -0.6465  0.0333
12413TIP3   OH258653   0.885   0.625  11.610 -0.2817 -0.0752 -0.1653
12413TIP3    H158654   0.963   0.584  11.572  1.2886  0.1538  2.6887
12413TIP3    H258655   0.880   0.711  11.569  0.2606 -0.5636 -1.2549
12414TIP3   OH258656   6.150   6.200  16.775 -0.4728  0.0246 -0.0968
12414TIP3    H158657   6.150   6.203  16.679  1.8669 -3.3353 -0.2781
12414TIP3    H258658   6.062   6.171  16.798 -0.4784 -0.9986 -1.3429
12415TIP3   OH258659   2.437   2.914  14.141 -0.0425 -0.0664  0.0865
12415TIP3    H158660   2.512   2.926  14.082  1.5988  0.0490  2.1349
12415TIP3    H258661   2.394   2.835  14.109 -0.1064  0.8366 -2.1905
12416TIP3   OH258662   6.121   5.278   0.641 -0.7085  0.1243 -0.2409
12416TIP3    H158663   6.150   5.323   0.719  1.5398  0.6014 -1.3167
12416TIP3    H258664   6.101   5.189   0.670  1.1758 -0.0080  0.6819
12417TIP3   OH258665   6.111   3.957   5.499 -0.2576  0.1614  0.1174
12417TIP3    H158666   6.159   3.878   5.475  0.4963  0.7154 -0.2236
12417TIP3    H258667   6.140   3.978   5.587 -1.8326 -0.9687  0.9260
12418TIP3   OH258668   3.548   5.952   6.245  0.5373  0.4020  0.3440
12418TIP3    H158669   3.566   5.868   6.204 -0.2818  0.3018  0.1737
12418TIP3    H258670   3.584   6.017   6.184  2.4837  0.1395  1.1805
12419TIP3   OH258671   2.853   3.095  14.079 -0.4333  0.2963  0.2380
12419TIP3    H158672   2.799   3.066  14.151 -0.3003 -1.5057 -0.3640
12419TIP3    H258673   2.878   3.015  14.033  3.0827  1.0072  0.7399
12420TIP3   OH258674   4.110   0.353   3.869  0.4939 -0.0535 -0.4243
12420TIP3    H158675   4.158   0.310   3.798 -0.0961  0.1816 -0.9611
12420TIP3    H258676   4.128   0.446   3.857  0.9426 -0.0662  0.1367
12421TIP3   OH258677   0.669   2.674  11.465 -0.6072  0.3805 -0.3303
12421TIP3    H158678   0.716   2.752  11.434  2.5377 -0.8865  0.9881
12421TIP3    H258679   0.634   2.634  11.386  2.1185  0.4229 -1.6181
12422TIP3   OH258680   5.679   0.207   1.907 -0.0525  0.0559 -0.5859
12422TIP3    H158681   5.609   0.237   1.965  0.9119 -0.4516  0.8831
12422TIP3    H258682   5.651   0.121   1.877 -0.9798  0.7124 -1.5992
12423TIP3   OH258683   3.465   3.655  16.600  0.0038 -0.1169  0.0775
12423TIP3    H158684   3.501   3.680  16.515 -0.1884  4.1861  1.1135
12423TIP3    H258685   3.375   3.630  16.581 -0.3160  1.6634 -0.9429
12424TIP3   OH258686   3.324   2.166   2.896  0.4204 -0.0521  0.0073
12424TIP3    H158687   3.363   2.081   2.916 -0.5252 -0.3383  0.7246
12424TIP3    H258688   3.370   2.228   2.953 -0.8821 -0.5563  1.6588
12425TIP3   OH258689   4.835   2.497   4.731 -0.4288 -0.0563  0.2442
12425TIP3    H158690   4.891   2.546   4.791 -0.6762  0.1159  0.3387
12425TIP3    H258691   4.791   2.432   4.786 -0.5558  0.0139  0.2273
12426TIP3   OH258692   4.216   1.691  13.831 -0.0828 -0.1356  0.1559
12426TIP3    H158693   4.129   1.655  13.850  0.0984 -1.1317 -0.7955
12426TIP3    H258694   4.208   1.784  13.849 -1.9828  0.1671 -1.9244
12427TIP3   OH258695   5.641   6.239  12.785 -0.5721  0.1382 -0.1589
12427TIP3    H158696   5.558   6.237  12.739  0.1180 -0.6745 -1.3820
12427TIP3    H258697   5.624   6.193  12.867 -0.3913 -3.2914 -1.9946
12428TIP3   OH258698   1.117   0.463   6.067 -0.0751  0.0292  0.8721
12428TIP3    H158699   1.089   0.553   6.085  0.8584  0.4389  0.3045
12428TIP3    H258700   1.084   0.413   6.141 -1.4253  0.6758  0.7256
12429TIP3   OH258701   5.652   3.610   0.609  0.3354 -0.3316 -0.0721
12429TIP3    H158702   5.640   3.520   0.577 -0.4861 -0.8072  1.5474
12429TIP3    H258703   5.723   3.604   0.672  0.2794  0.1692  0.0411
12430TIP3   OH258704   2.799   2.259  12.109  0.1125  0.4201  0.2861
12430TIP3    H158705   2.743   2.200  12.060  1.1743  1.8021 -2.6852
12430TIP3    H258706   2.883   2.213  12.117 -0.1051  0.1345  0.9539
12431TIP3   OH258707   0.519   3.733   6.353  0.4484 -0.4822 -0.1179
12431TIP3    H158708   0.550   3.718   6.443 -0.5117  0.5324  0.3967
12431TIP3    H258709   0.587   3.788   6.315 -1.5914  3.4798  1.6662
12432TIP3   OH258710   4.879   4.791   0.095  0.2167 -0.6297  0.1268
12432TIP3    H158711   4.968   4.824   0.088 -0.4000  1.5665  1.9531
12432TIP3    H258712   4.885   4.718   0.157  0.5096  0.6741  1.6887
12433TIP3   OH258713   0.369   0.251   4.720  0.1447  0.0276  0.5218
12433TIP3    H158714   0.422   0.321   4.760 -0.2536  0.7953 -0.2641
12433TIP3    H258715   0.423   0.219   4.648 -0.4554  0.8288 -0.2955
12434TIP3   OH258716   0.120   5.839   4.576  0.7847 -0.1765 -0.0205
12434TIP3    H158717   0.187   5.844   4.508  1.0799  0.4421  0.3168
12434TIP3    H258718   0.167   5.852   4.658  0.2557  0.2827  0.2184
12435TIP3   OH258719   1.166   4.135  11.284  0.1668  0.0675  0.0804
12435TIP3    H158720   1.128   4.194  11.219  0.9045 -0.6243 -1.0227
12435TIP3    H258721   1.116   4.053  11.275 -3.0063  1.4561  3.8499
12436TIP3   OH258722   5.684   4.227  16.335  0.2873  0.1924 -0.1432
12436TIP3    H158723   5.644   4.256  16.253 -0.3426 -1.4068 -0.4023
12436TIP3    H258724   5.757   4.171  16.308  2.5654  2.7993  0.3307
12437TIP3   OH258725   6.372   4.516   2.662 -0.1128 -0.1305  0.4101
12437TIP3    H158726   6.349   4.604   2.632  1.6821  0.2100 -0.0211
12437TIP3    H258727   6.355   4.518   2.756 -1.1332  0.3105  0.2343
12438TIP3   OH258728   1.163   6.341   2.246  0.4333 -0.1105  0.9121
12438TIP3    H158729   1.169   6.433   2.272  1.8175  0.0990 -0.0897
12438TIP3    H258730   1.100   6.341   2.174  0.6584  0.1041  0.7139
12439TIP3   OH258731   3.971   3.748  14.697 -0.1868 -0.5081  0.5287
12439TIP3    H158732   4.064   3.729  14.687 -0.1148 -1.0162  2.1945
12439TIP3    H258733   3.960   3.834  14.656  0.8599 -0.7841 -0.3483
12440TIP3   OH258734   6.438   0.095   4.059 -0.1686 -0.3006 -0.5057
12440TIP3    H158735   6.413   0.105   3.967 -0.1965  0.0258 -0.4612
12440TIP3    H258736   6.450   0.184   4.091  1.0736 -0.4373 -0.5354
12441TIP3   OH258737   1.705   3.311  15.354  0.3053 -0.2659 -1.0227
12441TIP3    H158738   1.739   3.223  15.370 -1.7700 -1.1595 -1.3969
12441TIP3    H258739   1.706   3.354  15.439 -0.4435 -1.3096 -0.4765
12442TIP3   OH258740   0.743   6.698   5.452  0.9368 -0.6532  0.9159
12442TIP3    H158741   0.706   6.784   5.472 -0.3835 -0.9278 -0.2838
12442TIP3    H258742   0.838   6.712   5.450  0.7043  0.8609  0.3031
12443TIP3   OH258743   4.263   2.151   3.586 -0.0573  0.2429 -0.6113
12443TIP3    H158744   4.199   2.080   3.593  0.1998 -0.0023 -0.7292
12443TIP3    H258745   4.333   2.115   3.532 -0.7131  1.1722 -2.1148
12444TIP3   OH258746   2.857   5.234   3.645 -0.0966 -0.4114 -0.6226
12444TIP3    H158747   2.918   5.206   3.578 -0.5336 -0.6585 -0.9214
12444TIP3    H258748   2.885   5.323   3.668 -0.5262  0.0423 -1.8247
12445TIP3   OH258749   1.295   6.735   0.989  0.2109 -0.6161 -0.3832
12445TIP3    H158750   1.211   6.774   1.014  0.5928 -0.0676  0.0517
12445TIP3    H258751   1.285   6.642   1.008 -0.2561 -0.5375 -0.2281
12446TIP3   OH258752   2.348   1.658   1.725  0.3918  0.0714 -0.1515
12446TIP3    H158753   2.393   1.618   1.800 -1.0579  0.4659  0.9379
12446TIP3    H258754   2.271   1.701   1.762  1.4125  3.1584 -1.3743
12447TIP3   OH258755   6.198   2.239  14.944  0.2570 -0.3390 -0.3645
12447TIP3    H158756   6.184   2.330  14.920 -1.1369 -0.5127 -0.2487
12447TIP3    H258757   6.128   2.191  14.899  1.3524 -1.4339 -0.9461
12448TIP3   OH258758   0.434   4.228   0.758 -0.1972  0.0813  0.5174
12448TIP3    H158759   0.407   4.314   0.789  0.0844 -0.5153  2.5198
12448TIP3    H258760   0.466   4.243   0.669 -0.3282  2.0064  0.7799
12449TIP3   OH258761   5.509   0.383  16.961 -0.2236  0.4194  0.3148
12449TIP3    H158762   5.436   0.323  16.950 -0.6649  1.2083 -1.1775
12449TIP3    H258763   5.574   0.354  16.897 -0.0537  0.9281  0.2523
12450TIP3   OH258764   5.522   5.691   1.696 -0.6458 -0.4413  0.2535
12450TIP3    H158765   5.603   5.730   1.664 -1.8359 -0.6416 -3.1776
12450TIP3    H258766   5.533   5.597   1.683 -0.3691 -0.7579  2.4498
12451TIP3   OH258767   1.116   1.648  17.063  0.4484  0.4051 -0.3238
12451TIP3    H158768   1.058   1.718  17.034 -1.7882 -0.6428  1.4434
12451TIP3    H258769   1.080   1.569  17.023  0.8379 -0.2290  0.5511
12452TIP3   OH258770   4.996   1.789   1.751 -0.1516  0.5808  0.3042
12452TIP3    H158771   5.049   1.738   1.812 -2.1954 -1.4780  0.4138
12452TIP3    H258772   5.005   1.743   1.667 -0.0232  1.4751 -0.1814
12453TIP3   OH258773   2.893   3.467   1.233 -0.3471 -0.0780  0.3163
12453TIP3    H158774   2.983   3.493   1.252 -0.0509 -1.2704  0.5642
12453TIP3    H258775   2.853   3.545   1.194  0.5042  0.7652  1.1053
12454TIP3   OH258776   2.755   6.460   1.625 -0.2807  0.3559  0.0888
12454TIP3    H158777   2.787   6.436   1.538 -0.7175 -0.2700  0.0985
12454TIP3    H258778   2.697   6.534   1.609  0.4787  0.9332 -0.0285
12455TIP3   OH258779   3.632   5.661   4.722 -0.0257  0.1406 -0.7235
12455TIP3    H158780   3.670   5.578   4.748  1.0557  0.8288 -0.0452
12455TIP3    H258781   3.542   5.640   4.698 -0.0563 -1.0580  0.3857
12456TIP3   OH258782   0.820   4.272  14.692 -0.0979 -0.1310  0.1911
12456TIP3    H158783   0.913   4.248  14.694 -0.3947 -1.3830 -0.8012
12456TIP3    H258784   0.793   4.269  14.784  1.1056  1.3407  0.6163
12457TIP3   OH258785   0.163   2.340  15.845 -0.4332 -0.0109 -0.2213
12457TIP3    H158786   0.167   2.367  15.753 -2.4555  0.8399 -0.0794
12457TIP3    H258787   0.221   2.401  15.890  0.6971 -0.5315 -0.9399
12458TIP3   OH258788   3.978   6.770   4.060 -0.8029 -0.2139  1.0041
12458TIP3    H158789   4.065   6.742   4.088 -0.4990 -0.7048 -0.3987
12458TIP3    H258790   3.939   6.693   4.020 -1.3064  0.4024  0.2783
12459TIP3   OH258791   2.928   5.013   4.473 -0.3197  0.3743  0.2564
12459TIP3    H158792   2.967   4.951   4.534  2.4048  1.1091 -0.6649
12459TIP3    H258793   2.870   5.066   4.528 -1.8582 -2.2176  1.2450
12460TIP3   OH258794   0.158   6.407  15.445  0.3712  0.3094  0.1034
12460TIP3    H158795   0.181   6.351  15.370  0.0863  1.8606 -1.1796
12460TIP3    H258796   0.218   6.481  15.439 -1.7696  2.0790 -0.5492
12461TIP3   OH258797   1.168   4.061  15.345 -0.3631 -0.3506 -0.1591
12461TIP3    H158798   1.191   4.027  15.258 -1.9366 -1.2053 -0.2535
12461TIP3    H258799   1.197   3.993  15.406  0.7178  0.2387  0.0046
12462TIP3   OH258800   4.765   2.271  16.921  0.1126 -0.0376  0.0198
12462TIP3    H158801   4.692   2.273  16.983 -1.2190  2.1096 -1.5499
12462TIP3    H258802   4.826   2.338  16.952  0.6066 -0.6328  0.3509
12463TIP3   OH258803   2.621   3.777   2.786 -0.0105  0.5071  0.3859
12463TIP3    H158804   2.680   3.781   2.711 -1.3721 -0.4040 -0.7543
12463TIP3    H258805   2.607   3.869   2.809 -0.0647  0.8258 -0.8556
12464TIP3   OH258806   5.163   1.237   2.712  0.1715 -0.4432 -0.5633
12464TIP3    H158807   5.077   1.196   2.703  0.3092 -0.4394 -2.0414
12464TIP3    H258808   5.145   1.321   2.755 -0.3061 -1.3042  0.9613
12465TIP3   OH258809   1.344   6.705   6.501  0.1293  0.2183  0.0062
12465TIP3    H158810   1.416   6.740   6.449 -0.0127  1.2264  0.4821
12465TIP3    H258811   1.312   6.780   6.552 -0.0302 -0.6341  1.1949
12466TIP3   OH258812   1.441   2.357  13.007  0.3803  0.0284 -0.3137
12466TIP3    H158813   1.414   2.277  12.963  1.1851 -0.2934 -0.2390
12466TIP3    H258814   1.384   2.425  12.972  0.1725 -0.4508 -0.9097
12467TIP3   OH258815   5.011   4.585  12.726 -0.8184  0.3771  0.0124
12467TIP3    H158816   5.056   4.574  12.809 -0.3465  0.4542 -0.2330
12467TIP3    H258817   4.920   4.602  12.750 -0.9243 -0.8462  0.4719
12468TIP3   OH258818   0.705   5.412   4.595  0.2507  0.3836  0.2352
12468TIP3    H158819   0.745   5.498   4.586  2.0337 -0.3625  0.9418
12468TIP3    H258820   0.626   5.428   4.647  1.2715  1.3840  1.5181
12469TIP3   OH258821   2.663   3.280   1.289  0.2851  0.8336 -0.0820
12469TIP3    H158822   2.727   3.350   1.272  1.5417 -0.2547  0.0966
12469TIP3    H258823   2.593   3.296   1.227  1.4545  1.1464 -1.3477
12470TIP3   OH258824   5.586   2.469  15.121 -0.4016 -0.1342 -0.1053
12470TIP3    H158825   5.503   2.513  15.140 -0.2127  1.0586 -1.9109
12470TIP3    H258826   5.637   2.534  15.071  0.9704 -1.4196 -0.4101
12471TIP3   OH258827   0.679   3.651  11.594  0.4065 -0.2501  0.2090
12471TIP3    H158828   0.702   3.649  11.501  1.6376 -1.2908  0.5226
12471TIP3    H258829   0.748   3.600  11.637 -0.8185 -0.8152  1.5489
12472TIP3   OH258830   1.576   5.594   3.416 -0.0093  0.8886  0.5648
12472TIP3    H158831   1.507   5.656   3.439  0.2788  1.0599  0.9789
12472TIP3    H258832   1.604   5.558   3.501 -1.9925 -1.7845  0.1781
12473TIP3   OH258833   3.028   0.180  12.410  0.1064 -0.0003 -0.4424
12473TIP3    H158834   3.111   0.165  12.364 -0.2391  0.6570 -1.2999
12473TIP3    H258835   3.026   0.112  12.477  0.5906 -1.0618 -1.4626
12474TIP3   OH258836   4.937   2.160   4.077  0.0942 -0.0146 -0.0867
12474TIP3    H158837   5.000   2.231   4.063 -1.1585  1.4177  1.3321
12474TIP3    H258838   4.910   2.169   4.168 -1.3739 -1.2667 -0.3689
12475TIP3   OH258839   1.158   2.372  13.751 -0.2308 -0.1434  0.7222
12475TIP3    H158840   1.176   2.384  13.658 -1.2705  1.2499  0.6777
12475TIP3    H258841   1.136   2.280  13.760 -0.4461 -0.2107 -0.4665
12476TIP3   OH258842   1.087   2.618   4.021 -0.2468 -0.2276  0.3348
12476TIP3    H158843   1.022   2.548   4.022  1.3243 -1.7257  0.7244
12476TIP3    H258844   1.150   2.591   3.953  0.6418  0.5294  0.8467
12477TIP3   OH258845   2.958   1.370   0.308  0.1942 -0.5371  0.2581
12477TIP3    H158846   2.960   1.277   0.331 -1.1910 -1.0420 -1.6331
12477TIP3    H258847   3.034   1.382   0.251 -1.0642 -1.0560 -1.5345
12478TIP3   OH258848   2.726   2.463   5.886 -0.8496  0.0584 -0.1456
12478TIP3    H158849   2.689   2.375   5.895 -0.4231 -0.2541 -1.3540
12478TIP3    H258850   2.652   2.517   5.857 -0.5587 -0.4197 -1.8468
12479TIP3   OH258851   1.153   6.238   5.337  0.2088  0.0619  0.0533
12479TIP3    H158852   1.160   6.248   5.243 -0.6546 -1.8984 -0.2419
12479TIP3    H258853   1.115   6.320   5.368 -1.4883 -0.1035 -1.5596
12480TIP3   OH258854   5.850   2.498   3.124  0.3395 -0.0935  0.2043
12480TIP3    H158855   5.869   2.568   3.186  1.3454  1.5687 -1.8930
12480TIP3    H258856   5.933   2.453   3.112  0.4506  0.3750 -0.8442
12481TIP3   OH258857   6.430   2.785   2.269  0.4602  1.0017  0.1549
12481TIP3    H158858   6.440   2.777   2.174  0.7169 -1.1899  0.3472
12481TIP3    H258859   6.335   2.792   2.282  0.1278 -2.3987 -0.0520
12482TIP3   OH258860   6.724   6.691  12.951  0.5013 -0.2545 -0.3615
12482TIP3    H158861   6.781   6.674  12.876  1.7395 -0.1450  0.5596
12482TIP3    H258862   6.745   6.623  13.014 -0.9833 -0.7192 -0.3491
12483TIP3   OH258863   0.235   3.385  16.089  0.1375 -0.3580 -0.3356
12483TIP3    H158864   0.162   3.339  16.132  0.8209 -1.7595 -0.6711
12483TIP3    H258865   0.199   3.412  16.004 -0.9637  1.7177  0.7295
12484TIP3   OH258866   0.813   1.671   2.151  0.2030 -0.4824  0.0120
12484TIP3    H158867   0.731   1.663   2.200 -0.5396  0.0038 -1.1348
12484TIP3    H258868   0.831   1.583   2.120 -1.0859 -0.1941 -1.6245
12485TIP3   OH258869   6.179   4.470  15.471 -0.2585  0.4486  0.5936
12485TIP3    H158870   6.127   4.549  15.487  1.0862  1.7729 -1.2698
12485TIP3    H258871   6.208   4.479  15.380  1.8831 -1.0322  1.0900
12486TIP3   OH258872   1.061   5.453  16.686 -0.3998 -0.0255  0.3927
12486TIP3    H158873   1.087   5.525  16.629  1.3874  0.0134  1.2237
12486TIP3    H258874   0.968   5.440  16.668  0.0529  0.1822 -2.3177
12487TIP3   OH258875   1.919   3.096  12.861  0.2905  0.3404  0.4165
12487TIP3    H158876   1.845   3.090  12.800  0.9088 -0.2687 -0.2878
12487TIP3    H258877   1.995   3.110  12.805  0.8712 -0.2203  1.0551
12488TIP3   OH258878   0.568   2.976  12.856  0.0612  0.2646 -0.3031
12488TIP3    H158879   0.572   3.003  12.948 -1.1029  3.0837 -1.0446
12488TIP3    H258880   0.657   2.950  12.835  0.4334 -0.0106  1.5023
12489TIP3   OH258881   6.163   3.783  13.127 -0.0417 -0.1610 -0.4036
12489TIP3    H158882   6.226   3.763  13.059 -0.2159  0.4872 -0.7640
12489TIP3    H258883   6.206   3.848  13.182 -0.4223  0.3482 -0.7014
12490TIP3   OH258884   4.898   0.595   0.886  0.2894 -0.1484  0.1280
12490TIP3    H158885   4.821   0.539   0.898 -0.9626  1.3161 -1.0008
12490TIP3    H258886   4.916   0.591   0.792  0.7240  0.6370  0.1772
12491TIP3   OH258887   6.088   2.567  16.946 -0.3662  0.0950 -0.2614
12491TIP3    H158888   6.044   2.634  16.998  0.1010  0.5156 -0.4034
12491TIP3    H258889   6.073   2.486  16.994 -3.7724 -0.2802 -1.7510
12492TIP3   OH258890   6.557   4.802  16.116 -0.0338  0.4014  0.2717
12492TIP3    H158891   6.638   4.760  16.087 -0.0185  0.1877  0.6220
12492TIP3    H258892   6.543   4.873  16.053 -0.2718 -0.3669 -0.5481
12493TIP3   OH258893   3.958   6.226  17.069  0.4484 -0.3133  0.1081
12493TIP3    H158894   3.905   6.149  17.049 -0.2172 -0.3268  1.8332
12493TIP3    H258895   3.958   6.231  17.164  1.8670  0.8744  0.0665
12494TIP3   OH258896   1.571   2.546  13.369  0.4623  0.3768  0.1080
12494TIP3    H158897   1.646   2.494  13.341  2.0591  2.1055  1.0242
12494TIP3    H258898   1.542   2.504  13.450  0.5868 -0.1464 -0.1146
12495TIP3   OH258899   1.009   1.082   3.405 -0.0174 -0.0595 -0.9494
12495TIP3    H158900   0.931   1.128   3.435 -0.1733 -0.5483 -0.5995
12495TIP3    H258901   0.976   1.014   3.346  0.1187 -0.4305 -0.6012
12496TIP3   OH258902   6.455   2.913  12.560 -0.4580  0.0485  0.0254
12496TIP3    H158903   6.514   2.879  12.627 -0.6045  2.4418  1.4179
12496TIP3    H258904   6.484   3.003  12.547 -1.5636  0.1579 -1.8757
12497TIP3   OH258905   0.880   3.823   0.041 -0.1151 -0.4705 -0.1136
12497TIP3    H158906   0.797   3.828  -0.007  0.2771 -2.0725 -1.0031
12497TIP3    H258907   0.937   3.772  -0.016  1.1145 -0.3838  1.0243
12498TIP3   OH258908   5.999   5.383   1.730 -0.8521  0.0607 -0.0033
12498TIP3    H158909   6.062   5.405   1.799 -0.0380  0.2614 -0.8019
12498TIP3    H258910   5.926   5.443   1.745 -0.4622  0.4456  0.3821
12499TIP3   OH258911   4.596   5.729  17.102  0.1873 -0.1208  0.5986
12499TIP3    H158912   4.592   5.763  17.013  1.1017  0.6055  0.8325
12499TIP3    H258913   4.542   5.649  17.100 -1.5679  1.0544 -0.0653
12500TIP3   OH258914   5.106   1.916  13.592 -0.6371  0.0594  0.1069
12500TIP3    H158915   5.111   1.957  13.678 -1.7354  1.5876 -0.5315
12500TIP3    H258916   5.035   1.962  13.548  0.0139 -0.5991 -1.6714
12501TIP3   OH258917   6.059   6.466  13.496  0.3216  0.0569  0.6281
12501TIP3    H158918   6.063   6.390  13.555 -0.5896  0.2884  0.9981
12501TIP3    H258919   6.113   6.441  13.422  2.6399  0.3110  2.1968
12502TIP3   OH258920   1.520   3.470   0.534 -0.0527  0.3230  0.3364
12502TIP3    H158921   1.484   3.448   0.448 -1.2164  0.2857  0.8123
12502TIP3    H258922   1.456   3.434   0.596  0.4477  0.8922  1.1981
12503TIP3   OH258923   5.486   0.609   4.065 -0.0518  0.2618 -0.2053
12503TIP3    H158924   5.487   0.613   4.160  0.3879 -1.8647 -0.0822
12503TIP3    H258925   5.553   0.544   4.043 -0.5900  0.2500 -1.9193
12504TIP3   OH258926   0.502   2.780  13.216  0.1213 -0.3642 -0.1881
12504TIP3    H158927   0.496   2.684  13.220  1.6736 -0.4371  0.6465
12504TIP3    H258928   0.420   2.811  13.254 -1.3059 -1.3628 -2.3270
12505TIP3   OH258929   3.905   3.321   1.497  0.0878  0.0369 -0.1737
12505TIP3    H158930   3.888   3.306   1.404  1.6473  0.3599 -0.5236
12505TIP3    H258931   3.994   3.356   1.499  0.3262 -0.6699  1.5086
12506TIP3   OH258932   0.840   5.300  14.333 -0.3591  0.3729  0.7498
12506TIP3    H158933   0.813   5.244  14.260 -1.1065  1.6299  0.0520
12506TIP3    H258934   0.810   5.253  14.411 -0.4663 -0.4829  0.2022
12507TIP3   OH258935   4.879   1.520  16.428  0.0265 -0.0461  0.2292
12507TIP3    H158936   4.946   1.468  16.384  0.2718 -0.2769  0.8645
12507TIP3    H258937   4.815   1.541  16.360  2.0742  2.4472 -1.0002
12508TIP3   OH258938   4.836   6.167  10.969 -0.6189 -1.2138  0.2794
12508TIP3    H158939   4.812   6.172  10.877  0.8169 -0.8758 -0.0741
12508TIP3    H258940   4.825   6.256  11.002  0.6812 -0.9367 -0.0189
12509TIP3   OH258941   1.995   5.314   1.756 -0.9146 -0.3759 -0.0334
12509TIP3    H158942   1.928   5.374   1.788  0.0566 -0.1973  1.6671
12509TIP3    H258943   2.039   5.282   1.834  0.4381 -1.1512 -1.0874
12510TIP3   OH258944   3.954   0.548  14.159  0.4254 -0.0647  0.4434
12510TIP3    H158945   3.919   0.617  14.102 -1.4171 -0.5985  0.8870
12510TIP3    H258946   3.967   0.591  14.243  2.3945  0.5250 -0.1243
12511TIP3   OH258947   5.563   1.259  13.413  0.2230 -0.3778 -0.4314
12511TIP3    H158948   5.630   1.191  13.417  0.5224 -0.1777 -1.7028
12511TIP3    H258949   5.612   1.339  13.394 -0.3032 -0.1167 -0.6979
12512TIP3   OH258950   6.502   2.511   0.644 -0.4322 -0.1373 -0.7507
12512TIP3    H158951   6.575   2.513   0.706 -1.2343  1.4032  0.1564
12512TIP3    H258952   6.439   2.450   0.683  0.4898 -1.7493 -1.7106
12513TIP3   OH258953   0.002   3.739   6.463 -0.4854  0.0221 -0.3032
12513TIP3    H158954   0.097   3.731   6.461 -0.4242  0.6641 -0.0315
12513TIP3    H258955  -0.028   3.697   6.382  0.0980  0.8458 -0.9469
12514TIP3   OH258956   5.807   4.199  13.075  0.2551 -0.4922  0.6527
12514TIP3    H158957   5.835   4.128  13.017  2.4124  0.9453 -0.1300
12514TIP3    H258958   5.745   4.249  13.023 -0.6508 -1.3255  0.9195
12515TIP3   OH258959   5.905   4.736  13.583  0.3994 -0.0424 -0.1850
12515TIP3    H158960   5.912   4.657  13.636  0.7799  0.4045  0.4311
12515TIP3    H258961   5.824   4.778  13.611  1.3508  0.9708  1.1234
12516TIP3   OH258962   5.668   3.051  16.766  0.0423 -0.4885 -0.2567
12516TIP3    H158963   5.604   2.988  16.733  1.8811 -1.6896 -1.6312
12516TIP3    H258964   5.664   3.040  16.861 -1.5908 -0.7197 -0.3304
12517TIP3   OH258965   0.438   1.487   3.450 -0.2649 -0.1045 -0.8094
12517TIP3    H158966   0.513   1.470   3.392  1.3740 -0.3111  1.3293
12517TIP3    H258967   0.453   1.431   3.526 -1.4265  1.5204  0.6581
12518TIP3   OH258968   6.410   2.710  14.055 -0.3095  0.1023 -0.5401
12518TIP3    H158969   6.382   2.801  14.059 -2.9756 -0.7359  1.5715
12518TIP3    H258970   6.491   2.707  14.105 -0.5459  1.2301 -0.0726
12519TIP3   OH258971   3.578   2.174  13.436 -0.2092  0.3880  0.1559
12519TIP3    H158972   3.523   2.180  13.358 -1.6210  1.5597  1.2089
12519TIP3    H258973   3.626   2.092  13.425 -1.5414 -0.2396 -1.1974
12520TIP3   OH258974   2.072   1.572  16.387  0.5530  0.3099  0.2778
12520TIP3    H158975   2.037   1.656  16.358  0.9476  0.9030  1.4575
12520TIP3    H258976   1.995   1.524  16.418  0.2532  0.0099 -0.9077
12521TIP3   OH258977   2.528   2.973  14.689  0.1086 -0.4954  0.5384
12521TIP3    H158978   2.472   2.926  14.628  0.1609 -0.1053  0.1826
12521TIP3    H258979   2.475   3.047  14.719  0.6446  0.2329 -0.2877
12522TIP3   OH258980   6.757   5.694  12.085 -0.7627 -0.0713  0.0312
12522TIP3    H158981   6.748   5.787  12.061 -1.0563 -0.0835  0.0927
12522TIP3    H258982   6.686   5.678  12.146 -0.6268 -0.3048  0.1277
12523TIP3   OH258983   4.553   4.472   4.513 -0.6253  0.1518 -0.0481
12523TIP3    H158984   4.602   4.525   4.576  0.6101 -2.2016  1.0286
12523TIP3    H258985   4.568   4.515   4.428  0.0137  1.7121  0.8305
12524TIP3   OH258986   4.846   0.270  12.961  0.5449 -0.2841 -0.1659
12524TIP3    H158987   4.755   0.241  12.962  0.4346 -0.0469 -1.6092
12524TIP3    H258988   4.895   0.195  12.996 -0.0063 -1.2100 -1.3066
12525TIP3   OH258989   3.858   5.552  14.074  0.0432 -0.3060  0.4839
12525TIP3    H158990   3.925   5.508  14.022  0.6029 -0.1880  1.0999
12525TIP3    H258991   3.775   5.523  14.036  0.4270 -1.0010  0.1669
12526TIP3   OH258992   1.315   3.584   3.569  0.6295  0.0172  0.0318
12526TIP3    H158993   1.243   3.627   3.616  0.0223 -1.7417  0.7324
12526TIP3    H258994   1.394   3.623   3.606  0.1077 -0.1013  1.2828
12527TIP3   OH258995   0.541   4.487   1.269  0.2011  0.2231  0.5868
12527TIP3    H158996   0.518   4.399   1.298  2.8244 -0.5444  0.4613
12527TIP3    H258997   0.514   4.544   1.341  0.5068 -0.9451  1.6502
12528TIP3   OH258998   0.030   2.439  17.154 -0.1399 -0.7807  0.4842
12528TIP3    H158999   0.068   2.481  17.077 -1.5277 -0.4503 -0.0375
12528TIP3    H259000   0.065   2.488  17.229 -1.9698  1.5388 -0.1149
12529TIP3   OH259001   2.087   0.250  16.057  0.1434 -0.0580 -0.1508
12529TIP3    H159002   2.152   0.233  15.989 -0.3734 -3.1872  0.0642
12529TIP3    H259003   2.012   0.196  16.032 -2.2050  3.0582 -0.0857
12530TIP3   OH259004   4.243   1.608  16.040 -0.2315  0.1649 -0.1327
12530TIP3    H159005   4.164   1.619  16.092 -0.1864  0.4349 -0.1203
12530TIP3    H259006   4.246   1.515  16.020 -0.2635  0.0621  0.3318
12531TIP3   OH259007   5.502   4.331  10.976  0.2383 -0.4402  0.2602
12531TIP3    H159008   5.428   4.307  10.920 -0.6411  1.5454  0.5301
12531TIP3    H259009   5.504   4.263  11.044 -1.6266 -0.2723  0.5046
12532TIP3   OH259010   1.003   1.242  16.694  0.1600 -0.1477 -0.1096
12532TIP3    H159011   1.021   1.154  16.727 -0.6450 -0.5064 -0.6056
12532TIP3    H259012   1.089   1.277  16.670  0.4377 -0.9949 -0.3834
12533TIP3   OH259013   0.310   1.358   0.570  0.0364 -0.1431 -0.0183
12533TIP3    H159014   0.339   1.272   0.540  0.3419  0.0481 -0.2742
12533TIP3    H259015   0.215   1.351   0.575  0.1346 -0.8595  1.0868
12534TIP3   OH259016   3.576   2.858   2.757 -0.0211 -0.3580 -0.4329
12534TIP3    H159017   3.590   2.905   2.675 -0.8820  1.6437  0.5340
12534TIP3    H259018   3.658   2.811   2.772  1.1948  1.5389 -0.9915
12535TIP3   OH259019   5.439   4.110   0.573  1.0411  0.0887 -0.1785
12535TIP3    H159020   5.369   4.123   0.509  0.0465 -0.0600  0.8513
12535TIP3    H259021   5.501   4.181   0.556  0.6518  0.2036 -1.1247
12536TIP3   OH259022   4.551   1.958  17.175 -0.8165  0.4687  0.4752
12536TIP3    H159023   4.625   1.937  17.232 -0.5922 -0.9801 -0.3370
12536TIP3    H259024   4.474   1.937  17.228 -0.6227 -0.2011  0.4899
12537TIP3   OH259025   1.131   2.094  17.064  0.2211 -0.3318 -0.0097
12537TIP3    H159026   1.154   2.167  17.006  0.1560 -0.6265 -0.4092
12537TIP3    H259027   1.040   2.110  17.088 -0.1342 -0.8585 -0.9722
12538TIP3   OH259028   1.598   6.416   3.370 -0.2156  0.0426 -0.1361
12538TIP3    H159029   1.536   6.461   3.312  1.1864  1.9664 -0.1979
12538TIP3    H259030   1.625   6.338   3.321 -2.7290 -0.9593 -0.0095
12539TIP3   OH259031   2.556   4.158  13.258  0.1647 -0.0474  0.3777
12539TIP3    H159032   2.466   4.177  13.232 -0.0219  1.8116  2.2091
12539TIP3    H259033   2.602   4.143  13.176 -0.6693  4.3885 -1.0629
12540TIP3   OH259034   6.552   0.852   2.675 -0.6336 -0.2996 -0.5738
12540TIP3    H159035   6.614   0.796   2.629 -0.6570  0.2014 -1.2287
12540TIP3    H259036   6.476   0.797   2.690 -1.5481  0.1725 -3.2144
12541TIP3   OH259037   5.141   4.161  15.582 -0.2773  0.2145  0.1923
12541TIP3    H159038   5.084   4.153  15.505 -1.0720  1.7363  0.6011
12541TIP3    H259039   5.191   4.241  15.566 -0.6266  0.6729  1.3810
12542TIP3   OH259040   5.522   4.864   1.687  0.2011  0.1130 -0.1215
12542TIP3    H159041   5.539   4.806   1.613 -1.7496  0.8391 -1.1876
12542TIP3    H259042   5.431   4.891   1.675  0.2716  1.2732  1.8355
12543TIP3   OH259043   1.307   1.134   6.198  0.7901 -0.3087 -0.2494
12543TIP3    H159044   1.366   1.165   6.267 -0.0567  1.1744 -0.1770
12543TIP3    H259045   1.242   1.081   6.243  0.8162 -0.1699 -0.0483
12544TIP3   OH259046   1.559   4.518   2.529 -0.0171 -0.0742 -0.6658
12544TIP3    H159047   1.478   4.549   2.569 -0.5713 -0.3378 -1.5735
12544TIP3    H259048   1.531   4.456   2.462  0.9652 -0.5816 -0.6180
12545TIP3   OH259049   2.318   0.138   3.993 -0.2656 -0.2800  0.6820
12545TIP3    H159050   2.344   0.120   4.084 -2.2057  1.1883  1.5681
12545TIP3    H259051   2.323   0.053   3.949 -0.1728 -1.1768  2.3863
12546TIP3   OH259052   4.943   6.308   2.150  0.1681  0.1048  0.0853
12546TIP3    H159053   5.012   6.297   2.215 -0.5705 -0.3500  0.7961
12546TIP3    H259054   4.899   6.223   2.147  1.3941 -0.5143 -2.4018
12547TIP3   OH259055   0.458   2.722  12.879 -0.4493  0.5205 -0.3013
12547TIP3    H159056   0.443   2.696  12.789  0.8210 -0.5855 -0.2109
12547TIP3    H259057   0.506   2.804  12.874 -0.6390  0.6104 -0.6185
12548TIP3   OH259058   0.300   2.058  16.033  0.4314 -0.6417 -0.0599
12548TIP3    H159059   0.263   2.106  16.107 -2.0971 -1.5339 -0.6913
12548TIP3    H259060   0.331   1.976  16.071  1.9385  0.1632  0.4930
12549TIP3   OH259061   2.780   1.596  15.767  0.4242 -0.8451 -0.4203
12549TIP3    H159062   2.693   1.583  15.805  1.3264 -0.8236  1.7515
12549TIP3    H259063   2.770   1.671  15.709 -0.8486 -0.3537  0.4016
12550TIP3   OH259064   3.202   3.606  16.535  0.4214 -0.4953  0.1443
12550TIP3    H159065   3.148   3.684  16.522  0.6025 -0.6144 -1.3200
12550TIP3    H259066   3.140   3.534  16.537  0.4076 -0.4900 -0.1474
12551TIP3   OH259067   6.002   0.951   1.400  0.5523 -0.3312 -0.2555
12551TIP3    H159068   6.037   0.941   1.312  0.6656  0.4555 -0.2995
12551TIP3    H259069   6.078   0.963   1.456  0.5059 -1.2682  0.0132
12552TIP3   OH259070   0.391   4.728   1.042 -0.3478  0.0208  0.2485
12552TIP3    H159071   0.476   4.757   1.008 -0.1175  0.0209  0.8145
12552TIP3    H259072   0.329   4.793   1.010  0.2372  1.4601  1.9250
12553TIP3   OH259073   0.138   6.128   0.849  0.0610 -0.0026 -0.3200
12553TIP3    H159074   0.168   6.166   0.766  0.9023 -0.7935 -0.4018
12553TIP3    H259075   0.043   6.121   0.840  0.2618 -1.2027 -1.7198
12554TIP3   OH259076   4.122   5.407   4.348 -0.1546 -0.2242  0.4916
12554TIP3    H159077   4.182   5.406   4.273 -1.3743 -0.8868 -0.5156
12554TIP3    H259078   4.097   5.499   4.358 -0.5331 -0.2259 -0.3847
12555TIP3   OH259079   1.859   2.365  16.041  0.2986 -0.1462  0.4738
12555TIP3    H159080   1.852   2.272  16.063  0.0247 -0.9243 -2.6383
12555TIP3    H259081   1.950   2.388  16.061  0.3932 -1.0978  1.1684
12556TIP3   OH259082   4.973   0.083   6.330  0.7003 -0.2000  0.5753
12556TIP3    H159083   5.003   0.140   6.401  2.0718  0.1484 -0.2624
12556TIP3    H259084   5.051   0.033   6.306  0.4525  0.2379 -1.1935
12557TIP3   OH259085   3.963   6.495  12.143 -0.2407  0.0529 -0.3879
12557TIP3    H159086   3.870   6.476  12.154 -0.8410  2.7530 -0.5866
12557TIP3    H259087   4.006   6.443  12.212 -2.2314  1.6491  2.1680
12558TIP3   OH259088   4.429   0.054   1.428  0.5544  0.3368  0.0420
12558TIP3    H159089   4.519   0.051   1.396  1.2228 -0.5499  1.8692
12558TIP3    H259090   4.415  -0.033   1.467 -0.5687  0.9734  1.0977
12559TIP3   OH259091   6.483   0.601   3.245  0.0849  0.1561 -0.3285
12559TIP3    H159092   6.504   0.631   3.157 -1.7598  0.7851 -0.5762
12559TIP3    H259093   6.387   0.602   3.249  0.1434  1.0197  1.9597
12560TIP3   OH259094   4.273   3.139   4.264  0.0081  0.5587  0.1617
12560TIP3    H159095   4.229   3.172   4.186  0.2061  0.5415  0.0422
12560TIP3    H259096   4.328   3.212   4.293 -0.1281  0.5933  0.3315
12561TIP3   OH259097   1.726   6.391   0.018  0.3409  0.0428  0.0624
12561TIP3    H159098   1.766   6.314   0.059 -0.0038  0.1850  0.6741
12561TIP3    H259099   1.655   6.356  -0.035  1.0545 -0.1804 -0.7555
12562TIP3   OH259100   5.156   4.935   2.542  0.5282 -0.3691 -0.0196
12562TIP3    H159101   5.077   4.960   2.590  1.1398 -0.0872  0.8658
12562TIP3    H259102   5.125   4.873   2.476 -0.8576  1.9496 -1.6109
12563TIP3   OH259103   3.097   0.401  11.907 -0.4586 -0.2823 -0.1908
12563TIP3    H159104   3.072   0.430  11.819 -0.7927 -1.3615 -0.4642
12563TIP3    H259105   3.058   0.466  11.966 -2.5506 -1.0115 -0.6987
12564TIP3   OH259106   0.132   4.283   4.530  0.4378 -0.1820  0.2849
12564TIP3    H159107   0.205   4.340   4.505  0.8474 -0.2052  1.4029
12564TIP3    H259108   0.063   4.342   4.560 -0.8537 -0.0246 -2.8198
12565TIP3   OH259109   4.724   0.457  12.685  0.0311  0.2622  0.2693
12565TIP3    H159110   4.741   0.363  12.697 -0.7370 -0.3894 -3.1302
12565TIP3    H259111   4.811   0.496  12.677  0.3355 -0.3556  0.5337
12566TIP3   OH259112   3.671   6.270  17.206 -0.2371 -0.0178 -0.6188
12566TIP3    H159113   3.719   6.347  17.174  0.1511 -0.4830 -1.1610
12566TIP3    H259114   3.709   6.252  17.292 -2.1845  2.0361  0.7258
12567TIP3   OH259115   5.485   3.417  15.265 -0.2155 -0.1513 -0.4053
12567TIP3    H159116   5.579   3.410  15.278 -0.3548 -2.2148 -0.2315
12567TIP3    H259117   5.453   3.327  15.274 -2.4437  0.7519  1.5040
12568TIP3   OH259118   5.948   4.941  11.557  0.6595 -0.6724 -0.2934
12568TIP3    H159119   6.037   4.909  11.542  1.3840  1.3973 -0.5885
12568TIP3    H259120   5.952   5.033  11.533 -0.9779  0.0272  2.0349
12569TIP3   OH259121   4.907   4.516   2.211  0.0294 -0.1360  0.4633
12569TIP3    H159122   4.891   4.442   2.152  2.2568 -0.3149  0.0220
12569TIP3    H259123   4.915   4.592   2.154  0.8122 -0.0782  0.6447
12570TIP3   OH259124   0.336   6.043  16.820  0.3725  0.1475  0.1293
12570TIP3    H159125   0.251   6.003  16.805  0.6928  0.0048 -1.4209
12570TIP3    H259126   0.317   6.127  16.861 -0.6540  1.1054 -2.2363
12571TIP3   OH259127   2.512   0.639  16.709 -0.3012 -0.4029 -0.5419
12571TIP3    H159128   2.552   0.666  16.625  1.4301 -1.9253 -0.2453
12571TIP3    H259129   2.527   0.545  16.713  1.2990 -0.0804  2.3145
12572TIP3   OH259130   0.731   4.135  16.608 -0.3110  0.7916  0.2934
12572TIP3    H159131   0.690   4.058  16.568  0.1859  2.1905 -3.0345
12572TIP3    H259132   0.668   4.164  16.674 -2.9297  0.6101 -2.0459
12573TIP3   OH259133   5.559   4.105   2.868 -0.1463 -0.0910  0.1238
12573TIP3    H159134   5.644   4.133   2.835  0.2490 -1.7347 -0.3093
12573TIP3    H259135   5.569   4.106   2.963 -0.1357  1.1748  0.1164
12574TIP3   OH259136   1.195   3.917  12.126  0.1217  0.0881 -0.1511
12574TIP3    H159137   1.248   3.908  12.047  1.4393  1.3091  0.5674
12574TIP3    H259138   1.104   3.907  12.096  0.6676 -0.4172 -1.6557
12575TIP3   OH259139   1.565   2.621  17.207 -0.5373 -0.2176  0.1446
12575TIP3    H159140   1.655   2.604  17.182 -0.7423  0.7724 -1.3155
12575TIP3    H259141   1.570   2.689  17.274 -0.2949  1.2917 -1.3801
12576TIP3   OH259142   6.611   1.021   0.751 -0.0298 -0.2708  0.3415
12576TIP3    H159143   6.581   1.105   0.785  0.3021  0.1980 -0.5078
12576TIP3    H259144   6.651   0.977   0.826 -1.8548 -0.4572  1.2417
12577TIP3   OH259145   3.718   0.865   4.170 -0.3319  0.0729 -0.4248
12577TIP3    H159146   3.698   0.870   4.077 -1.4552 -1.2344 -0.2593
12577TIP3    H259147   3.658   0.800   4.205  1.8887 -1.4415  0.7172
12578TIP3   OH259148   1.411   0.575   5.608 -0.4413  0.0945  0.4304
12578TIP3    H159149   1.343   0.625   5.654 -1.2472  0.7519 -1.4237
12578TIP3    H259150   1.383   0.483   5.616 -0.9772  0.2720  0.5941
12579TIP3   OH259151   5.276   3.282  11.966  0.2186 -0.0935 -0.2736
12579TIP3    H159152   5.357   3.256  12.009 -0.8767  0.4187  2.2074
12579TIP3    H259153   5.211   3.218  11.995 -0.7711  0.8507 -0.3529
12580TIP3   OH259154   2.646   6.587  15.728  0.2075  0.3196  0.5956
12580TIP3    H159155   2.606   6.532  15.660  1.9807 -1.3440  0.8453
12580TIP3    H259156   2.693   6.526  15.784  1.4424  1.9984  1.4501
12581TIP3   OH259157   1.553   0.898  16.658 -0.0465  0.7010 -0.0034
12581TIP3    H159158   1.519   0.987  16.665 -1.5649  0.2859 -1.7678
12581TIP3    H259159   1.643   0.904  16.690  0.3337  3.1637 -1.4397
12582TIP3   OH259160   2.145   4.970   2.753  0.2082  0.1016 -0.8632
12582TIP3    H159161   2.158   4.875   2.755  1.8642  0.3163 -0.3123
12582TIP3    H259162   2.215   5.002   2.697 -1.2285  0.8866 -2.2329
12583TIP3   OH259163   2.916   0.770  13.400 -0.2232 -0.0819 -0.0894
12583TIP3    H159164   2.911   0.754  13.305 -3.5762  0.7325 -0.0988
12583TIP3    H259165   2.942   0.686  13.437  2.9089  0.0237 -1.8143
12584TIP3   OH259166   0.150   1.913  10.560 -0.5103  0.0859  0.2208
12584TIP3    H159167   0.143   1.839  10.498 -1.5954  0.2267  0.1627
12584TIP3    H259168   0.059   1.935  10.580 -0.1581 -0.1995  2.1737
12585TIP3   OH259169   6.184   1.584  13.519 -0.0555  0.4251  0.0524
12585TIP3    H159170   6.141   1.668  13.501  1.8899  1.5203  0.3431
12585TIP3    H259171   6.246   1.604  13.590  0.5670 -1.2233 -0.0129
12586TIP3   OH259172   0.354   4.530  13.026  0.2718 -0.3250 -0.0631
12586TIP3    H159173   0.326   4.447  13.065 -0.2764  0.7151  1.8321
12586TIP3    H259174   0.345   4.517  12.932  0.0837 -2.3755  0.2239
12587TIP3   OH259175   5.324   4.775  12.830 -0.3494  0.2095  0.1872
12587TIP3    H159176   5.370   4.725  12.762 -0.2768  0.6817 -0.1164
12587TIP3    H259177   5.278   4.844  12.781 -1.9573 -0.6769  0.4081
12588TIP3   OH259178   4.325   0.557   3.630  0.3024  0.0181 -0.0857
12588TIP3    H159179   4.391   0.556   3.561 -1.9361  0.2208 -2.2754
12588TIP3    H259180   4.281   0.472   3.623  0.7110 -0.3717  1.7711
12589TIP3   OH259181   3.868   4.672  17.128  0.3804 -0.4312  0.4219
12589TIP3    H159182   3.905   4.671  17.216 -1.0877  0.7290  1.0694
12589TIP3    H259183   3.849   4.580  17.108 -0.8782 -0.5132  1.9910
12590TIP3   OH259184   0.525   3.464   3.436 -0.6417  0.1931 -0.3777
12590TIP3    H159185   0.615   3.464   3.469 -1.4871 -0.3418  2.0138
12590TIP3    H259186   0.516   3.549   3.392  0.2028  1.4548  1.7970
12591TIP3   OH259187   3.501   6.162  15.058  0.4735 -0.8092  0.2843
12591TIP3    H159188   3.593   6.189  15.048  0.0362  0.7234  0.2023
12591TIP3    H259189   3.474   6.138  14.970  1.1243 -2.3748  0.5042
12592TIP3   OH259190   6.078   1.898   6.273 -0.0431  0.0200  0.2392
12592TIP3    H159191   6.032   1.979   6.251 -0.0729  0.0675  0.4750
12592TIP3    H259192   6.113   1.867   6.189  0.5180  0.6232  0.2408
12593TIP3   OH259193   5.984   1.391   5.481 -0.0115  0.2341 -0.0365
12593TIP3    H159194   5.962   1.484   5.481  0.7995  0.4383  1.5955
12593TIP3    H259195   6.068   1.386   5.436  0.9504  0.5586  1.6895
12594TIP3   OH259196   3.893   2.954   4.664  0.1837 -0.0033  1.2233
12594TIP3    H159197   3.984   2.929   4.678 -0.3663 -2.1053  1.1814
12594TIP3    H259198   3.863   2.983   4.750  1.4859  2.8163  0.7820
12595TIP3   OH259199   1.646   2.053  15.183 -0.8672 -0.5858  0.1428
12595TIP3    H159200   1.634   2.132  15.236  1.7410  0.0884 -0.2136
12595TIP3    H259201   1.566   2.048  15.131 -1.9571  0.6823  1.6240
12596TIP3   OH259202   2.623   2.010   4.919 -0.2653 -0.1741  0.4704
12596TIP3    H159203   2.574   2.092   4.925 -1.5216 -0.9788  1.4776
12596TIP3    H259204   2.639   1.999   4.825  1.8728  2.3341  0.4903
12597TIP3   OH259205   3.202   2.366  16.047 -0.4767  0.2965 -0.0717
12597TIP3    H159206   3.230   2.457  16.035 -1.2641  0.9516  2.7222
12597TIP3    H259207   3.168   2.363  16.137 -2.6389 -2.2075 -0.9303
12598TIP3   OH259208   6.329   3.224  13.341 -0.0635 -0.2376 -0.2149
12598TIP3    H159209   6.240   3.195  13.361 -0.5932  0.5239 -1.4580
12598TIP3    H259210   6.357   3.271  13.420 -0.3961 -1.3149  0.5557
12599TIP3   OH259211   0.057   5.920  13.850 -0.7641 -0.4465 -0.0307
12599TIP3    H159212  -0.005   5.849  13.834 -1.9551  0.7774 -0.9984
12599TIP3    H259213   0.119   5.914  13.777 -0.4797 -0.8947  0.2477
12600TIP3   OH259214   0.899   2.972  11.620 -0.1747  0.9372 -0.9344
12600TIP3    H159215   0.957   2.902  11.650 -0.6946  1.6104  1.8165
12600TIP3    H259216   0.835   2.927  11.563  0.1953 -0.6160 -0.1554
12601TIP3   OH259217   1.054   0.143  12.142  0.3220 -0.3359 -0.3478
12601TIP3    H159218   0.963   0.121  12.120  1.0303 -2.0837 -1.7510
12601TIP3    H259219   1.072   0.094  12.222 -0.1825  0.5705  0.3228
12602TIP3   OH259220   5.118   1.959   3.414  0.3629 -0.3339  0.3066
12602TIP3    H159221   5.044   1.904   3.439  0.1887 -0.1040  0.2862
12602TIP3    H259222   5.170   1.903   3.355 -0.2234 -0.2103 -0.3373
12603TIP3   OH259223   4.917   2.719  13.659 -0.1630 -0.3560 -0.1720
12603TIP3    H159224   4.996   2.772  13.654 -0.5517  0.2522  0.2058
12603TIP3    H259225   4.919   2.667  13.578  1.0715 -0.9841  0.2458
12604TIP3   OH259226   3.853   6.154   3.460  0.0727 -0.3526  0.1234
12604TIP3    H159227   3.841   6.216   3.532 -0.3275  0.7524 -0.8824
12604TIP3    H259228   3.897   6.204   3.391 -2.8020 -0.3427 -1.8051
12605TIP3   OH259229   2.230   3.612   6.080 -0.2694 -0.0910  0.0815
12605TIP3    H159230   2.200   3.693   6.120  0.5281  0.7314 -0.9616
12605TIP3    H259231   2.325   3.624   6.069 -0.1406 -1.1647 -0.0630
12606TIP3   OH259232   4.136   6.010  11.404 -0.4842 -0.0270 -0.1374
12606TIP3    H159233   4.230   5.991  11.401 -0.2139  1.4008 -2.7666
12606TIP3    H259234   4.131   6.105  11.397 -2.1171 -0.0457  0.6196
12607TIP3   OH259235   2.894   1.094   4.204  0.2586  0.1580  0.1019
12607TIP3    H159236   2.907   1.184   4.174  1.3653  0.0136  0.1348
12607TIP3    H259237   2.848   1.051   4.132  0.0592  0.6457 -0.0672
12608TIP3   OH259238   0.468   6.116   1.225  0.0726  0.1646  0.1039
12608TIP3    H159239   0.412   6.179   1.271 -0.6001 -0.6065  0.3511
12608TIP3    H259240   0.407   6.057   1.182  0.7133  0.3894 -1.1130
12609TIP3   OH259241   6.145   6.054  15.795 -0.0785  0.0065 -0.0230
12609TIP3    H159242   6.204   6.082  15.725 -0.4148 -1.3724 -0.8691
12609TIP3    H259243   6.196   6.066  15.875  1.0225 -0.3001 -0.6740
12610TIP3   OH259244   2.068   1.603   3.002  0.2661 -0.1024 -0.1357
12610TIP3    H159245   2.075   1.604   3.098 -0.3329  0.0143 -0.0920
12610TIP3    H259246   2.108   1.520   2.977  2.3141  0.8018  0.0538
12611TIP3   OH259247   6.631   6.336   1.405  0.1046 -0.0608 -0.2664
12611TIP3    H159248   6.572   6.410   1.392  0.8664  0.1677 -2.7295
12611TIP3    H259249   6.642   6.331   1.500 -2.4204  1.0020  0.1303
12612TIP3   OH259250   3.848   3.935   0.969 -0.1135 -0.2140  0.1796
12612TIP3    H159251   3.865   3.861   0.910 -0.4733 -0.5925  0.5451
12612TIP3    H259252   3.761   3.966   0.942 -0.6269 -0.8890  1.0242
12613TIP3   OH259253   6.360   0.062   4.656  0.4093 -0.2096 -0.1425
12613TIP3    H159254   6.452   0.054   4.630  1.2123 -1.5883  2.8516
12613TIP3    H259255   6.318  -0.017   4.621  0.0224  1.0358 -2.6113
12614TIP3   OH259256   6.651   3.016   3.230  0.2105  0.0179 -0.2923
12614TIP3    H159257   6.576   3.038   3.284  0.4270 -1.8453  0.8177
12614TIP3    H259258   6.670   3.096   3.180 -0.9779  1.2483  1.1973
12615TIP3   OH259259   5.278   2.450  15.038  0.0469 -0.5833 -0.0120
12615TIP3    H159260   5.209   2.385  15.030 -0.9691  0.7205 -2.6457
12615TIP3    H259261   5.237   2.523  15.086 -0.6028  0.3652 -1.9444
12616TIP3   OH259262   2.976   1.921  11.388  0.0136 -0.1095 -0.0850
12616TIP3    H159263   2.991   1.827  11.400  1.2211  0.1237  0.3861
12616TIP3    H259264   3.046   1.949  11.329 -1.1387  0.2604 -1.3066
12617TIP3   OH259265   0.711   1.774  15.320 -0.5498 -0.0131  0.0671
12617TIP3    H159266   0.692   1.690  15.280  0.5127 -0.0145 -0.4295
12617TIP3    H259267   0.639   1.831  15.291 -0.3521 -0.2889 -0.9794
12618TIP3   OH259268   0.662   5.164   0.573  0.3815 -0.4693 -0.0451
12618TIP3    H159269   0.703   5.138   0.655 -0.4334  0.1272  0.5623
12618TIP3    H259270   0.678   5.259   0.568  0.0684 -0.4343 -0.3728
12619TIP3   OH259271   3.281   0.076  16.850 -0.4851  0.9442  0.1914
12619TIP3    H159272   3.302  -0.010  16.815  2.0210  1.4796  0.2776
12619TIP3    H259273   3.211   0.060  16.913  0.3062 -1.1046  0.5960
12620TIP3   OH259274   5.243   6.332  12.028 -0.4229  0.0011  0.0618
12620TIP3    H159275   5.303   6.300  11.960 -1.1765  2.2795 -1.7558
12620TIP3    H259276   5.167   6.274  12.022  0.3316 -1.0167  0.2861
12621TIP3   OH259277   2.048   0.903  13.683  0.4338 -0.0737 -0.1859
12621TIP3    H159278   2.122   0.909  13.621  0.4314 -0.9531 -0.2790
12621TIP3    H259279   2.058   0.817  13.723 -1.4764 -0.8958 -1.3960
12622TIP3   OH259280   0.333   2.800  15.274 -0.2083 -0.1537 -0.0596
12622TIP3    H159281   0.313   2.891  15.252  0.1983 -0.2355 -0.7795
12622TIP3    H259282   0.316   2.794  15.368 -1.0646  0.4441 -0.1644
12623TIP3   OH259283   4.832   4.697  15.207 -0.1624 -0.0039 -0.3830
12623TIP3    H159284   4.850   4.604  15.217  0.7928  0.0983 -1.1038
12623TIP3    H259285   4.909   4.732  15.162 -1.3880  0.7781 -1.9336
12624TIP3   OH259286   1.228   0.680   2.104 -0.1015  0.1491 -0.0870
12624TIP3    H159287   1.171   0.643   2.037  0.1311  2.0200 -1.3364
12624TIP3    H259288   1.167   0.716   2.169 -0.3645  1.6973 -1.1690
12625TIP3   OH259289   5.843   1.000  11.848  0.1762  0.3799 -0.1476
12625TIP3    H159290   5.832   0.917  11.802 -0.6236 -0.1664  1.0206
12625TIP3    H259291   5.813   1.066  11.785  0.3040 -0.2504 -0.8816
12626TIP3   OH259292   2.700   4.043  16.491 -0.6700  0.6449  0.9446
12626TIP3    H159293   2.726   3.951  16.504  0.3026  0.4480 -2.0026
12626TIP3    H259294   2.765   4.093  16.541  0.9623 -0.1718 -0.3026
12627TIP3   OH259295   0.691   1.791   4.404 -0.1822  0.2595 -0.5380
12627TIP3    H159296   0.683   1.749   4.490  1.5439 -0.3108 -0.6409
12627TIP3    H259297   0.758   1.740   4.358 -0.2138  1.3035 -1.7677
12628TIP3   OH259298   0.823   3.211   4.336  0.1978  0.5032 -0.1537
12628TIP3    H159299   0.736   3.238   4.366  0.1498 -0.4299  0.5898
12628TIP3    H259300   0.883   3.243   4.404  0.3444  0.4037 -0.2358
12629TIP3   OH259301   4.023   5.164   0.679 -0.2273  0.3009  0.2487
12629TIP3    H159302   4.117   5.179   0.694 -0.1881  1.0648 -0.7122
12629TIP3    H259303   3.983   5.250   0.691 -0.9196 -0.1788  1.4523
12630TIP3   OH259304   2.862   0.315  15.445  0.5258  0.0957 -0.5834
12630TIP3    H159305   2.826   0.262  15.516  0.8724  2.4187  1.4041
12630TIP3    H259306   2.825   0.277  15.365  0.3915 -2.7817  0.7869
12631TIP3   OH259307   4.553   2.693  12.038 -0.2106  0.1666  0.2317
12631TIP3    H159308   4.518   2.738  11.960  2.2171  1.2628 -0.2521
12631TIP3    H259309   4.531   2.752  12.111 -1.0092 -0.0576  0.1796
12632TIP3   OH259310   4.166   1.589  15.704  0.0470  0.0195 -0.2590
12632TIP3    H159311   4.084   1.634  15.722  0.7039 -0.0046  3.0405
12632TIP3    H259312   4.232   1.659  15.703  0.2083 -0.1306 -1.5144
12633TIP3   OH259313   0.741   5.224  10.802 -0.6325 -0.3244 -0.2789
12633TIP3    H159314   0.725   5.157  10.868  1.9780 -1.0530 -0.3307
12633TIP3    H259315   0.757   5.175  10.721  0.8730  0.3737 -0.4112
12634TIP3   OH259316   4.887   6.247  15.098  0.2314  0.0713  0.4308
12634TIP3    H159317   4.859   6.261  15.188  0.7685  0.1002  0.5963
12634TIP3    H259318   4.867   6.155  15.080  1.1556 -0.2334  0.9531
12635TIP3   OH259319   4.327   5.631   5.421  0.8637 -0.0732 -0.0866
12635TIP3    H159320   4.366   5.605   5.338 -0.5907  0.7406 -1.0623
12635TIP3    H259321   4.278   5.554   5.450  0.2130  0.1025 -0.7081
12636TIP3   OH259322   4.916   0.868   5.104 -0.3450  0.1707 -0.1808
12636TIP3    H159323   4.989   0.841   5.160 -0.8062  1.2641  0.9803
12636TIP3    H259324   4.940   0.956   5.075 -1.6664  0.9400  1.0305
12637TIP3   OH259325   4.034   2.876   4.128  0.4461  0.5020 -0.5049
12637TIP3    H159326   3.963   2.814   4.109 -0.4838  2.0990 -2.4460
12637TIP3    H259327   4.028   2.890   4.223 -1.3076 -0.0407 -0.5116
12638TIP3   OH259328   0.559   6.074  12.525 -0.0156  0.0645  0.4534
12638TIP3    H159329   0.641   6.030  12.544  1.0317  0.1694 -3.3964
12638TIP3    H259330   0.512   6.013  12.467 -1.1643  1.4263 -0.0915
12639TIP3   OH259331   2.101   6.325   5.322 -0.1924 -0.1740  0.4883
12639TIP3    H159332   2.065   6.259   5.262 -0.2158 -0.1329  0.4580
12639TIP3    H259333   2.126   6.398   5.265 -1.7964  0.5758  0.7161
12640TIP3   OH259334   4.834   4.775   1.149 -0.6392 -0.3108 -0.6184
12640TIP3    H159335   4.747   4.803   1.124 -1.3034  0.0825  1.9780
12640TIP3    H259336   4.892   4.847   1.123 -1.3790  0.3609 -0.4064
12641TIP3   OH259337   5.315   0.942   5.615  0.3555  0.5177 -0.6132
12641TIP3    H159338   5.229   0.931   5.576 -0.4711  1.7243  0.8145
12641TIP3    H259339   5.372   0.966   5.541 -0.6033  0.1022 -1.4965
12642TIP3   OH259340   6.053   1.953  14.180  0.3777 -0.5384 -0.2125
12642TIP3    H159341   5.990   2.025  14.183  0.4716 -0.4339 -0.6663
12642TIP3    H259342   6.138   1.994  14.192  0.5747 -0.3607 -2.0846
12643TIP3   OH259343   4.183   0.168  11.620 -0.5003 -0.5291  0.0956
12643TIP3    H159344   4.196   0.253  11.578 -1.2340 -1.7971 -2.8408
12643TIP3    H259345   4.257   0.160  11.681 -0.5065  2.2491  0.5514
12644TIP3   OH259346   4.590   2.813   2.584  0.3283 -0.4365 -0.2107
12644TIP3    H159347   4.607   2.887   2.525 -0.2451 -0.2511 -0.1488
12644TIP3    H259348   4.568   2.740   2.525  2.2424 -0.9254 -0.3303
12645TIP3   OH259349   3.037   6.636   0.920 -0.8390 -0.1696 -0.5702
12645TIP3    H159350   2.955   6.618   0.873 -1.6669  0.8173  0.4585
12645TIP3    H259351   3.063   6.552   0.956 -1.8824 -0.3425 -0.1787
12646TIP3   OH259352   4.559   3.627   2.330  0.3894 -0.3890 -0.5346
12646TIP3    H159353   4.601   3.615   2.245 -1.7484 -1.5716 -1.4690
12646TIP3    H259354   4.596   3.557   2.384  0.6637 -0.5516 -0.9251
12647TIP3   OH259355   3.984   4.584  15.992  0.0051 -0.1782  0.4357
12647TIP3    H159356   4.078   4.565  15.987  0.1789  0.7719 -0.2270
12647TIP3    H259357   3.978   4.662  16.048 -0.3262  0.1049  0.0150
12648TIP3   OH259358   4.209   4.468   5.799 -0.2160 -0.1501 -0.4807
12648TIP3    H159359   4.302   4.447   5.811 -0.4118 -0.5888  0.2988
12648TIP3    H259360   4.203   4.501   5.709  0.4261 -1.5931 -1.0672
12649TIP3   OH259361   1.421   1.630  17.060  0.0339 -0.0846  0.5103
12649TIP3    H159362   1.343   1.644  17.114  0.4889  0.0051  1.1552
12649TIP3    H259363   1.491   1.616  17.123  0.2381 -1.8439 -0.0714
12650TIP3   OH259364   0.720   3.424  12.847  0.3298  0.1092 -0.1483
12650TIP3    H159365   0.682   3.391  12.766  0.8564 -0.2104 -0.2681
12650TIP3    H259366   0.790   3.483  12.819  0.9724 -0.5404  0.0638
12651TIP3   OH259367   2.166   3.278   1.548 -0.4771 -0.6837 -0.3129
12651TIP3    H159368   2.186   3.341   1.617 -2.9543 -0.7881  0.5653
12651TIP3    H259369   2.079   3.245   1.571 -1.4685 -0.5487 -3.6176
12652TIP3   OH259370   1.661   1.337   1.295  0.5582  0.0068 -0.4910
12652TIP3    H159371   1.613   1.338   1.377 -0.9632 -0.1913 -1.3580
12652TIP3    H259372   1.596   1.311   1.229  1.4954  1.1362 -1.8996
12653TIP3   OH259373   0.723   0.216  11.450 -0.1141 -0.1240  0.3822
12653TIP3    H159374   0.760   0.300  11.422 -1.1805 -0.2605 -1.4892
12653TIP3    H259375   0.706   0.169  11.369 -1.7313 -1.2199  1.3327
12654TIP3   OH259376   6.374   5.360   2.063 -0.4213  0.2875 -0.0785
12654TIP3    H159377   6.448   5.420   2.059 -0.4434  0.2853 -0.5555
12654TIP3    H259378   6.307   5.407   2.111  0.8915 -0.7811  2.9337
12655TIP3   OH259379   6.572   0.262  15.429 -0.5308 -0.3081  0.1456
12655TIP3    H159380   6.517   0.324  15.476 -1.0730 -1.6059  1.2461
12655TIP3    H259381   6.525   0.245  15.347 -0.5141  0.5236 -0.0347
12656TIP3   OH259382   3.522   3.214   0.884  0.3196 -0.0208 -0.2904
12656TIP3    H159383   3.529   3.284   0.818  0.3435 -0.2853 -0.5684
12656TIP3    H259384   3.430   3.214   0.909 -0.1601 -1.3980 -1.9471
12657TIP3   OH259385   3.776   4.333   0.907 -0.0451  0.4392  0.1301
12657TIP3    H159386   3.848   4.272   0.926 -0.6929 -0.3430  0.1071
12657TIP3    H259387   3.714   4.281   0.856 -0.7721  1.0207  0.4209
12658TIP3   OH259388   2.270   6.516  13.224 -0.0820  0.2020  0.1694
12658TIP3    H159389   2.323   6.445  13.261 -1.8327 -1.2947 -0.1284
12658TIP3    H259390   2.305   6.530  13.136  1.7441  1.2928  1.0418
12659TIP3   OH259391   0.645   1.159   5.389  0.1746  0.2318  0.1787
12659TIP3    H159392   0.694   1.234   5.357 -0.5593  0.6645  0.0574
12659TIP3    H259393   0.711   1.094   5.411  0.8292  1.0596  0.6560
12660TIP3   OH259394   6.747   4.013   3.478  0.9089  0.1114  0.6537
12660TIP3    H159395   6.765   4.051   3.563 -1.3383 -0.1691  1.2893
12660TIP3    H259396   6.721   4.087   3.423 -0.9206 -0.1330  1.1658
12661TIP3   OH259397   5.008   1.347   1.238 -0.7448  0.1501  0.3868
12661TIP3    H159398   5.093   1.349   1.195 -1.5734  3.0331 -1.2485
12661TIP3    H259399   4.973   1.260   1.220  0.6829 -0.0800 -1.3111
12662TIP3   OH259400   2.192   2.484  17.156 -0.4867  0.2798 -0.1200
12662TIP3    H159401   2.139   2.545  17.105 -0.4425 -0.6793 -1.3533
12662TIP3    H259402   2.208   2.411  17.096  0.3172 -0.4697  0.9884
12663TIP3   OH259403   1.895   3.843   0.262  0.2537  0.0953 -0.0747
12663TIP3    H159404   1.956   3.848   0.189  2.3230  1.5132  1.7006
12663TIP3    H259405   1.914   3.759   0.304  0.9028  0.4711  0.3898
12664TIP3   OH259406   2.347   4.325   1.509 -0.4944 -0.7469  0.1312
12664TIP3    H159407   2.373   4.414   1.485 -0.2275 -0.6849  0.6351
12664TIP3    H259408   2.340   4.328   1.604 -2.6176 -0.6998 -0.0021
12665TIP3   OH259409   3.395   1.309   3.996  0.4211 -0.2105  0.0824
12665TIP3    H159410   3.401   1.376   3.928  1.2941  1.1212  1.4555
12665TIP3    H259411   3.479   1.264   3.993  0.1244 -0.7508 -0.3096
12666TIP3   OH259412   0.113   3.313  10.859  0.3721  0.7829  0.0441
12666TIP3    H159413   0.100   3.267  10.776  0.8853  1.7677 -0.5933
12666TIP3    H259414   0.083   3.252  10.925 -1.8733  0.7156 -0.9861
12667TIP3   OH259415   6.702   2.247  16.662 -0.4930  0.3457 -0.1458
12667TIP3    H159416   6.788   2.279  16.633 -0.4097  0.5094  0.2752
12667TIP3    H259417   6.643   2.270  16.591  0.2063 -1.7862 -1.4645
12668TIP3   OH259418   2.356   2.121   1.746 -0.1514  0.2468  0.4444
12668TIP3    H159419   2.332   2.066   1.821  1.8123 -0.1540  0.8141
12668TIP3    H259420   2.343   2.064   1.670 -0.1106 -0.0503  0.6574
12669TIP3   OH259421   1.588   2.775  13.709  0.2300  0.0477  0.1904
12669TIP3    H159422   1.551   2.705  13.655  0.2000  0.6363 -0.5616
12669TIP3    H259423   1.682   2.754  13.713  0.0437 -0.6620  0.9196
12670TIP3   OH259424   0.866   3.448  16.557 -0.5555 -0.0929 -0.2369
12670TIP3    H159425   0.832   3.499  16.483 -3.1591 -0.5916  0.5590
12670TIP3    H259426   0.934   3.503  16.595 -0.9717  1.2873 -1.4463
12671TIP3   OH259427   0.805   5.709   5.968  0.5576 -0.0324  0.3097
12671TIP3    H159428   0.769   5.730   6.054  0.9706  1.6828  0.0722
12671TIP3    H259429   0.781   5.783   5.912  1.1707 -0.6532 -0.8018
12672TIP3   OH259430   4.947   5.064  11.110  0.3378 -0.3283 -0.1627
12672TIP3    H159431   4.912   5.020  11.033 -1.3261 -0.0609  0.4345
12672TIP3    H259432   4.880   5.126  11.136  1.7189  0.9907  0.3450
12673TIP3   OH259433   3.666   4.107   1.316 -0.0249  0.9370 -0.3057
12673TIP3    H159434   3.673   4.016   1.345 -2.7858  0.3756 -1.1992
12673TIP3    H259435   3.663   4.158   1.397 -0.4897  0.0214  0.2616
12674TIP3   OH259436   0.351   6.706   0.531 -0.1657  0.1491 -0.2826
12674TIP3    H159437   0.331   6.796   0.506 -1.0864  0.3318  1.0859
12674TIP3    H259438   0.268   6.670   0.561  0.3989 -0.8482  0.1270
12675TIP3   OH259439   4.483   0.391   4.994 -0.2068 -0.1061 -0.3826
12675TIP3    H159440   4.527   0.316   4.953  0.4267  0.6214 -1.0420
12675TIP3    H259441   4.395   0.392   4.954 -0.1509 -0.3862 -0.5138
12676TIP3   OH259442   4.539   5.945   4.681 -0.2138  0.2193 -0.7623
12676TIP3    H159443   4.554   5.928   4.588 -0.6690 -0.1050 -0.7774
12676TIP3    H259444   4.625   5.935   4.722 -0.0511  0.1719 -1.1196
12677TIP3   OH259445   2.960   4.456   0.222  0.0756 -0.5079  0.8713
12677TIP3    H159446   2.949   4.518   0.293 -0.1340 -1.8083  2.0070
12677TIP3    H259447   2.889   4.476   0.161  1.2369  1.6882  0.1833
12678TIP3   OH259448   4.989   6.745  14.520 -0.2344  0.0050 -0.4043
12678TIP3    H159449   4.996   6.649  14.515  0.4059  0.1095 -2.0291
12678TIP3    H259450   4.946   6.770  14.438  1.1870  1.2483 -0.7925
12679TIP3   OH259451   1.718   0.406   2.920 -1.2107 -0.1002 -0.1455
12679TIP3    H159452   1.641   0.447   2.960 -0.4467  1.1492  0.0477
12679TIP3    H259453   1.733   0.456   2.839  0.2178  0.5378  0.5073
12680TIP3   OH259454   0.447   5.756  12.533  0.3843  0.5076  0.2969
12680TIP3    H159455   0.538   5.752  12.562 -0.0538  0.7538  1.7458
12680TIP3    H259456   0.421   5.665  12.522  0.7159  0.4264  0.1729
12681TIP3   OH259457   1.945   6.742   2.024  0.8739  0.0447 -0.1328
12681TIP3    H159458   1.969   6.791   1.945 -0.9337  3.2681  1.2222
12681TIP3    H259459   1.880   6.678   1.994  2.1100 -0.5100 -1.6797
12682TIP3   OH259460   2.898   1.445  11.549  0.0063 -0.1747 -0.1643
12682TIP3    H159461   2.938   1.394  11.479 -0.1832 -1.8877  0.9499
12682TIP3    H259462   2.806   1.455  11.523 -0.0998 -0.9417 -0.0816
12683TIP3   OH259463   0.486   2.326   5.590 -0.1919 -0.6019  0.0262
12683TIP3    H159464   0.418   2.272   5.550 -2.5879  1.2314  1.4624
12683TIP3    H259465   0.514   2.385   5.521 -1.5259 -0.0331 -0.0417
12684TIP3   OH259466   5.527   4.167  11.796 -0.2275  0.7767 -0.1258
12684TIP3    H159467   5.436   4.165  11.825 -0.9047 -1.0077 -2.2804
12684TIP3    H259468   5.539   4.254  11.759 -0.7467  1.3594  1.0333
12685TIP3   OH259469   2.899   5.846   6.530  0.0789 -0.2612  0.3538
12685TIP3    H159470   2.993   5.841   6.544  0.0283  0.2831  0.9633
12685TIP3    H259471   2.870   5.914   6.591 -0.6252 -0.0383 -0.2183
12686TIP3   OH259472   2.841   6.257   0.166  0.6817 -0.1734  0.0347
12686TIP3    H159473   2.839   6.234   0.073  3.5381  1.0880 -0.3697
12686TIP3    H259474   2.843   6.172   0.211 -0.0054 -0.7851 -1.0482
12687TIP3   OH259475   5.531   0.077  12.311  1.1412  0.3562 -1.2987
12687TIP3    H159476   5.510   0.133  12.385  2.8219 -1.0260  0.2703
12687TIP3    H259477   5.446   0.048  12.277  0.3244  2.1324 -0.8285
12688TIP3   OH259478   1.657   1.950  12.887  0.4963  0.1568 -0.3770
12688TIP3    H159479   1.624   2.019  12.944  0.1487 -0.5610  0.2954
12688TIP3    H259480   1.582   1.926  12.833  0.0111 -1.1558  0.8400
12689TIP3   OH259481   5.775   4.857  15.521  0.1666  0.2391  0.3793
12689TIP3    H159482   5.784   4.941  15.477  0.5999 -0.1977 -0.3777
12689TIP3    H259483   5.828   4.866  15.601  3.5145 -0.6475 -1.6431
12690TIP3   OH259484   3.724   6.704  11.551  0.5792 -0.7899  0.7018
12690TIP3    H159485   3.734   6.787  11.598  2.1208 -0.1951 -0.6458
12690TIP3    H259486   3.762   6.638  11.610 -0.7551 -0.5768  1.8249
12691TIP3   OH259487   5.133   5.454  16.766  0.3096 -0.3745 -0.5139
12691TIP3    H159488   5.177   5.377  16.802  0.4291  0.4968  1.2807
12691TIP3    H259489   5.103   5.502  16.843  0.5600  1.5569 -1.5882
12692TIP3   OH259490   5.536   5.130  14.286 -0.1737  0.7980 -0.1348
12692TIP3    H159491   5.496   5.043  14.277  1.9056 -0.0392 -1.6682
12692TIP3    H259492   5.489   5.170  14.359  0.6862 -2.7152  2.5301
12693TIP3   OH259493   5.841   0.132  16.521 -0.0360  0.1583 -0.5812
12693TIP3    H159494   5.863   0.140  16.613  0.0227 -0.9950 -0.4852
12693TIP3    H259495   5.889   0.203  16.478 -1.1727  1.5790  0.4467
12694TIP3   OH259496   2.895   0.871   5.300  0.2490 -0.1271 -0.0561
12694TIP3    H159497   2.903   0.777   5.282  0.8933  0.2566 -1.9787
12694TIP3    H259498   2.862   0.907   5.217  1.4354  1.5279  0.1850
12695TIP3   OH259499   6.534   2.825   1.995 -0.3264  0.1325 -0.4179
12695TIP3    H159500   6.475   2.761   1.955 -0.6938  0.0711  0.2021
12695TIP3    H259501   6.522   2.904   1.943 -0.2444 -0.1613 -0.8814
12696TIP3   OH259502   1.066   0.800  14.183 -0.3287  0.6852  0.3256
12696TIP3    H159503   1.071   0.718  14.233  0.5608  0.5789  0.0762
12696TIP3    H259504   1.030   0.863  14.245  0.0283  0.3631  0.8734
12697TIP3   OH259505   5.955   0.028   4.461  0.7961  0.0887  0.4248
12697TIP3    H159506   5.959   0.102   4.521  1.2723  1.5937 -1.4536
12697TIP3    H259507   6.046   0.010   4.438  0.7088 -1.2493  1.0482
12698TIP3   OH259508   6.096   2.083   0.365 -0.0199 -0.7062 -0.1370
12698TIP3    H159509   6.144   2.010   0.326  0.3511 -1.2776  1.3588
12698TIP3    H259510   6.004   2.060   0.353  0.0960 -1.2663  0.0301
12699TIP3   OH259511   6.390   1.323   2.617  0.0744 -0.4157 -0.3139
12699TIP3    H159512   6.347   1.288   2.695 -0.3805  0.0750 -0.3438
12699TIP3    H259513   6.320   1.368   2.569 -0.4083 -3.4290 -2.6267
12700TIP3   OH259514   0.103   3.714   0.454  0.1799 -0.3164  0.0314
12700TIP3    H159515   0.054   3.636   0.429  0.7257 -1.1554  1.5014
12700TIP3    H259516   0.128   3.699   0.545 -1.3158  2.4171  0.9756
12701TIP3   OH259517   4.730   1.599   4.272  0.3693  0.5222 -0.5525
12701TIP3    H159518   4.759   1.516   4.310  0.0419 -0.0695 -1.5860
12701TIP3    H259519   4.704   1.577   4.183  1.9662  2.0780 -1.4289
12702TIP3   OH259520   5.407   5.378   0.513  0.4905  0.3717  0.0288
12702TIP3    H159521   5.404   5.342   0.602  1.7560 -0.9223 -0.4147
12702TIP3    H259522   5.496   5.358   0.483 -0.5423 -1.0461 -2.2556
12703TIP3   OH259523   4.758   2.604   5.201 -0.8789  0.4019  0.2232
12703TIP3    H159524   4.704   2.657   5.142 -0.5852  1.8524  1.2130
12703TIP3    H259525   4.708   2.602   5.283 -0.2014  0.3794  0.6399
12704TIP3   OH259526   4.142   3.623  16.650 -0.2692  0.0968 -0.0547
12704TIP3    H159527   4.115   3.708  16.613 -0.0884 -1.2564 -3.5433
12704TIP3    H259528   4.073   3.600  16.711 -2.3597  0.9419 -2.0312
12705TIP3   OH259529   5.779   3.264  12.764  0.0401 -0.4463 -0.1478
12705TIP3    H159530   5.761   3.213  12.844  0.1018  0.6886  0.6011
12705TIP3    H259531   5.867   3.237  12.738  1.2833  1.4082  1.9264
12706TIP3   OH259532   3.070   1.999  11.684 -0.2722 -0.4567  0.4660
12706TIP3    H159533   3.102   2.036  11.602 -1.9076  0.9062  0.4003
12706TIP3    H259534   3.141   2.011  11.746  0.7792 -1.0162 -0.6170
12707TIP3   OH259535   5.847   2.858  13.246 -0.1614 -0.1948 -0.7115
12707TIP3    H159536   5.771   2.830  13.297 -0.4392 -0.2124 -1.1276
12707TIP3    H259537   5.920   2.807  13.281  0.0755  1.3456  1.1124
12708TIP3   OH259538   0.796   6.750  13.967 -0.1749  0.0567  0.2903
12708TIP3    H159539   0.706   6.761  13.999 -0.0436 -3.1396  1.9742
12708TIP3    H259540   0.823   6.665  14.001  2.5898 -0.2131 -2.4209
12709TIP3   OH259541   2.028   6.374  15.309  0.8019  0.0878 -0.0777
12709TIP3    H159542   1.971   6.309  15.267  1.5910 -0.6753  0.0219
12709TIP3    H259543   2.112   6.329  15.320  0.9754  0.7079  1.1601
12710TIP3   OH259544   5.370   2.585   3.719 -0.5609  0.1641  0.1676
12710TIP3    H159545   5.303   2.518   3.708 -2.1212  1.8304 -0.6794
12710TIP3    H259546   5.438   2.561   3.657  0.0214 -1.9835  1.5888
12711TIP3   OH259547   5.013   0.589  12.675 -0.2161  0.1736 -0.3928
12711TIP3    H159548   5.000   0.674  12.634 -1.5281 -0.3815 -1.1416
12711TIP3    H259549   5.022   0.608  12.768 -2.0986  0.9807 -0.3668
12712TIP3   OH259550   0.824   6.314   3.845  0.4661 -0.3532  1.0349
12712TIP3    H159551   0.857   6.403   3.839  0.7069 -0.3734  2.0817
12712TIP3    H259552   0.729   6.323   3.837  0.5682 -0.1249 -0.0840
12713TIP3   OH259553   0.630   0.167   0.294  0.2707  0.3103 -0.0521
12713TIP3    H159554   0.686   0.241   0.315  0.3473  0.2485 -0.0383
12713TIP3    H259555   0.541   0.199   0.309  0.3639 -0.0245  1.3210
12714TIP3   OH259556   1.812   4.156   4.119  0.0906  0.1512 -0.0268
12714TIP3    H159557   1.746   4.167   4.051  0.0104 -1.6944 -0.2700
12714TIP3    H259558   1.783   4.213   4.190 -0.5595  1.0458 -0.9993
12715TIP3   OH259559   2.484   1.908  11.795  0.6958  0.8193  0.0425
12715TIP3    H159560   2.498   1.870  11.882  0.2125  1.2958  0.3361
12715TIP3    H259561   2.426   1.983  11.811 -1.9269 -0.8966 -1.0977
12716TIP3   OH259562   2.955   0.595  16.433  0.0800  0.2049 -0.1567
12716TIP3    H159563   2.972   0.578  16.340  0.9671 -1.1622  0.2410
12716TIP3    H259564   3.004   0.527  16.479 -1.1970  0.2370  1.2867
12717TIP3   OH259565   2.447   5.615  16.126 -0.2638  0.5925 -0.0246
12717TIP3    H159566   2.488   5.648  16.047  1.6924  1.2254  1.2200
12717TIP3    H259567   2.479   5.672  16.196 -1.0511 -0.6548  1.3915
12718TIP3   OH259568   6.231   5.067   5.396  0.3017 -0.0170  0.5025
12718TIP3    H159569   6.154   5.095   5.347 -1.4457 -2.2752  1.8928
12718TIP3    H259570   6.301   5.125   5.365 -1.6800  1.3528 -1.5688
12719TIP3   OH259571   2.278   6.692  13.833  0.0491  0.0628 -0.0850
12719TIP3    H159572   2.244   6.736  13.911 -3.8242  0.0559 -1.6394
12719TIP3    H259573   2.294   6.602  13.862  2.0968  0.9233  1.5629
12720TIP3   OH259574   2.222   2.840   1.677  0.0645 -0.4505 -0.0181
12720TIP3    H159575   2.309   2.873   1.699 -0.2190  0.2783  0.0152
12720TIP3    H259576   2.210   2.863   1.585 -0.6571  0.7275  0.3486
12721TIP3   OH259577   4.211   0.784   2.016  0.3063  0.1645  0.0478
12721TIP3    H159578   4.203   0.695   1.981  1.1191 -0.0745  0.4591
12721TIP3    H259579   4.244   0.836   1.944 -2.4173  0.6529 -0.9318
12722TIP3   OH259580   5.061   5.435  11.780  0.0730 -0.0165 -0.4392
12722TIP3    H159581   4.970   5.441  11.753 -0.2422 -2.0042  0.1032
12722TIP3    H259582   5.105   5.391  11.707  0.4563  0.3180 -0.4129
12723TIP3   OH259583   3.008   6.656   5.948  0.3483  0.0703 -0.1988
12723TIP3    H159584   3.053   6.575   5.971  0.3133 -0.1457 -0.8736
12723TIP3    H259585   2.928   6.656   6.000  0.4920 -0.1818  0.0199
12724TIP3   OH259586   0.978   4.372  16.993 -0.0446  0.2234 -0.2837
12724TIP3    H159587   0.903   4.326  16.957 -0.9724  0.6257  1.0750
12724TIP3    H259588   1.041   4.376  16.922 -1.4121  0.0906 -1.5181
12725TIP3   OH259589   4.676   0.640   0.341  0.4261 -0.2950  0.2941
12725TIP3    H159590   4.608   0.707   0.332  0.4965 -0.2463  0.1156
12725TIP3    H259591   4.748   0.684   0.385  0.2722 -0.3970  0.6522
12726TIP3   OH259592   1.326   6.623   3.030 -0.0693  0.6752 -0.2383
12726TIP3    H159593   1.318   6.658   3.119  0.6606  1.6939 -0.5648
12726TIP3    H259594   1.394   6.557   3.036  0.7375  1.4909 -0.2433
12727TIP3   OH259595   1.632   5.603  12.985 -0.6978 -0.6959  0.4640
12727TIP3    H159596   1.712   5.653  12.995 -0.3224 -1.0185 -0.8156
12727TIP3    H259597   1.566   5.654  13.032 -0.0643  0.3505  0.2387
12728TIP3   OH259598   3.107   6.732   0.651  0.1025 -0.4425  0.4079
12728TIP3    H159599   3.053   6.718   0.729 -0.0656 -0.5054  0.2809
12728TIP3    H259600   3.167   6.657   0.651 -0.2717 -0.7452  0.1669
12729TIP3   OH259601   0.293   1.735   5.243 -0.0790 -0.2794 -0.2101
12729TIP3    H159602   0.230   1.687   5.297 -0.8295  0.3667 -0.4979
12729TIP3    H259603   0.270   1.712   5.153  0.2551 -0.2285 -0.3105
12730TIP3   OH259604   5.357   4.469  15.247 -0.5702  0.4632 -0.2763
12730TIP3    H159605   5.365   4.387  15.199  0.6900  0.6935 -0.4861
12730TIP3    H259606   5.430   4.523  15.215 -0.5068  1.1107  0.9137
12731TIP3   OH259607   5.675   5.373  16.313 -0.1454 -0.2397 -0.3473
12731TIP3    H159608   5.697   5.300  16.255  0.8720  1.4107 -2.0885
12731TIP3    H259609   5.586   5.397  16.289  0.1379  0.1974 -0.9530
12732TIP3   OH259610   2.872   5.391  12.562  0.0297  0.4243  0.5527
12732TIP3    H159611   2.837   5.456  12.501  0.5650  1.2302  1.0973
12732TIP3    H259612   2.882   5.312  12.510 -0.9949  0.6657 -0.0240
12733TIP3   OH259613   5.874   6.427   5.224 -0.3956 -0.0489 -0.4979
12733TIP3    H159614   5.805   6.409   5.161  0.5829 -0.3075 -1.5004
12733TIP3    H259615   5.915   6.343   5.240 -0.7645 -0.0270  0.6629
12734TIP3   OH259616   6.745   2.051   4.348  0.1306 -0.6398 -0.4378
12734TIP3    H159617   6.817   2.087   4.400 -0.7130 -0.5487  0.6805
12734TIP3    H259618   6.787   1.989   4.288  1.2609  0.2113 -0.5291
12735TIP3   OH259619   4.342   0.976  15.204 -0.5804  0.0469  0.2932
12735TIP3    H159620   4.436   0.991  15.217 -0.6073  0.2572  0.2421
12735TIP3    H259621   4.334   0.880  15.200 -0.3128  0.0414 -0.1354
12736TIP3   OH259622   3.173   6.214   5.578 -0.3643  0.3448 -0.2730
12736TIP3    H159623   3.184   6.184   5.488  2.4528 -0.5531  0.3210
12736TIP3    H259624   3.123   6.145   5.621 -0.7447  0.2424 -0.8864
12737TIP3   OH259625   4.152   1.932  16.167  0.2265  0.2739  0.2086
12737TIP3    H159626   4.078   1.982  16.202 -1.5749 -1.8749 -0.3688
12737TIP3    H259627   4.157   1.958  16.075  0.9224  1.2556  0.5210
12738TIP3   OH259628   1.637   6.653   1.338  0.0063  0.0848  0.3372
12738TIP3    H159629   1.561   6.707   1.317  0.5658  0.9007  0.3827
12738TIP3    H259630   1.646   6.595   1.263  0.0403  0.7782 -0.1985
12739TIP3   OH259631   1.785   1.399  13.848  0.0618  0.8210  0.1475
12739TIP3    H159632   1.785   1.456  13.771  1.2604 -0.6310 -0.9601
12739TIP3    H259633   1.765   1.312  13.814 -0.6645  0.3681  1.6710
12740TIP3   OH259634   4.787   0.312   1.220 -0.2368  0.0852 -0.2326
12740TIP3    H159635   4.786   0.328   1.125  1.3871  0.3869 -0.2194
12740TIP3    H259636   4.870   0.349   1.249 -0.6506 -0.1619  1.2943
12741TIP3   OH259637   6.094   1.329   2.496 -0.7995 -0.8117 -0.6960
12741TIP3    H159638   6.063   1.391   2.562 -1.9597  0.0330 -1.9936
12741TIP3    H259639   6.105   1.247   2.542 -2.4364 -0.4508  0.3584
12742TIP3   OH259640   2.606   3.919  12.440  0.0948  0.6939  0.3301
12742TIP3    H159641   2.633   4.004  12.406  1.3521  0.8646  1.7481
12742TIP3    H259642   2.675   3.893  12.501 -0.5421 -1.0930  0.3380
12743TIP3   OH259643   1.341   0.368  11.539  0.1273  0.3226  0.3260
12743TIP3    H159644   1.332   0.286  11.491 -2.7836  0.4000  0.6609
12743TIP3    H259645   1.352   0.341  11.630  2.0985  0.2579  0.0811
12744TIP3   OH259646   6.305   6.360  12.678  0.0286 -0.1919 -0.3860
12744TIP3    H159647   6.246   6.302  12.726  0.1202  1.3498  1.6422
12744TIP3    H259648   6.246   6.420  12.631 -0.0708  1.3780  1.6787
12745TIP3   OH259649   0.259   6.043   1.077  0.0174  0.5361 -0.3385
12745TIP3    H159650   0.199   5.985   1.126  1.8074  0.5426  1.9388
12745TIP3    H259651   0.205   6.077   1.006 -1.7821 -2.0053 -0.2899
12746TIP3   OH259652   2.332   1.730  15.628  0.1969 -0.0767 -0.3051
12746TIP3    H159653   2.302   1.736  15.719 -0.4363 -1.6686 -0.3955
12746TIP3    H259654   2.260   1.687  15.582  1.1934 -0.7774 -1.2385
12747TIP3   OH259655   0.256   2.601  10.987 -0.2007 -0.3174 -0.8495
12747TIP3    H159656   0.187   2.537  10.968  1.6258 -1.9484 -2.0900
12747TIP3    H259657   0.267   2.649  10.905 -0.6435  0.7208 -0.3082
12748TIP3   OH259658   1.672   3.783  17.236 -0.4638  0.4284 -0.5008
12748TIP3    H159659   1.605   3.732  17.191 -0.7355  0.0821  0.2925
12748TIP3    H259660   1.747   3.723  17.243 -0.5574  0.3548 -0.1428
12749TIP3   OH259661   5.396   0.052   3.466 -0.1671  0.7155 -0.5131
12749TIP3    H159662   5.302   0.033   3.458 -0.3095  1.5089 -0.7746
12749TIP3    H259663   5.434   0.017   3.386  0.1878 -2.1345  0.8529
12750TIP3   OH259664   2.517   4.649   5.093 -0.0355  0.0818 -0.1688
12750TIP3    H159665   2.585   4.624   5.031  1.1149 -1.7536  1.7761
12750TIP3    H259666   2.542   4.736   5.123  0.4752  0.1551 -0.8044
12751TIP3   OH259667   1.656   6.430   3.635 -0.0741  0.0986 -0.7497
12751TIP3    H159668   1.638   6.451   3.544  2.5355  1.1933 -1.0662
12751TIP3    H259669   1.733   6.483   3.657 -1.1457  0.4638  2.3325
12752TIP3   OH259670   5.133   6.080  14.973  0.0183 -0.5273 -0.3292
12752TIP3    H159671   5.162   6.090  14.882 -1.6068  0.6645 -0.7339
12752TIP3    H259672   5.213   6.056  15.021  1.5484  1.9993 -1.5212
12753TIP3   OH259673   3.159   5.615   4.469 -0.2573  0.2511  0.2668
12753TIP3    H159674   3.222   5.590   4.537 -0.1609 -0.3971 -0.0539
12753TIP3    H259675   3.094   5.668   4.515 -1.4115 -2.0157  1.3669
12754TIP3   OH259676   2.138   2.189  12.227  0.1298  0.0131 -0.1152
12754TIP3    H159677   2.176   2.248  12.162  1.2376 -0.7627 -0.1934
12754TIP3    H259678   2.202   2.118  12.234 -0.2293 -0.1605  1.4562
12755TIP3   OH259679   6.497   0.896  11.195  0.7195  0.0262  0.4225
12755TIP3    H159680   6.582   0.874  11.157  0.7254 -0.1708  0.5542
12755TIP3    H259681   6.434   0.847  11.142  0.6617  0.4096  0.1335
12756TIP3   OH259682   4.162   4.237  13.932  0.7829 -0.3890  0.1165
12756TIP3    H159683   4.120   4.294  13.996  0.3967 -0.5322 -0.0067
12756TIP3    H259684   4.169   4.291  13.853 -0.7011 -0.8993 -0.3776
12757TIP3   OH259685   0.184   3.875  17.168 -0.2881 -0.0586  0.3673
12757TIP3    H159686   0.131   3.814  17.117  1.5681 -1.3497 -0.0737
12757TIP3    H259687   0.194   3.833  17.254  3.4035 -1.8411 -0.8406
12758TIP3   OH259688   1.471   4.699   4.563  0.2625 -0.5044  0.6938
12758TIP3    H159689   1.493   4.727   4.652 -0.5817  0.8152  0.4832
12758TIP3    H259690   1.386   4.737   4.545  1.6132  1.5440 -1.7010
12759TIP3   OH259691   3.631   2.697   4.244  0.1595  0.2370  0.2213
12759TIP3    H159692   3.648   2.671   4.335 -0.0123 -1.2458 -0.1618
12759TIP3    H259693   3.714   2.733   4.215  0.7578 -0.9331  0.4232
12760TIP3   OH259694   5.060   5.391   2.850  0.4043 -0.3303  0.1171
12760TIP3    H159695   4.971   5.423   2.842  0.8871  1.3721  1.3421
12760TIP3    H259696   5.057   5.326   2.920  0.0672 -0.5227 -0.0777
12761TIP3   OH259697   1.544   2.121   2.552  0.6067  0.4403  0.3272
12761TIP3    H159698   1.635   2.109   2.581  1.2290 -1.1086 -2.1365
12761TIP3    H259699   1.544   2.094   2.461 -2.5028 -0.2038  0.4686
12762TIP3   OH259700   3.249   5.400   4.883 -0.3602  0.2793 -0.6271
12762TIP3    H159701   3.166   5.428   4.921  0.3400  0.8668  0.5051
12762TIP3    H259702   3.255   5.307   4.902 -1.4770 -0.1124 -2.0935
12763TIP3   OH259703   4.960   5.794  12.586  0.3396  0.4819  0.0980
12763TIP3    H159704   4.934   5.706  12.560  1.5607  0.2232 -0.3098
12763TIP3    H259705   4.887   5.827  12.639  0.0881 -0.9613  0.6733
12764TIP3   OH259706   2.761   2.554   5.463  0.6165  0.3173 -0.2568
12764TIP3    H159707   2.689   2.531   5.404 -1.6893  1.1396  2.1362
12764TIP3    H259708   2.720   2.608   5.531  3.3026 -0.0824  1.7508
12765TIP3   OH259709   3.396   0.006   1.053  0.3742 -0.3663 -0.0484
12765TIP3    H159710   3.442  -0.021   0.973  0.6129  0.9605 -0.3769
12765TIP3    H259711   3.310   0.034   1.022  0.4352  0.0655  0.1639
12766TIP3   OH259712   4.705   0.790  16.771  0.2020 -0.1183  0.2884
12766TIP3    H159713   4.630   0.772  16.713  1.9231 -0.0608 -2.0429
12766TIP3    H259714   4.739   0.703  16.793 -0.2113 -0.1279  0.8906
12767TIP3   OH259715   0.966   4.204  12.147  0.0770  0.2602 -0.0971
12767TIP3    H159716   1.048   4.196  12.098  1.1415 -1.5206  1.9069
12767TIP3    H259717   0.913   4.130  12.118  0.7748 -0.8945  1.4983
12768TIP3   OH259718   4.179   1.020  15.875  0.2212 -0.2560 -0.3773
12768TIP3    H159719   4.178   0.924  15.878 -0.2107 -0.2397  0.1426
12768TIP3    H259720   4.200   1.041  15.784  0.8177 -0.8426 -0.3871
12769TIP3   OH259721   1.436   0.412   3.612  0.3641  0.5347  0.0684
12769TIP3    H159722   1.514   0.368   3.644 -0.9220 -1.1908  0.8898
12769TIP3    H259723   1.377   0.415   3.687 -0.8745  0.6353 -0.8859
12770TIP3   OH259724   6.621   1.163  13.062 -0.0062 -0.4120 -0.3828
12770TIP3    H159725   6.575   1.163  13.146  0.8249  1.9711  0.1386
12770TIP3    H259726   6.609   1.252  13.029  2.7211 -0.2436 -1.0381
12771TIP3   OH259727   2.103   6.510   2.547  0.4362 -0.1515 -0.4384
12771TIP3    H159728   2.026   6.503   2.603 -0.4989 -1.7104 -1.8835
12771TIP3    H259729   2.145   6.591   2.575 -0.9717  0.0074  1.3069
12772TIP3   OH259730   3.103   5.420   1.029 -0.2269  1.0127  0.0048
12772TIP3    H159731   3.184   5.386   0.990 -0.4881 -0.6252  0.8349
12772TIP3    H259732   3.133   5.490   1.087  0.9121 -1.0939  2.0948
12773TIP3   OH259733   5.006   0.404   2.450  0.1718 -0.3975 -0.0169
12773TIP3    H159734   4.962   0.323   2.476  0.3286 -1.2781 -2.3673
12773TIP3    H259735   4.940   0.452   2.400  0.7597 -0.0970 -0.5102
12774TIP3   OH259736   1.164   2.938  13.864  0.2899  0.3056 -0.1377
12774TIP3    H159737   1.162   3.032  13.880 -0.3542  0.1986  0.4652
12774TIP3    H259738   1.207   2.902  13.942 -0.4376  0.0112  0.1290
12775TIP3   OH259739   4.666   1.401  13.614  0.4559  0.3595 -0.1283
12775TIP3    H159740   4.715   1.441  13.542  1.4226 -2.2082 -0.9340
12775TIP3    H259741   4.575   1.429  13.600  1.2539  3.0658 -0.0805
12776TIP3   OH259742   4.625   3.883  13.102 -0.5518 -0.1312  0.6097
12776TIP3    H159743   4.531   3.895  13.089 -0.4348 -0.9265 -1.0406
12776TIP3    H259744   4.665   3.946  13.042 -0.0283  0.3869  1.5028
12777TIP3   OH259745   0.221   1.258  11.000 -0.0537 -0.6082 -0.4872
12777TIP3    H159746   0.133   1.225  10.978 -0.1774  0.2874 -1.3693
12777TIP3    H259747   0.209   1.352  11.012  0.3912 -0.7915  1.5498
12778TIP3   OH259748   3.709   4.060  13.393  0.2823  0.5002 -0.1860
12778TIP3    H159749   3.750   4.143  13.368  0.9099  0.0742 -0.5836
12778TIP3    H259750   3.658   4.081  13.471  0.7472  1.1837 -0.0627
12779TIP3   OH259751   4.845   4.718  15.579 -0.4904 -0.1454  0.2949
12779TIP3    H159752   4.914   4.731  15.513  0.5987 -2.2926  0.9684
12779TIP3    H259753   4.765   4.751  15.537  0.2804 -0.9624 -1.8734
12780TIP3   OH259754   3.252   0.384   5.547  0.2494  0.4536 -0.3011
12780TIP3    H159755   3.213   0.356   5.629  0.7676 -0.6892 -0.4244
12780TIP3    H259756   3.189   0.445   5.509 -1.9391 -2.1811 -1.0270
12781TIP3   OH259757   0.701   2.749   6.423  0.3974  0.0072 -0.7131
12781TIP3    H159758   0.649   2.733   6.502  0.5258  0.6746 -0.4926
12781TIP3    H259759   0.669   2.685   6.360  0.3988 -0.6296 -0.0690
12782TIP3   OH259760   5.756   2.210  14.807 -0.3814  0.1885  1.0201
12782TIP3    H159761   5.770   2.302  14.785 -0.7331  0.4661  1.9601
12782TIP3    H259762   5.699   2.177  14.737  0.5059  0.4435  0.1747
12783TIP3   OH259763   3.647   3.982   4.884 -0.4324  0.1517 -0.0377
12783TIP3    H159764   3.605   3.926   4.949  0.3573 -1.9520 -1.2649
12783TIP3    H259765   3.640   3.932   4.802  2.7598  0.5622 -0.6364
12784TIP3   OH259766   6.426   5.709   3.308  0.4747 -0.3452 -0.1996
12784TIP3    H159767   6.333   5.691   3.314  0.5249 -0.5491 -0.0254
12784TIP3    H259768   6.462   5.633   3.261  1.0363 -1.8701  2.5925
12785TIP3   OH259769   6.718   2.992   4.523 -0.2459  0.2126  0.3786
12785TIP3    H159770   6.813   2.982   4.513 -0.3428 -0.6309  0.2471
12785TIP3    H259771   6.685   2.902   4.520 -1.1920  0.6017 -1.0376
12786TIP3   OH259772   5.430   0.641   5.530  0.0283  0.0309  0.2279
12786TIP3    H159773   5.431   0.573   5.463  0.3214 -1.0929  1.3467
12786TIP3    H259774   5.339   0.646   5.558 -0.2934  1.2585 -0.9917
12787TIP3   OH259775   5.820   5.991   5.660  0.3878 -0.0420 -0.4897
12787TIP3    H159776   5.913   5.969   5.656  0.4977  0.2382  0.4492
12787TIP3    H259777   5.792   5.995   5.568  1.4699  0.6029 -0.7898
12788TIP3   OH259778   6.181   1.767   1.859  0.0939  0.5401 -0.7529
12788TIP3    H159779   6.135   1.844   1.894  0.7107 -0.0116  1.3290
12788TIP3    H259780   6.128   1.693   1.886  0.5833  0.1004 -0.9881
12789TIP3   OH259781   2.047   0.049  13.309  0.0245  0.0580  0.4767
12789TIP3    H159782   2.123   0.106  13.317 -0.1498  0.3987 -0.1895
12789TIP3    H259783   1.972   0.107  13.322 -0.2312  0.4402 -2.3164
12790TIP3   OH259784   1.437   4.624  15.950 -0.0624 -0.1336  0.2667
12790TIP3    H159785   1.528   4.623  15.977 -0.0575 -1.3626  0.2383
12790TIP3    H259786   1.440   4.625  15.854 -0.0787  1.0832  0.2792
12791TIP3   OH259787   4.980   0.667  12.185  0.1412  0.3286  0.3038
12791TIP3    H159788   4.998   0.708  12.269 -0.8172  0.5354  0.4148
12791TIP3    H259789   4.922   0.594  12.205  1.2149 -0.6202  0.0109
12792TIP3   OH259790   3.355   1.410  13.822  0.0536  0.3546  0.0313
12792TIP3    H159791   3.406   1.391  13.901  0.5648 -1.7945 -0.7879
12792TIP3    H259792   3.361   1.331  13.769 -1.3945  1.2762 -1.5885
12793TIP3   OH259793   5.248   3.926  14.305  0.1137 -0.2040 -0.1061
12793TIP3    H159794   5.159   3.954  14.281  0.1648  0.1595  0.1273
12793TIP3    H259795   5.238   3.887  14.392 -0.0176 -1.2351 -0.5777
12794TIP3   OH259796   3.352   3.467   6.719  0.1416  0.6921  0.5600
12794TIP3    H159797   3.295   3.535   6.683 -1.2091 -0.4615  0.4882
12794TIP3    H259798   3.295   3.418   6.779  0.6062 -1.4853 -0.7482
12795TIP3   OH259799   0.607   5.303  11.925 -0.2602  0.1171  0.0381
12795TIP3    H159800   0.678   5.316  11.862  0.9062 -2.4396  0.7368
12795TIP3    H259801   0.640   5.344  12.006 -1.1907  2.2170 -0.6231
12796TIP3   OH259802   4.055   3.697   4.538  0.1634  0.1110  0.5546
12796TIP3    H159803   4.150   3.703   4.529  0.1130 -0.3205 -0.3709
12796TIP3    H259804   4.041   3.623   4.597  0.3608 -1.5217 -1.3645
12797TIP3   OH259805   1.939   2.404  14.737  0.1327  0.0389 -0.1154
12797TIP3    H159806   1.952   2.425  14.829 -1.3393 -1.8692  0.5774
12797TIP3    H259807   1.991   2.325  14.723  0.0555  0.1111 -0.8160
12798TIP3   OH259808   4.488   2.339   1.961  0.1619 -0.3949  0.1175
12798TIP3    H159809   4.412   2.286   1.983 -0.2952 -0.2183 -0.9796
12798TIP3    H259810   4.551   2.276   1.924  0.9611 -0.7051  1.9377
12799TIP3   OH259811   0.059   3.473  15.448 -0.2395 -0.0145  0.1996
12799TIP3    H159812   0.050   3.414  15.522  2.3271 -3.3446 -2.0185
12799TIP3    H259813  -0.029   3.482  15.413 -1.1259 -0.0686  2.3371
12800TIP3   OH259814   6.660   5.038   0.502 -0.7319 -0.2189 -0.3909
12800TIP3    H159815   6.700   4.979   0.439 -0.8302 -1.1465  0.4014
12800TIP3    H259816   6.716   5.032   0.580 -1.0004  0.3864 -0.1431
12801TIP3   OH259817   1.831   3.373   3.157  0.0839  0.1666  0.5749
12801TIP3    H159818   1.902   3.437   3.164 -1.7347  2.4813 -1.1658
12801TIP3    H259819   1.794   3.368   3.245  0.7061  0.9555  0.8881
12802TIP3   OH259820   2.647   4.925   3.703 -0.1908 -0.2119  0.3513
12802TIP3    H159821   2.615   5.015   3.707 -0.3541 -0.1328 -2.0497
12802TIP3    H259822   2.742   4.932   3.714 -0.3833  0.0830  1.8738
12803TIP3   OH259823   0.850   1.892  12.392 -0.2257 -0.5371 -0.0695
12803TIP3    H159824   0.917   1.946  12.432  0.0295 -0.3343 -0.7551
12803TIP3    H259825   0.872   1.802  12.418 -1.0154 -0.2545  1.5828
12804TIP3   OH259826   2.149   0.662  14.081  0.3382  0.7639  0.3492
12804TIP3    H159827   2.054   0.650  14.082  0.2026  1.7851  0.1889
12804TIP3    H259828   2.185   0.574  14.070 -0.6021  0.4157  0.0812
12805TIP3   OH259829   0.288   0.071   1.159 -0.2927  0.0242 -0.0093
12805TIP3    H159830   0.239   0.153   1.160 -0.4607 -0.0790  0.5893
12805TIP3    H259831   0.222   0.003   1.169 -0.0277 -0.1092  0.8906
12806TIP3   OH259832   2.393   2.141  14.278  0.3365 -0.1635 -0.0920
12806TIP3    H159833   2.462   2.184  14.328  1.6271 -0.0908 -1.8834
12806TIP3    H259834   2.438   2.104  14.202 -1.4360 -1.0216 -0.7560
12807TIP3   OH259835   0.162   0.789  12.732 -0.2437  0.5522 -0.1387
12807TIP3    H159836   0.118   0.872  12.718 -0.2452  1.0551  2.6284
12807TIP3    H259837   0.245   0.797  12.685 -0.4888  1.8906 -0.3400
12808TIP3   OH259838   1.752   3.111   3.140  0.6593  0.0376  0.2119
12808TIP3    H159839   1.756   3.093   3.046 -1.2704  1.1293 -0.0996
12808TIP3    H259840   1.787   3.200   3.150 -1.2973  0.8351  0.2108
12809TIP3   OH259841   0.105   2.443  12.236 -0.3004  0.0105 -0.4506
12809TIP3    H159842   0.080   2.450  12.144 -0.2125  1.0119 -0.3932
12809TIP3    H259843   0.198   2.466  12.239 -0.3300  0.0944 -0.0884
12810TIP3   OH259844   1.088   2.572  15.055 -0.5552  0.1556  0.3888
12810TIP3    H159845   1.045   2.516  15.121  0.0658  0.6164  1.1905
12810TIP3    H259846   1.027   2.645  15.043  0.0742  0.9099  1.6717
12811TIP3   OH259847   6.143   5.397   1.217  0.5180  0.0562 -0.3732
12811TIP3    H159848   6.139   5.482   1.175  1.5497  0.2659 -0.0663
12811TIP3    H259849   6.071   5.398   1.281 -1.0573 -0.2686 -2.0946
12812TIP3   OH259850   3.716   2.652   4.999 -0.2121  0.3971  0.2925
12812TIP3    H159851   3.725   2.738   4.959 -0.7277  0.5449  0.4936
12812TIP3    H259852   3.627   2.625   4.978  0.2851 -0.5463 -0.6714
12813TIP3   OH259853   1.919   4.862  13.859 -0.9725 -0.7019 -0.1354
12813TIP3    H159854   1.941   4.867  13.766 -1.5126  0.9237 -0.1829
12813TIP3    H259855   1.826   4.882  13.863 -0.5848  0.9693  0.9284
12814TIP3   OH259856   1.653   6.582  11.417 -0.5962 -0.1521  0.0013
12814TIP3    H159857   1.592   6.587  11.490 -1.0601 -0.4626 -0.3603
12814TIP3    H259858   1.676   6.673  11.398 -1.2985 -0.0043 -0.1537
12815TIP3   OH259859   6.161   3.150   5.928  0.9414  0.0186 -0.2621
12815TIP3    H159860   6.200   3.216   5.986  0.0347 -0.2209  0.6224
12815TIP3    H259861   6.227   3.138   5.859  1.8890  0.5469  0.5322
12816TIP3   OH259862   0.029   3.928   2.971 -0.3602 -0.2772  0.6801
12816TIP3    H159863   0.117   3.890   2.971 -0.5800 -0.7847  1.2777
12816TIP3    H259864  -0.029   3.853   2.956 -0.6968  0.0523  0.3226
12817TIP3   OH259865   5.069   5.658  10.995  0.2491 -0.1880  0.4707
12817TIP3    H159866   5.161   5.685  11.002  0.7553 -2.0631  1.1834
12817TIP3    H259867   5.066   5.605  10.915 -0.4312  0.6951 -0.0967
12818TIP3   OH259868   0.137   2.897  14.713  0.6020 -0.0448 -0.5703
12818TIP3    H159869   0.075   2.966  14.694  0.9142  0.1957 -0.7260
12818TIP3    H259870   0.090   2.816  14.694  0.5602  0.1560 -1.3372
12819TIP3   OH259871   2.831   4.439  13.920  0.3516  0.1492  0.1165
12819TIP3    H159872   2.854   4.405  13.833  1.3162  0.8673  0.0901
12819TIP3    H259873   2.844   4.533  13.913 -1.0372  0.3935  0.5946
12820TIP3   OH259874   2.410   5.228   3.268 -0.0182  0.0415 -0.2094
12820TIP3    H159875   2.368   5.258   3.187 -0.7104 -2.3097 -0.7638
12820TIP3    H259876   2.415   5.133   3.258  2.1295 -0.0494  1.4670
12821TIP3   OH259877   4.774   5.486   3.248  0.0759 -0.2757  0.1778
12821TIP3    H159878   4.683   5.504   3.272  0.0740  0.1006 -0.1024
12821TIP3    H259879   4.769   5.458   3.156  0.0718 -1.8098  0.6482
12822TIP3   OH259880   1.210   0.061  13.646 -0.8485  0.1805 -0.0122
12822TIP3    H159881   1.176  -0.004  13.585 -1.7073 -0.1393  0.7992
12822TIP3    H259882   1.246   0.010  13.718  0.2024  0.5585 -0.2563
12823TIP3   OH259883   4.504   1.834  13.523 -0.4411 -0.1910 -0.2243
12823TIP3    H159884   4.563   1.856  13.452  1.2158  2.5574  1.8968
12823TIP3    H259885   4.561   1.825  13.600 -2.6323  1.9681  1.7565
12824TIP3   OH259886   3.156   1.823  14.075  0.1476 -0.0198 -0.1394
12824TIP3    H159887   3.177   1.747  14.020  0.8880 -0.3353  0.5670
12824TIP3    H259888   3.098   1.876  14.021 -1.2047 -1.5820 -0.2673
12825TIP3   OH259889   4.976   2.259   2.304 -0.0435 -0.1910 -0.1837
12825TIP3    H159890   4.996   2.284   2.214  1.1615 -1.0943 -0.1681
12825TIP3    H259891   5.060   2.262   2.350 -0.6931  0.5530  0.9912
12826TIP3   OH259892   5.257   5.719  11.786  0.6105 -0.1603 -0.1832
12826TIP3    H159893   5.280   5.629  11.812 -1.2702 -0.7726 -0.5267
12826TIP3    H259894   5.337   5.769  11.801  1.6397 -1.8521  0.2142
12827TIP3   OH259895   5.460   6.271  14.760 -0.2927 -0.0172  0.3419
12827TIP3    H159896   5.445   6.328  14.685  2.3362 -0.6757 -0.7393
12827TIP3    H259897   5.524   6.207  14.729 -0.8091 -1.6409  2.4889
12828TIP3   OH259898   3.359   1.296   2.254  0.3574  0.7195 -0.3324
12828TIP3    H159899   3.351   1.352   2.177 -1.8202 -0.0264 -0.6838
12828TIP3    H259900   3.274   1.302   2.297  1.9284  2.0126  2.6689
12829TIP3   OH259901   4.430   0.907   2.313 -0.4081 -0.3310 -0.1877
12829TIP3    H159902   4.341   0.875   2.297 -1.0005  0.6030  1.1239
12829TIP3    H259903   4.418   0.986   2.365  1.1984 -0.0856 -0.1526
12830TIP3   OH259904   2.934   0.864   2.268 -0.5539 -0.3604 -0.0760
12830TIP3    H159905   3.025   0.843   2.248 -0.6292  1.0126 -2.0539
12830TIP3    H259906   2.935   0.958   2.289 -1.0819 -0.9619  2.7764
12831TIP3   OH259907   3.475   2.087   3.274 -0.2786  0.6441  0.3786
12831TIP3    H159908   3.494   2.118   3.185  0.4123  0.5834  0.5021
12831TIP3    H259909   3.542   2.129   3.328 -0.1721 -0.0028  0.7456
12832TIP3   OH259910   6.677   0.329   4.546 -0.1532 -0.5049  0.2083
12832TIP3    H159911   6.623   0.311   4.469  0.9166 -2.4265 -0.1328
12832TIP3    H259912   6.744   0.389   4.515 -1.7881  1.5459  0.5284
12833TIP3   OH259913   1.537   2.953   0.988 -0.3028 -0.2210 -0.0900
12833TIP3    H159914   1.595   2.895   0.939 -0.8002 -0.1481 -0.7710
12833TIP3    H259915   1.452   2.910   0.985 -0.3185 -0.2609  0.7919
12834TIP3   OH259916   1.794   4.870   2.354 -0.1724  0.6354 -0.5168
12834TIP3    H159917   1.699   4.877   2.349 -0.0439  1.9743 -1.3476
12834TIP3    H259918   1.825   4.911   2.273  1.1719  2.0212  0.6627
12835TIP3   OH259919   3.172   3.137  12.804  0.6910 -0.2939  0.3816
12835TIP3    H159920   3.238   3.112  12.868  1.2377  1.5284  0.5609
12835TIP3    H259921   3.174   3.066  12.738  2.6660 -0.3647  0.4992
12836TIP3   OH259922   1.588   0.192  16.315 -0.4073 -0.2816  0.2406
12836TIP3    H159923   1.519   0.254  16.341  0.0954 -0.6612  2.5696
12836TIP3    H259924   1.544   0.108  16.309 -0.9781  0.1874 -2.3770
12837TIP3   OH259925   4.922   4.344  14.192 -0.1822 -0.2454 -0.1303
12837TIP3    H159926   5.009   4.376  14.166  0.6198 -0.6470  1.9881
12837TIP3    H259927   4.863   4.379  14.125  1.4456  1.0444 -0.9305
12838TIP3   OH259928   3.334   4.310  15.636  0.2775  0.7624 -0.3533
12838TIP3    H159929   3.334   4.215  15.627 -0.3230  0.7950 -0.7341
12838TIP3    H259930   3.333   4.342  15.546 -1.3242  1.1155 -0.2305
12839TIP3   OH259931   2.210   3.539  14.657 -0.4402 -0.3007 -0.9452
12839TIP3    H159932   2.190   3.633  14.651 -0.8497 -0.4097 -1.3691
12839TIP3    H259933   2.304   3.535  14.670 -0.0875  0.1093 -3.1523
12840TIP3   OH259934   2.495   0.730   0.155  0.3294 -0.1654  0.2635
12840TIP3    H159935   2.490   0.763   0.065  0.6926  1.5753  0.8431
12840TIP3    H259936   2.589   0.727   0.174  0.2579 -0.6569  0.5375
12841TIP3   OH259937   2.404   3.208  12.821  0.1890 -0.3634 -0.6109
12841TIP3    H159938   2.404   3.303  12.805 -0.2798 -0.1281  0.7074
12841TIP3    H259939   2.496   3.184  12.822  0.4450  0.5988  1.8891
12842TIP3   OH259940   1.947   4.607  13.696 -0.4217  0.1619 -0.6098
12842TIP3    H159941   1.883   4.548  13.658 -0.0306 -0.6423 -0.0277
12842TIP3    H259942   1.905   4.640  13.776 -1.2377  1.8396 -1.7053
12843TIP3   OH259943   0.660   1.554  12.954 -0.0433  0.2141 -0.1403
12843TIP3    H159944   0.643   1.590  12.867 -1.0925  1.3654  0.5353
12843TIP3    H259945   0.576   1.518  12.981  0.6743 -1.5971 -0.2599
12844TIP3   OH259946   3.355   3.521   2.282 -0.3356  0.4872 -0.4326
12844TIP3    H159947   3.300   3.444   2.299 -1.7942  1.4965 -0.4933
12844TIP3    H259948   3.433   3.485   2.240 -1.7778 -0.8037 -2.1059
12845TIP3   OH259949   3.598   1.844  11.728 -0.6027 -0.5417 -0.2524
12845TIP3    H159950   3.609   1.908  11.798 -2.1882  0.3846 -0.8036
12845TIP3    H259951   3.507   1.815  11.736 -0.4230 -1.3912 -1.1191
12846TIP3   OH259952   0.997   3.600   4.478  0.1661  0.4609  0.4623
12846TIP3    H159953   1.026   3.527   4.422 -0.6950  0.2187  0.3275
12846TIP3    H259954   1.078   3.642   4.506  0.6795 -0.6019  0.6037
12847TIP3   OH259955   0.908   1.495   2.701 -0.3438 -0.3076  0.0736
12847TIP3    H159956   0.863   1.565   2.654 -0.9883  0.4569  1.7720
12847TIP3    H259957   0.994   1.489   2.659 -0.8298  0.4873 -1.0573
12848TIP3   OH259958   2.711   6.250  15.135 -0.4351 -0.3298  0.2771
12848TIP3    H159959   2.662   6.306  15.195 -1.2510 -1.1954  0.4358
12848TIP3    H259960   2.684   6.278  15.048  0.3679  0.5875  0.3122
12849TIP3   OH259961   1.059   2.011   5.515 -0.2951  0.0171  0.7148
12849TIP3    H159962   0.987   1.948   5.512  0.6473 -1.0230 -2.0349
12849TIP3    H259963   1.133   1.962   5.552 -0.1467  0.1260  0.5664
12850TIP3   OH259964   3.725   2.636  11.763  0.0388 -0.5996 -0.3597
12850TIP3    H159965   3.776   2.566  11.803  0.6165  0.7645  1.3371
12850TIP3    H259966   3.634   2.613  11.781  0.1952 -1.2268 -0.3542
12851TIP3   OH259967   3.107   2.172   1.624  0.0423  0.6325 -0.3418
12851TIP3    H159968   3.150   2.166   1.709  1.2982  3.6878 -0.6945
12851TIP3    H259969   3.017   2.200   1.644 -0.1643 -0.3145  0.0664
12852TIP3   OH259970   2.789   5.956   0.360 -0.2356 -0.4876 -0.3666
12852TIP3    H159971   2.712   6.012   0.350  0.0299  0.2169  1.2616
12852TIP3    H259972   2.756   5.878   0.404 -0.1209 -0.4095 -0.1396
12853TIP3   OH259973   0.609   2.961   3.130 -0.2493 -0.1533  0.8026
12853TIP3    H159974   0.525   2.931   3.166 -0.6854  0.7013  0.5014
12853TIP3    H259975   0.674   2.933   3.195 -0.6989 -1.3717  0.7249
12854TIP3   OH259976   3.203   2.373   2.167 -0.1057  0.0537 -0.1621
12854TIP3    H159977   3.161   2.394   2.084  0.0347 -0.0471 -0.2578
12854TIP3    H259978   3.240   2.457   2.197  0.3780 -0.0362 -0.5023
12855TIP3   OH259979   6.045   3.728   5.099 -0.2735 -0.0784 -0.0737
12855TIP3    H159980   6.094   3.808   5.082  0.2629 -0.1651  1.0177
12855TIP3    H259981   5.999   3.710   5.017  1.5091  0.0278 -1.1280
12856TIP3   OH259982   6.541   0.694   2.016 -0.0152 -0.6640  0.5868
12856TIP3    H159983   6.446   0.689   2.006  0.0322 -2.3203  0.7984
12856TIP3    H259984   6.562   0.625   2.079  1.5268 -1.6516 -0.9603
12857TIP3   OH259985   2.137   2.865  14.695  0.1797  0.2024  0.2130
12857TIP3    H159986   2.148   2.775  14.666 -0.8696  0.3933 -0.8028
12857TIP3    H259987   2.138   2.860  14.791  0.3888 -0.8459  0.1584
12858TIP3   OH259988   0.747   0.022   1.027  0.1075 -0.1220 -0.5351
12858TIP3    H159989   0.693   0.017   1.106 -0.1998 -0.4821 -0.7676
12858TIP3    H259990   0.685   0.042   0.957  0.4024  0.3553 -0.6621
12859TIP3   OH259991   3.914   1.833  16.543 -0.5709 -0.0209  0.4303
12859TIP3    H159992   3.985   1.830  16.479  0.4634 -0.3148  1.5746
12859TIP3    H259993   3.834   1.829  16.490  0.2435  0.7695 -0.9007
12860TIP3   OH259994   3.797   6.682  16.937 -0.0321  0.3065 -0.0561
12860TIP3    H159995   3.710   6.717  16.958 -0.0016  1.3619 -1.5663
12860TIP3    H259996   3.797   6.676  16.841  0.1569 -3.4490  0.1153
12861TIP3   OH259997   3.929   6.426  15.604 -0.0831 -0.4135 -0.8226
12861TIP3    H159998   3.914   6.510  15.648 -4.0382 -2.3566  1.8060
12861TIP3    H259999   4.001   6.386  15.654 -0.4638 -0.0035  0.0625
12862TIP3   OH260000   0.678   5.965  13.906  0.4335  0.5952  1.0676
12862TIP3    H160001   0.677   5.927  13.994 -0.3981  0.5268  1.0285
12862TIP3    H260002   0.691   6.059  13.921  0.2311  0.5922  1.2674
12863TIP3   OH260003   0.231   1.234  14.073 -0.0243  0.0235 -0.1805
12863TIP3    H160004   0.277   1.245  14.156  0.4303 -2.0475 -0.1251
12863TIP3    H260005   0.192   1.147  14.078  1.2346 -0.7597 -2.6994
12864TIP3   OH260006   0.796   2.669   5.061  0.2085 -0.2311  0.6152
12864TIP3    H160007   0.737   2.745   5.062 -0.5050 -0.6172 -3.5259
12864TIP3    H260008   0.746   2.600   5.105  0.6151  1.4179  3.8589
12865TIP3   OH260009   4.418   5.384  15.387  0.2449 -0.0116  0.3242
12865TIP3    H160010   4.348   5.448  15.405  0.3308  0.0306  0.5074
12865TIP3    H260011   4.381   5.326  15.321  0.5462  0.8652 -0.6240
12866TIP3   OH260012   0.688   6.432   5.630 -0.4934  0.2281  0.2349
12866TIP3    H160013   0.750   6.499   5.602  0.8985 -1.5773 -1.1012
12866TIP3    H260014   0.724   6.350   5.597 -1.8733 -1.2739  2.3233
12867TIP3   OH260015   2.795   5.954  11.151  0.0239 -0.6438 -0.1422
12867TIP3    H160016   2.866   5.995  11.200 -1.5247  0.8195  0.9550
12867TIP3    H260017   2.753   5.895  11.213 -0.4225 -0.6359 -0.4272
12868TIP3   OH260018   0.484   4.388  14.473 -0.7649  0.2465  0.0660
12868TIP3    H160019   0.496   4.382  14.568  0.2505  0.1080 -0.0630
12868TIP3    H260020   0.524   4.472  14.450 -0.0170 -0.2314 -0.3855
12869TIP3   OH260021   3.526   4.106  15.593  0.2797  0.3953 -0.3445
12869TIP3    H160022   3.557   4.196  15.591 -0.5487  0.8046  2.3671
12869TIP3    H260023   3.580   4.060  15.529  2.8338  2.1619  0.4550
12870TIP3   OH260024   1.825   0.395   4.927 -0.1132  0.2518 -0.1428
12870TIP3    H160025   1.823   0.322   4.865  0.4679 -1.4308  1.7801
12870TIP3    H260026   1.909   0.439   4.909 -0.5682  0.6171 -1.4574
12871TIP3   OH260027   1.575   0.006   2.125  0.2746 -0.0845 -0.1551
12871TIP3    H160028   1.635   0.014   2.199  0.5546  1.0046 -0.5068
12871TIP3    H260029   1.539   0.093   2.113 -1.4459 -0.7349  0.0991
12872TIP3   OH260030   3.503   5.551  11.781  0.2070 -0.2191 -0.3112
12872TIP3    H160031   3.498   5.610  11.706 -0.5293 -0.3200 -0.3488
12872TIP3    H260032   3.532   5.467  11.744 -1.6313 -0.6807 -0.7283
12873TIP3   OH260033   0.426   3.862   5.084  0.3585 -0.2946 -0.1306
12873TIP3    H160034   0.521   3.873   5.084  0.5976 -2.3091  1.0885
12873TIP3    H260035   0.399   3.890   4.996  2.0997  0.0135 -0.5845
12874TIP3   OH260036   6.422   1.623   0.136 -0.4879  0.0664  0.2066
12874TIP3    H160037   6.502   1.586   0.099 -0.1635  0.6949  0.2808
12874TIP3    H260038   6.351   1.586   0.083 -0.0656  0.5224 -0.6767
12875TIP3   OH260039   5.844   3.810  13.841 -0.6944  0.3700  0.2193
12875TIP3    H160040   5.854   3.727  13.795  1.5388  1.0982 -0.6621
12875TIP3    H260041   5.908   3.806  13.911 -0.8973  1.1768  0.4523
12876TIP3   OH260042   5.549   2.290  16.206 -0.7027  0.0166 -0.2209
12876TIP3    H160043   5.507   2.270  16.290  0.8300 -2.4858  0.0046
12876TIP3    H260044   5.612   2.219  16.193 -0.3423  0.7936 -3.1225
12877TIP3   OH260045   0.002   4.821   0.740 -0.4335 -0.4934 -0.3563
12877TIP3    H160046  -0.087   4.794   0.763 -0.7010  0.8682  0.2628
12877TIP3    H260047   0.053   4.802   0.819 -0.6040  0.6998  0.0454
12878TIP3   OH260048   0.719   5.378  11.412  0.3619  0.0372  0.0389
12878TIP3    H160049   0.781   5.448  11.434 -1.1754  1.6983 -0.8113
12878TIP3    H260050   0.679   5.355  11.496 -2.4133  3.3952 -0.2603
12879TIP3   OH260051   4.728   0.827  15.837  0.5795  0.0975  0.7749
12879TIP3    H160052   4.792   0.792  15.775  0.9675 -0.3847  1.4416
12879TIP3    H260053   4.733   0.922  15.827  0.9762  0.0389  0.4116
12880TIP3   OH260054   0.087   0.427  14.179  0.3142 -0.8141  0.3490
12880TIP3    H160055   0.034   0.486  14.126  1.3303 -0.4876 -0.3259
12880TIP3    H260056   0.166   0.413  14.127  0.8165 -1.4276  1.2619
12881TIP3   OH260057   3.164   4.325   1.050  0.1470 -0.2080  0.1987
12881TIP3    H160058   3.072   4.316   1.076 -0.0593 -1.2930 -0.8423
12881TIP3    H260059   3.214   4.294   1.125 -0.3579  0.0188  0.6248
12882TIP3   OH260060   6.722   2.239   1.825 -0.3697  0.0720 -0.2593
12882TIP3    H160061   6.777   2.310   1.855 -1.3304  0.6843  0.0648
12882TIP3    H260062   6.633   2.265   1.848 -1.0315  0.0561 -2.6236
12883TIP3   OH260063   2.917   4.238  16.585  0.0020 -0.2084 -0.5019
12883TIP3    H160064   2.997   4.188  16.599 -0.6095 -1.1604 -0.4171
12883TIP3    H260065   2.948   4.324  16.555  1.0818 -0.2097  0.5754
12884TIP3   OH260066   5.965   4.671   3.434 -0.3249  0.1299 -0.2220
12884TIP3    H160067   5.927   4.697   3.518  0.2553  1.4704 -0.3558
12884TIP3    H260068   5.974   4.753   3.385  0.4669 -0.4813 -1.1226
12885TIP3   OH260069   1.675   5.179  12.455 -0.5981  0.7630  0.4842
12885TIP3    H160070   1.638   5.259  12.417 -1.4110  0.9455  1.6241
12885TIP3    H260071   1.718   5.209  12.535  2.5352  0.6426 -1.0730
12886TIP3   OH260072   3.031   4.761   1.968  0.3793 -0.1845  0.3027
12886TIP3    H160073   2.977   4.716   2.033  1.2364 -0.7768  0.6155
12886TIP3    H260074   3.098   4.697   1.944  1.7126  0.9779  0.8655
12887TIP3   OH260075   1.335   6.248   5.539 -0.3478 -0.0013  0.2060
12887TIP3    H160076   1.280   6.192   5.484 -0.0888 -0.6076  0.5633
12887TIP3    H260077   1.425   6.224   5.516 -0.2334 -0.8387  1.4685
12888TIP3   OH260078   5.247   6.714  13.132  0.4696  0.3486  0.1380
12888TIP3    H160079   5.337   6.740  13.153  0.8288  0.3562 -1.3538
12888TIP3    H260080   5.216   6.669  13.211  1.7958  0.2892  0.6381
12889TIP3   OH260081   0.567   4.307   0.552  0.0807 -0.2957  0.3259
12889TIP3    H160082   0.575   4.337   0.461 -1.2710  0.6962  0.5250
12889TIP3    H260083   0.655   4.318   0.588  0.2149  1.0231 -0.3496
12890TIP3   OH260084   0.216   3.446  17.150 -0.0139 -0.0584  0.9600
12890TIP3    H160085   0.141   3.496  17.117 -0.7130 -1.6352  0.1305
12890TIP3    H260086   0.259   3.412  17.071  1.0502  0.0513  1.4755
12891TIP3   OH260087   2.327   3.256   6.461  0.3881 -0.3354  0.1409
12891TIP3    H160088   2.248   3.205   6.477  0.1808 -0.5505 -1.4686
12891TIP3    H260089   2.304   3.313   6.387  1.6165 -0.1246 -0.0914
12892TIP3   OH260090   2.437   1.256   4.501 -0.1102 -0.1230 -0.5312
12892TIP3    H160091   2.523   1.234   4.466  1.0590 -0.8520  2.6800
12892TIP3    H260092   2.448   1.342   4.541 -0.7154 -0.5020  0.4543
12893TIP3   OH260093   2.769   6.479   3.284 -0.2599  0.2912 -0.3946
12893TIP3    H160094   2.844   6.537   3.301  1.1949 -1.6675  0.0023
12893TIP3    H260095   2.705   6.504   3.351  0.9758  0.3970  0.7836
12894TIP3   OH260096   1.170   4.750  15.942  0.2787 -0.2998 -0.6137
12894TIP3    H160097   1.264   4.732  15.942  1.2450  4.1441 -0.6788
12894TIP3    H260098   1.138   4.713  16.024  2.2642 -0.9922 -0.1299
12895TIP3   OH260099   3.992   6.048  11.743 -0.0344 -0.1677 -0.1552
12895TIP3    H160100   3.982   5.952  11.748 -2.5247  0.1137  1.0880
12895TIP3    H260101   3.964   6.071  11.655  0.8460 -0.6089 -0.5546
12896TIP3   OH260102   3.708   2.365  13.758  1.0433  0.4465  0.7247
12896TIP3    H160103   3.668   2.445  13.793  1.2816  1.3406 -1.0051
12896TIP3    H260104   3.765   2.396  13.687 -0.9526 -1.5055 -1.8110
12897TIP3   OH260105   3.571   4.672  15.084 -0.2345  0.0753  0.2382
12897TIP3    H160106   3.581   4.763  15.112 -2.0689  0.0359  1.1251
12897TIP3    H260107   3.576   4.676  14.988  1.6584  0.8249  0.3479
12898TIP3   OH260108   1.763   5.359   4.416  0.4159 -0.2650 -0.1218
12898TIP3    H160109   1.751   5.324   4.505  1.1408 -0.7863 -0.2259
12898TIP3    H260110   1.690   5.421   4.405  0.0704 -0.5164  0.6749
12899TIP3   OH260111   4.016   2.978  11.823 -0.5341 -0.2220  0.0513
12899TIP3    H160112   3.979   3.046  11.767  1.0237  1.5295  1.0769
12899TIP3    H260113   4.079   2.932  11.767  2.4888  2.7966  0.7940
12900TIP3   OH260114   5.770   6.300   2.719  0.0522  0.3253 -0.7268
12900TIP3    H160115   5.741   6.224   2.770  0.1245  0.8485  0.0990
12900TIP3    H260116   5.858   6.319   2.753  0.1228  0.6357 -1.0868
12901TIP3   OH260117   3.057   3.183   0.488 -0.4096 -0.1421 -0.1853
12901TIP3    H160118   3.044   3.270   0.525  0.3790  0.1193 -0.5249
12901TIP3    H260119   2.971   3.160   0.453 -1.0765 -0.2474  1.4685
12902TIP3   OH260120   1.938   4.611  11.604  0.8313 -0.0349  0.2275
12902TIP3    H160121   1.924   4.705  11.608  1.6697  0.1542 -0.8377
12902TIP3    H260122   1.922   4.589  11.512  1.2101 -0.8278  0.3478
12903TIP3   OH260123   0.010   3.296   1.884 -0.0023 -0.1112 -0.0815
12903TIP3    H160124   0.003   3.391   1.895  1.0534 -0.1895  1.3202
12903TIP3    H260125  -0.080   3.264   1.893 -0.5366  0.8638 -1.7375
12904TIP3   OH260126   4.790   5.879  12.779  0.2058 -0.3357  1.0269
12904TIP3    H160127   4.797   5.928  12.861 -0.4944  3.3322 -0.9663
12904TIP3    H260128   4.707   5.907  12.742  0.9856 -1.1125 -1.3892
12905TIP3   OH260129   4.997   1.757  14.283 -0.3501 -0.5398  0.1946
12905TIP3    H160130   5.027   1.728  14.369 -0.6659 -2.2769 -0.2755
12905TIP3    H260131   4.910   1.717  14.273 -0.2718 -0.4358 -0.9829
12906TIP3   OH260132   2.686   0.271   3.776 -0.9927 -0.2610  0.2573
12906TIP3    H160133   2.774   0.265   3.741 -1.5512  0.3623 -1.3137
12906TIP3    H260134   2.697   0.273   3.871  0.6647 -0.2625  0.0681
12907TIP3   OH260135   1.835   0.974  13.480  0.0173 -0.2887 -0.0797
12907TIP3    H160136   1.787   0.919  13.542  1.3095  0.3603  1.5299
12907TIP3    H260137   1.921   0.987  13.520  0.9978 -0.1163 -2.1699
12908TIP3   OH260138   3.373   1.585   4.407 -0.2598  0.1205 -0.3305
12908TIP3    H160139   3.412   1.502   4.381 -0.9995 -0.0006 -1.0845
12908TIP3    H260140   3.436   1.624   4.468  0.6700 -0.4173 -0.9346
12909TIP3   OH260141   6.081   2.092   1.323 -0.0591  0.6093  0.0183
12909TIP3    H160142   6.092   2.156   1.253  0.6787  0.1279 -0.3036
12909TIP3    H260143   6.170   2.073   1.353 -0.4368  1.6710  1.8612
12910TIP3   OH260144   2.473   4.847  11.830  0.1164 -0.0157 -0.5089
12910TIP3    H160145   2.382   4.822  11.844  0.0975  0.4049  0.1781
12910TIP3    H260146   2.485   4.924  11.886  1.8011 -2.0003  1.9773
12911TIP3   OH260147   3.365   6.560   3.908  0.6146 -0.2757  0.3832
12911TIP3    H160148   3.389   6.647   3.941  2.6663 -1.2763  1.6121
12911TIP3    H260149   3.438   6.534   3.853 -0.7797 -0.5315 -1.3896
12912TIP3   OH260150   2.120   1.224  16.016 -0.3686 -0.4888 -0.1874
12912TIP3    H160151   2.062   1.280  15.965 -0.4653 -1.7615 -1.5259
12912TIP3    H260152   2.175   1.284  16.066 -1.2976  0.7585 -0.6561
12913TIP3   OH260153   5.200   5.324   4.104 -0.2605 -0.2231  0.2151
12913TIP3    H160154   5.135   5.255   4.089  0.8996 -1.1025 -0.9141
12913TIP3    H260155   5.214   5.324   4.198  0.8730 -2.6214  0.0810
12914TIP3   OH260156   2.736   1.707  17.042 -0.0209 -0.0527  0.3580
12914TIP3    H160157   2.805   1.660  17.090  0.1012  0.4566  0.6801
12914TIP3    H260158   2.663   1.645  17.038  0.5329 -0.6757 -0.1757
12915TIP3   OH260159   0.377   0.723  13.325  0.1879 -0.0397 -0.0738
12915TIP3    H160160   0.448   0.785  13.333 -1.6694  1.9169  1.9859
12915TIP3    H260161   0.418   0.642  13.295  3.2729  0.9757  1.2796
12916TIP3   OH260162   0.621   2.923  15.852  0.5486  0.9949 -0.5984
12916TIP3    H160163   0.645   2.900  15.942  0.5954 -1.2460 -1.1486
12916TIP3    H260164   0.526   2.935  15.854  0.6007  1.3281 -0.1660
12917TIP3   OH260165   3.051   6.091  16.521 -0.7811 -0.0327  0.4534
12917TIP3    H160166   3.129   6.036  16.534  0.2090  1.5956  1.5449
12917TIP3    H260167   3.034   6.085  16.427 -0.0504 -1.3288  0.3817
12918TIP3   OH260168   4.484   5.686   2.797  0.0325  0.1851  0.3221
12918TIP3    H160169   4.525   5.769   2.821 -0.7027  0.5363  0.3887
12918TIP3    H260170   4.516   5.624   2.862  0.1839  0.5302  0.5787
12919TIP3   OH260171   2.895   2.877  13.667  0.1357 -0.4197 -0.7778
12919TIP3    H160172   2.888   2.830  13.584 -0.9092 -0.9267 -0.4105
12919TIP3    H260173   2.806   2.910  13.684  0.2643 -0.6200  0.3058
12920TIP3   OH260174   3.321   6.067   4.813 -0.2290 -0.2623 -0.0317
12920TIP3    H160175   3.298   6.031   4.898  0.6531 -2.1418 -0.5735
12920TIP3    H260176   3.308   5.995   4.751  1.0244  0.4883 -1.2104
12921TIP3   OH260177   3.435   3.501   1.382 -1.0852 -0.1144 -0.4577
12921TIP3    H160178   3.339   3.496   1.373 -1.3215  0.9839  1.2591
12921TIP3    H260179   3.454   3.452   1.462 -0.4606  1.6936  0.5085
12922TIP3   OH260180   5.356   3.312  17.007  0.9285 -0.1799  0.8821
12922TIP3    H160181   5.353   3.345  16.917 -1.3042  1.5644  1.5346
12922TIP3    H260182   5.320   3.383  17.060  1.1623 -1.6026  3.0250
12923TIP3   OH260183   0.886   3.181  10.607 -0.1081  0.1845 -0.0723
12923TIP3    H160184   0.949   3.168  10.536 -1.0540  0.1357 -0.9125
12923TIP3    H260185   0.932   3.152  10.685  2.0565  3.0758 -0.1911
12924TIP3   OH260186   3.592   2.014   4.852 -0.3363  0.5096 -0.0961
12924TIP3    H160187   3.630   1.926   4.840 -0.0880  0.6867 -0.6282
12924TIP3    H260188   3.664   2.073   4.832 -0.6972  0.8460 -0.3890
12925TIP3   OH260189   3.056   2.697  15.006 -0.3798  0.2766 -0.1619
12925TIP3    H160190   2.987   2.631  15.004 -1.8424  1.8185 -0.6377
12925TIP3    H260191   3.072   2.712  15.100  0.0758 -0.8428 -0.0488
12926TIP3   OH260192   5.170   6.409  11.660  0.5657  0.2433 -0.0208
12926TIP3    H160193   5.203   6.415  11.570  2.4799  0.0661  0.6547
12926TIP3    H260194   5.149   6.500  11.683 -1.9039  0.0586 -1.3367
12927TIP3   OH260195   3.729   0.784  13.319 -0.3030  0.4196 -0.4323
12927TIP3    H160196   3.638   0.798  13.344 -0.1057 -0.1658  0.6661
12927TIP3    H260197   3.732   0.693  13.289  0.4030 -0.3384  1.8706
12928TIP3   OH260198   3.394   2.063   6.008  0.1929  0.3095 -0.0124
12928TIP3    H160199   3.314   2.079   6.058 -0.2549 -1.9249  0.0220
12928TIP3    H260200   3.429   2.151   5.990 -0.8903  1.2314  2.1726
12929TIP3   OH260201   2.136   2.247   6.149 -0.0001  0.2882 -0.7515
12929TIP3    H160202   2.056   2.198   6.132 -0.0279  0.6913 -1.8798
12929TIP3    H260203   2.172   2.209   6.229 -1.0349 -0.2508 -0.5380
12930TIP3   OH260204   0.101   4.167   3.277 -0.0920  0.2393  0.3975
12930TIP3    H160205   0.022   4.149   3.225 -1.2136  0.6753  1.9112
12930TIP3    H260206   0.124   4.258   3.254  0.0015  0.0960 -0.0798
12931TIP3   OH260207   6.536   4.396  16.099  0.4362 -0.4864 -0.2305
12931TIP3    H160208   6.472   4.359  16.038  0.0672 -0.0947 -0.0825
12931TIP3    H260209   6.599   4.441  16.042  1.5077 -2.2719 -0.4848
12932TIP3   OH260210   6.064   1.355  12.981  0.0508 -0.2511 -0.4192
12932TIP3    H160211   6.153   1.378  13.008 -0.7400  0.8658  1.3095
12932TIP3    H260212   6.052   1.264  13.009  0.5501 -0.3028 -0.3802
12933TIP3   OH260213   4.542   6.703  15.482  0.0951  0.2091 -1.0663
12933TIP3    H160214   4.609   6.751  15.433 -0.5744 -0.6748 -2.9216
12933TIP3    H260215   4.476   6.681  15.416 -0.7232 -1.2434  0.2076
12934TIP3   OH260216   6.103   5.813   1.588 -0.1917 -0.5074  0.0975
12934TIP3    H160217   6.008   5.812   1.584 -0.2176  0.3771  0.4665
12934TIP3    H260218   6.128   5.890   1.536  0.3530 -1.2427 -0.7349
12935TIP3   OH260219   1.797   3.982   5.214  0.1653  0.0290  0.0193
12935TIP3    H160220   1.789   4.068   5.255 -1.1669 -1.0613  2.1157
12935TIP3    H260221   1.834   3.926   5.283 -1.1668 -1.5967 -0.5451
12936TIP3   OH260222   0.888   5.816  15.540  0.4268 -0.1199 -0.1183
12936TIP3    H160223   0.943   5.763  15.482 -1.4741 -0.6979 -1.4295
12936TIP3    H260224   0.818   5.757  15.568 -0.6968  1.1788 -0.1236
12937TIP3   OH260225   5.501   4.710  15.391  0.0601 -0.1104 -0.5601
12937TIP3    H160226   5.582   4.667  15.416  0.4106  0.3697 -0.8770
12937TIP3    H260227   5.462   4.738  15.474  0.3808 -0.0420 -0.4331
12938TIP3   OH260228   5.669   0.294   3.583 -0.2159  0.2885  0.2556
12938TIP3    H160229   5.693   0.223   3.524  0.1990  0.8313 -0.2451
12938TIP3    H260230   5.622   0.252   3.655  0.3250 -0.5286  0.1340
12939TIP3   OH260231   0.761   4.112   1.160  0.1601  0.3491 -0.1726
12939TIP3    H160232   0.835   4.158   1.120 -0.0691  1.5248  0.7266
12939TIP3    H260233   0.696   4.104   1.091  0.2614  1.2573 -0.3749
12940TIP3   OH260234   1.865   2.726  13.706 -0.3313  0.6508 -0.5136
12940TIP3    H160235   1.916   2.741  13.626  0.1566 -1.1111 -0.5593
12940TIP3    H260236   1.930   2.704  13.772 -0.8485  0.8031  0.0517
12941TIP3   OH260237   0.865   4.746  13.633  0.4786 -0.2665  0.2446
12941TIP3    H160238   0.833   4.808  13.568 -0.5207  0.8633  1.8005
12941TIP3    H260239   0.834   4.661  13.602  1.2385  0.0542 -1.5029
12942TIP3   OH260240   0.495   1.920  12.033 -0.7598 -0.2997  0.2353
12942TIP3    H160241   0.578   1.891  12.070 -0.7724  1.3862  1.6938
12942TIP3    H260242   0.454   1.971  12.103 -2.1937  0.4351 -1.0908
12943TIP3   OH260243   2.219   4.566  12.603 -0.4213  0.3618  0.2542
12943TIP3    H160244   2.313   4.557  12.588 -0.5608  0.0932 -0.4615
12943TIP3    H260245   2.188   4.476  12.611 -0.6036  0.4549  0.5876
12944TIP3   OH260246   2.079   2.732  13.070  0.2138  0.1078  0.6010
12944TIP3    H160247   2.130   2.785  13.009  1.4637  0.4395  1.9226
12944TIP3    H260248   2.107   2.642  13.052  1.0275  0.2596  1.1002
12945TIP3   OH260249   0.377   3.301   1.339 -0.1519 -0.9537  0.0856
12945TIP3    H160250   0.424   3.378   1.308  0.0711 -0.3911  1.8050
12945TIP3    H260251   0.286   3.315   1.311 -0.0133 -0.3286 -0.0479
12946TIP3   OH260252   4.189   6.172  14.686  0.4793  0.0656  0.2552
12946TIP3    H160253   4.167   6.089  14.644 -0.8563 -0.0675  1.1822
12946TIP3    H260254   4.210   6.148  14.777 -0.8608  0.8531  0.7793
12947TIP3   OH260255   1.819   6.262   4.446 -0.0235 -0.2930  0.4063
12947TIP3    H160256   1.833   6.169   4.428 -0.6816 -0.4524  0.6810
12947TIP3    H260257   1.756   6.291   4.380 -0.7669 -0.3524  1.0720
12948TIP3   OH260258   0.294   6.489  11.659 -0.4333 -0.2369 -0.1025
12948TIP3    H160259   0.204   6.501  11.628 -0.4251 -1.4957 -0.6617
12948TIP3    H260260   0.340   6.568  11.632 -1.5304  0.7321  0.7974
12949TIP3   OH260261   0.968   1.882  15.025 -0.2556  0.3612  0.0045
12949TIP3    H160262   1.012   1.967  15.024  0.5011 -0.0147  0.6978
12949TIP3    H260263   0.958   1.859  14.933  1.3612  0.2767 -0.1681
12950TIP3   OH260264   4.728   3.495  11.408  0.0940 -0.2470  0.2332
12950TIP3    H160265   4.812   3.520  11.448 -0.1904  0.6490  0.2849
12950TIP3    H260266   4.733   3.399  11.400  0.6328 -0.3239  1.3450
12951TIP3   OH260267   3.399   3.655   2.592 -0.2670  0.6262  0.3169
12951TIP3    H160268   3.432   3.604   2.518  0.9245  0.3997  0.9906
12951TIP3    H260269   3.303   3.651   2.584 -0.2033 -1.6435  0.2980
12952TIP3   OH260270   1.607   3.768   3.263 -0.5854  0.2083  0.1835
12952TIP3    H160271   1.626   3.719   3.183 -1.2065 -0.2222  0.2915
12952TIP3    H260272   1.689   3.770   3.311 -0.2567  0.3068 -0.3785
12953TIP3   OH260273   0.914   4.611  17.121  0.2542  0.3478  0.3603
12953TIP3    H160274   0.957   4.564  17.051  1.0424 -0.6451  1.4974
12953TIP3    H260275   0.985   4.645  17.175 -0.3170  1.9916  0.1335
12954TIP3   OH260276   6.253   1.612  14.528 -0.7433 -0.0013  0.8173
12954TIP3    H160277   6.253   1.692  14.475  0.8805 -0.9858 -0.7412
12954TIP3    H260278   6.286   1.639  14.614  1.3865  0.7271 -0.1937
12955TIP3   OH260279   5.136   6.369   3.476  0.5284 -0.2037 -0.5055
12955TIP3    H160280   5.161   6.279   3.456  0.4615 -0.6313  1.2153
12955TIP3    H260281   5.040   6.369   3.472  0.4362 -0.6734  1.2587
12956TIP3   OH260282   3.133   4.159  13.788 -0.4068  0.5318 -0.2246
12956TIP3    H160283   3.117   4.247  13.821  0.1190  0.4538  0.2449
12956TIP3    H260284   3.061   4.106  13.821 -1.4857  1.0756 -1.6665
12957TIP3   OH260285   0.553   6.531   3.469 -0.2770 -0.5550 -0.3165
12957TIP3    H160286   0.601   6.493   3.396 -2.2266 -2.4018 -0.6858
12957TIP3    H260287   0.486   6.586   3.428 -0.1851 -0.1031  0.1328
12958TIP3   OH260288   0.892   4.332  13.141 -0.5380  0.1211  0.4853
12958TIP3    H160289   0.896   4.355  13.048  1.7199  3.6003  1.3627
12958TIP3    H260290   0.949   4.256  13.149 -1.6149 -0.8910 -1.1169
12959TIP3   OH260291   6.631   5.446  15.199  0.1866 -0.0330 -0.5538
12959TIP3    H160292   6.554   5.455  15.255 -0.1286 -0.4138 -0.9219
12959TIP3    H260293   6.607   5.379  15.135  0.6379  0.2035 -0.9807
12960TIP3   OH260294   1.514   0.248   3.897 -0.1245 -0.1530 -0.4618
12960TIP3    H160295   1.435   0.288   3.932 -0.4719  0.9420 -2.4413
12960TIP3    H260296   1.502   0.154   3.912 -0.8227  0.1792  1.1617
12961TIP3   OH260297   1.253   1.585   4.162  0.0150 -0.1828 -0.5656
12961TIP3    H160298   1.239   1.624   4.249  1.4301  0.3384 -0.5623
12961TIP3    H260299   1.251   1.659   4.102 -0.0025 -0.4331 -0.8746
12962TIP3   OH260300   1.281   0.548   3.105 -0.4625  0.5388 -0.0526
12962TIP3    H160301   1.203   0.493   3.102  0.2283 -0.5088  0.7422
12962TIP3    H260302   1.342   0.500   3.162  0.7725  1.3184 -0.6923
12963TIP3   OH260303   3.087   3.799  15.222  0.0654 -0.0046 -0.0814
12963TIP3    H160304   3.079   3.807  15.127  0.2885 -0.7631 -0.1685
12963TIP3    H260305   3.026   3.865  15.257 -1.0540 -0.6609 -0.7440
12964TIP3   OH260306   3.833   4.831  15.355  0.1718  0.4078  0.3624
12964TIP3    H160307   3.762   4.892  15.333  0.2585  0.1324 -0.6744
12964TIP3    H260308   3.856   4.790  15.273  1.7779  0.7339  0.6290
12965TIP3   OH260309   2.805   1.261  13.421 -0.5621  0.0631 -0.2309
12965TIP3    H160310   2.735   1.200  13.396 -0.3196 -0.6821  0.8782
12965TIP3    H260311   2.774   1.302  13.502  0.4474 -0.5730  0.4898
12966TIP3   OH260312   6.151   0.475   0.198 -0.0018  0.1101  0.5467
12966TIP3    H160313   6.103   0.404   0.155 -0.2140  0.6217 -0.0717
12966TIP3    H260314   6.135   0.551   0.142  2.9882 -0.0878 -0.6659
12967TIP3   OH260315   2.402   5.439  11.882  0.1660  0.2531  0.4492
12967TIP3    H160316   2.365   5.499  11.817 -1.7787 -0.1135  1.1845
12967TIP3    H260317   2.475   5.397  11.837 -0.5035  0.7785 -1.1582
12968TIP3   OH260318   3.966   3.370   4.297 -0.0012  0.6238 -0.0081
12968TIP3    H160319   3.933   3.332   4.215 -0.2976  0.8386  0.0115
12968TIP3    H260320   3.954   3.301   4.362  0.0905  0.5084 -0.1132
12969TIP3   OH260321   6.513   5.412  17.111 -0.5345 -0.8077  0.3234
12969TIP3    H160322   6.441   5.458  17.069 -0.9412 -2.1335 -0.4429
12969TIP3    H260323   6.511   5.444  17.202 -2.4024 -1.1915  0.4465
12970TIP3   OH260324   0.908   2.379   2.738 -0.4913 -0.6474 -0.3283
12970TIP3    H160325   0.937   2.469   2.719 -1.1383 -0.1776  0.8420
12970TIP3    H260326   0.900   2.338   2.652  2.5738 -0.4672 -0.7466
12971TIP3   OH260327   2.438   4.839   1.141 -0.0798  0.0027  0.1965
12971TIP3    H160328   2.501   4.857   1.071 -2.5907  2.6317 -1.5029
12971TIP3    H260329   2.356   4.821   1.095 -1.2356 -0.4854  2.4113
12972TIP3   OH260330   3.281   3.537   3.934  0.0570  0.0673 -0.7172
12972TIP3    H160331   3.325   3.566   3.854  1.0957  2.2979  0.6214
12972TIP3    H260332   3.191   3.518   3.906  0.6317 -0.0055 -2.5640
12973TIP3   OH260333   1.549   1.743   1.014 -0.2644  0.1700 -0.4397
12973TIP3    H160334   1.554   1.661   1.064  0.2801 -0.9643 -2.2802
12973TIP3    H260335   1.638   1.776   1.013 -0.3569  0.4283 -0.3023
12974TIP3   OH260336   5.520   3.780  16.265  0.3013  0.0862  0.9156
12974TIP3    H160337   5.506   3.797  16.171  1.7278 -1.0951  0.4804
12974TIP3    H260338   5.610   3.807  16.282 -0.1488  0.8882  2.1060
12975TIP3   OH260339   1.235   0.608  12.255 -0.1836  0.4054 -0.2097
12975TIP3    H160340   1.252   0.588  12.163 -0.1376  0.2816 -0.1747
12975TIP3    H260341   1.139   0.606  12.263 -0.2279  1.3407 -0.4639
12976TIP3   OH260342   6.698   0.914   2.919  0.5061  0.2417 -0.1030
12976TIP3    H160343   6.633   0.910   2.848 -0.3385  1.2928  0.5836
12976TIP3    H260344   6.779   0.941   2.876  0.5152 -1.1457 -0.9836
12977TIP3   OH260345   4.195   6.313  15.509  0.1685  0.3767  0.4014
12977TIP3    H160346   4.195   6.296  15.603 -1.7720  1.7744  0.6787
12977TIP3    H260347   4.103   6.316  15.485  0.6329  0.9675 -1.3693
12978TIP3   OH260348   2.026   0.039   4.240  0.4440 -0.2348  0.5391
12978TIP3    H160349   2.053   0.108   4.300 -2.0017  1.7912 -0.6097
12978TIP3    H260350   1.931   0.034   4.250  0.4004 -2.3793 -0.5372
12979TIP3   OH260351   3.120   1.451   2.146 -0.2566  0.4961  0.3036
12979TIP3    H160352   3.066   1.493   2.213  0.1895 -1.7939  2.1532
12979TIP3    H260353   3.059   1.429   2.076 -1.7192 -1.8035  2.2402
12980TIP3   OH260354   6.098   6.395   1.916 -0.4285  0.2701  0.1969
12980TIP3    H160355   6.093   6.484   1.881  2.8151  0.3081 -0.3497
12980TIP3    H260356   6.008   6.372   1.937 -1.7906  2.3407 -3.0199
12981TIP3   OH260357   1.450   4.731   2.154  0.3878  0.3201  0.4153
12981TIP3    H160358   1.420   4.772   2.072  1.6484 -0.9737 -0.7193
12981TIP3    H260359   1.544   4.753   2.158  0.4122  0.0465  1.3154
12982TIP3   OH260360   3.379   6.478   5.468  0.1246  0.3846 -0.8261
12982TIP3    H160361   3.431   6.497   5.546 -2.3904 -1.0458  1.2485
12982TIP3    H260362   3.387   6.384   5.455 -0.7292  0.3772 -1.3828
12983TIP3   OH260363   2.145   0.196  16.824 -0.5295  0.4594  0.6034
12983TIP3    H160364   2.125   0.270  16.881  1.7108  0.7008  1.1198
12983TIP3    H260365   2.226   0.221  16.779 -1.3092 -0.4769 -1.3631
12984TIP3   OH260366   0.845   4.388  15.219  0.4669  0.2323  0.0394
12984TIP3    H160367   0.894   4.308  15.198  0.0395 -0.4160  1.4618
12984TIP3    H260368   0.814   4.374  15.308 -0.4870  1.5568 -0.0781
12985TIP3   OH260369   2.258   0.191   2.870 -0.4165 -0.1499  0.0060
12985TIP3    H160370   2.323   0.152   2.929 -1.1040  1.6522  1.9889
12985TIP3    H260371   2.182   0.207   2.925 -0.5481  2.9566 -1.0024
12986TIP3   OH260372   4.235   3.595   3.419  0.2372  0.5856  0.0747
12986TIP3    H160373   4.181   3.668   3.448  1.2073  1.4902 -0.3917
12986TIP3    H260374   4.324   3.618   3.445  0.3287 -1.2561  1.5510
12987TIP3   OH260375   5.669   6.486   5.019 -0.4074  0.4628 -0.0622
12987TIP3    H160376   5.624   6.421   4.964 -0.8936  1.4851 -0.8874
12987TIP3    H260377   5.598   6.528   5.068 -0.0670  0.1932  0.6616
12988TIP3   OH260378   1.862   1.764   6.403  0.2798 -0.5347 -0.7785
12988TIP3    H160379   1.771   1.736   6.414  0.4785 -0.9294 -0.1084
12988TIP3    H260380   1.871   1.841   6.458  0.0013  0.2684 -1.8565
12989TIP3   OH260381   5.946   5.740   4.383  0.1793 -0.5596  0.1853
12989TIP3    H160382   5.921   5.700   4.466  1.7095  0.8498  1.3355
12989TIP3    H260383   5.952   5.834   4.402 -1.7932  0.0743 -2.0967
12990TIP3   OH260384   6.316   4.788  12.836 -0.4490  0.3658 -0.1665
12990TIP3    H160385   6.312   4.802  12.741  0.7925  1.5583 -0.0638
12990TIP3    H260386   6.250   4.721  12.853  0.2986 -0.9116 -2.0729
12991TIP3   OH260387   2.050   1.856  13.067 -0.5336  0.2527 -0.3362
12991TIP3    H160388   2.007   1.894  12.991 -1.2722  0.2681  0.0922
12991TIP3    H260389   2.101   1.783  13.031  0.3106  1.1698 -1.0529
12992TIP3   OH260390   3.491   1.254   2.694 -0.2420  0.2069  0.2420
12992TIP3    H160391   3.515   1.299   2.775  0.0906 -0.3762  0.4716
12992TIP3    H260392   3.567   1.199   2.673 -1.1421 -1.2339  0.6803
12993TIP3   OH260393   6.460   1.422  15.404 -0.2336 -0.3099  0.1268
12993TIP3    H160394   6.508   1.467  15.473 -0.6162 -0.1770  0.3132
12993TIP3    H260395   6.373   1.462  15.406  0.3141  1.0251 -1.7104
12994TIP3   OH260396   5.299   1.987   5.351  0.0227 -0.4537 -0.0959
12994TIP3    H160397   5.274   2.063   5.405  2.0381 -0.7535  1.3285
12994TIP3    H260398   5.340   2.026   5.274  0.5356 -0.0754  0.3615
12995TIP3   OH260399   2.666   5.371   1.158 -0.0062 -0.3285  0.7618
12995TIP3    H160400   2.719   5.440   1.199  0.2523  0.6012 -1.1206
12995TIP3    H260401   2.585   5.370   1.209 -0.9174  2.8771 -0.5086
12996TIP3   OH260402   3.586   6.458   5.217 -0.1796  0.1321 -0.3965
12996TIP3    H160403   3.573   6.531   5.156 -0.9072 -0.8451 -1.4524
12996TIP3    H260404   3.498   6.422   5.230  0.0268  0.1260  0.9834
12997TIP3   OH260405   5.508   4.803  13.053  0.0738  0.3348  0.0247
12997TIP3    H160406   5.453   4.812  12.975  1.1710 -1.8997 -1.0484
12997TIP3    H260407   5.588   4.850  13.030 -0.3432  1.3282  0.5711
12998TIP3   OH260408   5.709   4.302  14.991  0.5601 -0.0317 -0.3995
12998TIP3    H160409   5.789   4.354  14.999  0.9674 -0.6639 -0.3512
12998TIP3    H260410   5.668   4.335  14.912 -0.6358  2.3387  1.1390
12999TIP3   OH260411   5.403   1.821  13.843  0.7887 -0.3283 -0.3839
12999TIP3    H160412   5.401   1.845  13.936 -2.1320  2.3830 -1.0696
12999TIP3    H260413   5.331   1.760  13.831 -1.1427  2.0918 -1.5012
13000TIP3   OH260414   4.614   1.062  14.695  0.4581  0.0291  0.0509
13000TIP3    H160415   4.559   0.985  14.705 -0.2205  0.4227 -0.5651
13000TIP3    H260416   4.654   1.074  14.781  0.1485 -0.6894  0.3001
13001TIP3   OH260417   1.410   5.589   4.470  0.4157  0.3440 -0.6341
13001TIP3    H160418   1.421   5.641   4.550  1.5527  2.2117 -1.9587
13001TIP3    H260419   1.484   5.615   4.415 -0.5619 -0.6384 -2.4449
13002TIP3   OH260420   2.051   2.822  13.523 -0.2932  0.2024  0.1859
13002TIP3    H160421   2.068   2.880  13.449 -0.5349 -1.4176 -1.1772
13002TIP3    H260422   2.136   2.784  13.545 -0.1036  1.1951  1.1908
13003TIP3   OH260423   6.596   5.428   5.152 -0.4655 -0.5581  0.7152
13003TIP3    H160424   6.613   5.409   5.060 -3.5316 -0.3590  0.0785
13003TIP3    H260425   6.566   5.519   5.153  0.4117 -0.2708  2.0290
13004TIP3   OH260426   1.890   1.049  13.026  0.2209  0.4177  0.2355
13004TIP3    H160427   1.808   1.094  13.003  0.4364  0.6466 -0.0810
13004TIP3    H260428   1.954   1.082  12.963  1.0668  1.8215  1.8323
13005TIP3   OH260429   3.156   1.025  11.015 -0.3080  0.7736 -0.1361
13005TIP3    H160430   3.201   1.108  11.002  0.8484  0.5221  2.0319
13005TIP3    H260431   3.204   0.963  10.960 -0.9686  1.4472 -1.4986
13006TIP3   OH260432   5.486   2.384  14.130  0.4794 -0.4388 -0.3354
13006TIP3    H160433   5.537   2.346  14.202  0.9375 -1.5844 -1.2563
13006TIP3    H260434   5.451   2.465  14.167 -0.7485 -1.8684  1.7337
13007TIP3   OH260435   4.275   6.158   6.358  0.0086 -0.3192 -0.1116
13007TIP3    H160436   4.217   6.126   6.289  1.9920 -1.6590 -1.2547
13007TIP3    H260437   4.276   6.253   6.348 -3.1160 -0.1505  0.9189
13008TIP3   OH260438   6.430   0.479   4.660  0.0826 -0.0676 -0.0597
13008TIP3    H160439   6.487   0.414   4.619  1.3006  0.3567  0.9490
13008TIP3    H260440   6.458   0.482   4.751 -0.6484  1.1428  0.1370
13009TIP3   OH260441   1.548   0.749   4.270  0.3598 -0.1587  0.2887
13009TIP3    H160442   1.523   0.830   4.227 -0.0433 -0.0935  0.6370
13009TIP3    H260443   1.602   0.703   4.206 -0.8188 -0.3862 -0.5528
13010TIP3   OH260444   0.831   4.122   4.718  0.1579 -0.3243 -0.4742
13010TIP3    H160445   0.780   4.177   4.777  0.9926  0.5551 -0.5484
13010TIP3    H260446   0.910   4.101   4.768  1.2044  1.0240 -1.5345
13011TIP3   OH260447   3.308   4.625  15.124 -0.0301 -0.0768 -0.2702
13011TIP3    H160448   3.289   4.531  15.114 -0.2617 -0.2084  1.2295
13011TIP3    H260449   3.397   4.635  15.089 -0.0740 -0.8212 -0.6135
13012TIP3   OH260450   1.215   1.874  11.732  0.3277  0.1989 -0.3466
13012TIP3    H160451   1.239   1.783  11.751 -0.9121 -0.4542 -1.7428
13012TIP3    H260452   1.121   1.878  11.751 -0.1210  0.5445 -2.4974
13013TIP3   OH260453   0.450   0.562   2.383  0.3551  0.2669 -0.2742
13013TIP3    H160454   0.436   0.479   2.338  1.1607  0.8383 -1.6279
13013TIP3    H260455   0.410   0.550   2.469 -1.1029 -0.8944 -1.0967
13014TIP3   OH260456   5.194   4.468   1.326 -0.1946 -0.1834 -0.1574
13014TIP3    H160457   5.107   4.500   1.350 -0.4693  0.3592 -1.7729
13014TIP3    H260458   5.248   4.547   1.323 -0.6744  0.1125 -3.3138
13015TIP3   OH260459   5.754   5.120   2.905  0.3736  0.1605  0.3837
13015TIP3    H160460   5.763   5.165   2.821 -1.1356  1.7913  1.0626
13015TIP3    H260461   5.687   5.053   2.889  0.3817  0.2004  0.1793
13016TIP3   OH260462   0.621   1.752   1.531 -0.2770 -0.5248  0.5148
13016TIP3    H160463   0.677   1.718   1.461  0.0779  0.8834  0.1091
13016TIP3    H260464   0.674   1.743   1.611  0.0574 -0.3250  0.3144
13017TIP3   OH260465   0.323   5.364  14.905  0.4030  0.3501 -0.0085
13017TIP3    H160466   0.293   5.309  14.832 -1.2799 -1.3260  1.8583
13017TIP3    H260467   0.254   5.429  14.915 -0.0873 -0.3023  0.9677
13018TIP3   OH260468   1.096   4.438   0.578  0.1999 -0.1225 -0.3144
13018TIP3    H160469   1.164   4.386   0.538 -1.7567 -1.6726 -1.7313
13018TIP3    H260470   1.094   4.519   0.527  1.3392  0.1487  0.0773
13019TIP3   OH260471   5.936   6.557  14.125 -0.6552 -0.3110 -0.0824
13019TIP3    H160472   5.877   6.491  14.162  0.6498 -1.1862  0.4306
13019TIP3    H260473   5.999   6.575  14.194 -0.7029  1.1317 -0.3946
13020TIP3   OH260474   0.547   4.251   5.410  0.1083  0.1735 -0.1397
13020TIP3    H160475   0.587   4.170   5.377  1.1009  0.6769 -0.1774
13020TIP3    H260476   0.563   4.249   5.504 -0.6188 -0.0813 -0.0133
13021TIP3   OH260477   3.288   1.266   5.324 -0.7401 -0.0312  0.5070
13021TIP3    H160478   3.337   1.240   5.246  0.3585 -0.8508  1.4554
13021TIP3    H260479   3.216   1.319   5.291  1.5090  2.2846 -0.8502
13022TIP3   OH260480   1.859   6.041   3.037 -0.5931  0.2244  0.3539
13022TIP3    H160481   1.790   6.023   3.101 -1.7568 -0.8144 -1.1561
13022TIP3    H260482   1.875   5.956   2.995  1.9007  0.3560  0.9434
13023TIP3   OH260483   0.459   4.995  12.692 -0.0729 -0.0842  0.3648
13023TIP3    H160484   0.378   5.023  12.649  0.2912 -1.5981 -1.3586
13023TIP3    H260485   0.442   4.905  12.720  0.2547  0.3481  1.9966
13024TIP3   OH260486   0.733   5.231  13.034  0.3146 -0.1147  0.0937
13024TIP3    H160487   0.820   5.196  13.015  0.1001 -0.2982 -0.5538
13024TIP3    H260488   0.701   5.178  13.107  0.2414 -0.8643 -0.4761
13025TIP3   OH260489   3.546   0.067   0.114 -0.4109 -0.2685 -0.0361
13025TIP3    H160490   3.628   0.036   0.075 -0.2227 -1.2721  1.1351
13025TIP3    H260491   3.478   0.017   0.068 -0.2607 -0.5933  0.0901
13026TIP3   OH260492   5.321   1.645   4.762  0.2461 -0.0956 -0.3629
13026TIP3    H160493   5.331   1.587   4.687  0.6007 -0.2179 -0.2200
13026TIP3    H260494   5.294   1.587   4.833 -0.8991  0.1392 -0.5938
13027TIP3   OH260495   6.452   0.341   4.394 -0.5310  0.2297 -0.3082
13027TIP3    H160496   6.442   0.425   4.350  1.2490  0.4671 -0.3011
13027TIP3    H260497   6.426   0.276   4.329  1.1289  0.6260 -1.3993
13028TIP3   OH260498   5.232   1.970  15.406  0.1445 -0.1375  0.6176
13028TIP3    H160499   5.321   1.990  15.378  0.5885 -0.7600  1.5537
13028TIP3    H260500   5.225   1.875  15.396 -0.5932 -0.0313  0.0586
13029TIP3   OH260501   2.809   1.238  15.865 -0.3072 -0.3999  0.5743
13029TIP3    H160502   2.820   1.277  15.778  2.1883  0.5594  1.2682
13029TIP3    H260503   2.754   1.299  15.912  0.5691  0.4593  0.5016
13030TIP3   OH260504   3.313   4.611   2.943 -0.2594 -0.2280  0.4952
13030TIP3    H160505   3.310   4.515   2.932  0.4623 -0.2117  0.1336
13030TIP3    H260506   3.332   4.644   2.855 -1.1108  0.2813  0.5039
13031TIP3   OH260507   3.924   2.130   2.062  0.5884 -0.2758  0.3612
13031TIP3    H160508   3.920   2.224   2.047 -0.1662 -0.4101 -0.2858
13031TIP3    H260509   3.883   2.091   1.985  0.4550 -1.1176  0.8506
13032TIP3   OH260510   6.197   1.446  15.402 -0.2011 -0.7568 -0.6306
13032TIP3    H160511   6.194   1.350  15.396  0.3228 -0.7075 -1.7928
13032TIP3    H260512   6.158   1.476  15.320 -2.0291  0.0448  0.4974
13033TIP3   OH260513   1.710   2.965  17.030 -0.1308 -0.0214 -0.3517
13033TIP3    H160514   1.773   3.026  16.991  0.8449  0.0673  1.3463
13033TIP3    H260515   1.745   2.878  17.009 -0.0382  0.0187 -0.3651
13034TIP3   OH260516   0.014   1.025   5.484 -0.0579  0.0353 -0.3657
13034TIP3    H160517   0.092   0.971   5.474  1.9240  2.4178  1.3778
13034TIP3    H260518  -0.045   0.997   5.414  2.2046 -2.0727 -1.4843
13035TIP3   OH260519   2.673   4.753  13.679 -0.4134 -0.1384  0.0768
13035TIP3    H160520   2.637   4.671  13.644 -2.3706  1.1699 -1.0913
13035TIP3    H260521   2.614   4.776  13.750  0.7076 -0.2285  1.0493
13036TIP3   OH260522   4.648   3.520   5.333  0.4324 -0.4690 -0.2588
13036TIP3    H160523   4.707   3.476   5.272  0.5801  0.7662 -1.0069
13036TIP3    H260524   4.583   3.563   5.278 -1.3019 -1.9425  0.5587
13037TIP3   OH260525   3.813   1.045  13.260  0.0677 -0.2525  0.0543
13037TIP3    H160526   3.783   0.954  13.260  0.1998 -0.2968  0.1591
13037TIP3    H260527   3.788   1.078  13.347  2.3732 -0.9752  1.0460
13038TIP3   OH260528   3.989   1.739  12.754  0.0519 -0.6781 -0.1201
13038TIP3    H160529   4.074   1.720  12.713  0.5440  1.3883 -0.1172
13038TIP3    H260530   3.929   1.748  12.680  0.0998 -0.9003 -0.1883
13039TIP3   OH260531   3.573   0.789  10.480  0.1021 -0.3845  0.4017
13039TIP3    H160532   3.551   0.872  10.523  0.7299  0.5511 -1.0514
13039TIP3    H260533   3.507   0.727  10.513 -0.7215  0.8175  1.0544
13040TIP3   OH260534   1.688   4.519   1.635  1.2588  0.1952  0.4785
13040TIP3    H160535   1.617   4.456   1.627  1.3438  0.1238  0.2988
13040TIP3    H260536   1.751   4.494   1.567  1.1133  0.6999  0.1553
13041TIP3   OH260537   5.092   0.896   2.455 -0.0741 -0.3105 -0.2272
13041TIP3    H160538   5.178   0.937   2.448 -0.4583  0.7403  0.9824
13041TIP3    H260539   5.062   0.888   2.365  0.6800  0.6404 -0.5715
13042TIP3   OH260540   0.166   2.384  15.201 -0.3129  0.4007 -0.0899
13042TIP3    H160541   0.128   2.426  15.278 -1.2155 -0.8417  0.1541
13042TIP3    H260542   0.209   2.456  15.153 -1.3419  1.4986  0.6128
13043TIP3   OH260543   6.533   0.023   2.290 -0.2649  0.2894  0.4934
13043TIP3    H160544   6.548  -0.045   2.357 -0.5832  0.2358  0.5080
13043TIP3    H260545   6.585  -0.006   2.215  0.4094  0.5551  0.8544
13044TIP3   OH260546   4.304   4.620   1.882  0.2000  0.7740  0.0744
13044TIP3    H160547   4.376   4.682   1.874 -0.3364  1.3867 -0.0116
13044TIP3    H260548   4.228   4.674   1.904  0.0464 -0.0121  1.5605
13045TIP3   OH260549   1.879   4.610  12.873 -0.8506 -0.4258 -0.1970
13045TIP3    H160550   1.881   4.518  12.848 -1.2103 -0.6110  0.4610
13045TIP3    H260551   1.806   4.647  12.823  0.9568  0.1242 -2.5537
13046TIP3   OH260552   2.567   2.221   5.540  0.3833  0.1332 -0.6203
13046TIP3    H160553   2.553   2.251   5.629 -1.4273 -3.6774  0.4905
13046TIP3    H260554   2.479   2.217   5.501  0.7798 -1.3361 -1.4461
13047TIP3   OH260555   0.268   1.766   3.534  0.3304  0.2109  0.2839
13047TIP3    H160556   0.309   1.697   3.586  1.0391  0.8394  0.5589
13047TIP3    H260557   0.174   1.752   3.547  0.4981  0.2219  1.5480
13048TIP3   OH260558   3.997   2.406  14.989 -0.6087  0.3924  0.2098
13048TIP3    H160559   4.015   2.445  15.074 -0.8567  1.8356 -0.3778
13048TIP3    H260560   4.009   2.312  15.002  0.9758  0.7427  1.4236
13049TIP3   OH260561   0.162   3.567   1.317  0.1737 -0.0206  0.1046
13049TIP3    H160562   0.140   3.474   1.311  1.0115 -0.2916  1.1054
13049TIP3    H260563   0.190   3.579   1.408  0.3608  1.1443 -0.1056
13050TIP3   OH260564   5.482   4.977  12.075 -0.2654 -0.4258  0.0260
13050TIP3    H160565   5.440   5.061  12.062  0.2811 -0.0383  0.6755
13050TIP3    H260566   5.470   4.958  12.169  0.9634 -0.3133  0.2202
13051TIP3   OH260567   1.333   0.112   2.753 -0.6283  0.1351 -0.2694
13051TIP3    H160568   1.411   0.168   2.757 -1.0006  0.6904 -0.6941
13051TIP3    H260569   1.288   0.140   2.674  0.2997 -2.2692 -1.6867
13052TIP3   OH260570   2.038   1.061  12.700  0.0813 -0.1274  0.8932
13052TIP3    H160571   2.100   1.133  12.687  1.1352 -1.1194  0.4125
13052TIP3    H260572   1.985   1.061  12.620  0.1963 -0.0113  0.8161
13053TIP3   OH260573   1.931   3.816  16.498 -0.2376 -0.2450  0.4308
13053TIP3    H160574   1.857   3.826  16.558 -0.0358 -2.5578  1.1004
13053TIP3    H260575   1.892   3.783  16.417  0.0844 -1.6357  0.8412
13054TIP3   OH260576   6.105   6.465   2.216  0.2855  0.4328 -0.7052
13054TIP3    H160577   6.101   6.560   2.211 -0.7383  0.3616 -1.2892
13054TIP3    H260578   6.047   6.434   2.146  0.4800 -0.6163 -0.4174
13055TIP3   OH260579   6.592   0.240   1.393 -0.5551  1.0182 -0.2848
13055TIP3    H160580   6.552   0.267   1.475 -1.4540 -0.2636 -0.2733
13055TIP3    H260581   6.686   0.241   1.410 -0.7755 -0.4044  1.1632
13056TIP3   OH260582   4.525   2.340   4.040 -0.7151  0.8722  0.0270
13056TIP3    H160583   4.524   2.278   4.112  1.8263  0.1901 -0.4838
13056TIP3    H260584   4.470   2.300   3.973 -1.1327  0.3871  0.6533
13057TIP3   OH260585   1.899   6.301   2.031 -0.0015 -0.3866 -0.0065
13057TIP3    H160586   1.877   6.252   2.110 -1.0303 -1.0148 -0.6613
13057TIP3    H260587   1.865   6.389   2.047 -1.2539 -0.8196 -0.1980
13058TIP3   OH260588   2.461   6.234   3.626 -0.1973  0.0283 -0.2393
13058TIP3    H160589   2.505   6.300   3.679  1.4446 -1.0026 -0.2783
13058TIP3    H260590   2.484   6.256   3.536 -1.4977  0.7068 -0.4226
13059TIP3   OH260591   6.242   2.489  12.531 -0.3458  0.0622  0.5818
13059TIP3    H160592   6.221   2.396  12.545  1.5351 -0.0398  2.8239
13059TIP3    H260593   6.296   2.489  12.452  1.8651 -1.0940  2.0341
13060TIP3   OH260594   2.441   6.110   5.659  0.0107 -0.4200  0.4693
13060TIP3    H160595   2.426   6.091   5.752 -0.9832 -1.9762  0.0143
13060TIP3    H260596   2.357   6.144   5.628  0.4193  0.3396  0.2017
13061TIP3   OH260597   3.053   0.130  11.456  0.7073 -0.4562 -0.4443
13061TIP3    H160598   3.026   0.043  11.427 -0.1786 -0.4220  0.2596
13061TIP3    H260599   3.067   0.179  11.374  1.2440 -1.2587 -0.8375
13062TIP3   OH260600   6.611   0.532   0.035 -0.1103  0.2853  0.9448
13062TIP3    H160601   6.525   0.547  -0.004  0.1469  1.8304  0.9398
13062TIP3    H260602   6.604   0.568   0.124 -0.2143 -1.8143  1.8327
13063TIP3   OH260603   5.528   3.889  13.816  0.2149 -0.7824 -0.6971
13063TIP3    H160604   5.602   3.830  13.830  0.0503 -0.5840  1.1359
13063TIP3    H260605   5.452   3.831  13.807  0.0980 -0.8932  0.8159
13064TIP3   OH260606   0.744   6.169  12.315 -0.7827  0.2665  0.3114
13064TIP3    H160607   0.738   6.078  12.346  0.1313 -0.3213 -1.1934
13064TIP3    H260608   0.655   6.193  12.292 -1.0879 -0.1147  1.0647
13065TIP3   OH260609   4.244   5.108   0.983 -0.2786  0.5516 -0.1906
13065TIP3    H160610   4.149   5.113   0.976 -0.2799  1.7569  0.5697
13065TIP3    H260611   4.268   5.030   0.933 -1.9515 -1.5792  2.2062
13066TIP3   OH260612   1.903   3.742  12.055  0.1463  0.0834  1.2771
13066TIP3    H160613   1.943   3.741  12.142  0.3590 -1.0150  1.1806
13066TIP3    H260614   1.946   3.815  12.010  0.5977  0.1730  1.8365
13067TIP3   OH260615   1.640   0.517  15.310 -0.7124 -0.4395  0.1929
13067TIP3    H160616   1.718   0.571  15.296 -0.6303 -0.0661  2.0023
13067TIP3    H260617   1.570   0.581  15.323 -1.1522 -0.7748 -0.5482
13068TIP3   OH260618   6.536   5.152   1.416  0.3127  0.2906 -0.7021
13068TIP3    H160619   6.444   5.178   1.419 -0.1625 -1.4660  0.8144
13068TIP3    H260620   6.572   5.181   1.500  0.6162 -0.9219 -0.4113
13069TIP3   OH260621   5.142   4.215  11.046  0.6451  0.5257  0.5691
13069TIP3    H160622   5.129   4.209  10.951  0.6091  0.2516  0.5921
13069TIP3    H260623   5.236   4.199  11.058  0.3205 -1.2868  0.7435
13070TIP3   OH260624   1.550   1.809   4.970 -0.8834 -0.1632 -0.3577
13070TIP3    H160625   1.555   1.842   5.060  0.0479 -2.0987  0.3129
13070TIP3    H260626   1.582   1.882   4.916 -0.3713  0.6081  0.9632
13071TIP3   OH260627   4.470   5.097  11.998  0.1931  0.0936  0.0981
13071TIP3    H160628   4.459   5.076  12.091  2.4821 -0.8852  0.1643
13071TIP3    H260629   4.422   5.179  11.987 -1.0994 -0.3728  1.8814
13072TIP3   OH260630   1.370   0.910   4.707  0.4380  0.4769  0.5091
13072TIP3    H160631   1.355   0.910   4.802 -0.8094  2.0815  0.3329
13072TIP3    H260632   1.400   0.821   4.688 -0.9308 -0.3771  2.1611
13073TIP3   OH260633   1.492   1.903  12.657  0.5021  0.3034  0.0351
13073TIP3    H160634   1.450   1.950  12.585 -0.3408  0.1470  0.4180
13073TIP3    H260635   1.518   1.819  12.618  2.9780  1.4830 -0.9284
13074TIP3   OH260636   1.761   2.170   3.327 -0.2219 -0.0635  0.2211
13074TIP3    H160637   1.693   2.112   3.292  0.8896 -0.3646 -1.5155
13074TIP3    H260638   1.751   2.251   3.276 -0.1683  0.3864  0.9220
13075TIP3   OH260639   2.337   2.250   5.315  0.2917  0.0944  0.2988
13075TIP3    H160640   2.359   2.269   5.224 -1.6452  0.7120 -0.0585
13075TIP3    H260641   2.313   2.335   5.353 -0.2050 -0.3551  1.0103
13076TIP3   OH260642   5.272   5.143   1.131 -0.7952 -0.2071  0.0566
13076TIP3    H160643   5.252   5.232   1.157 -2.4398 -0.7613  0.7371
13076TIP3    H260644   5.308   5.151   1.043  2.1987  1.4153  1.3734
13077TIP3   OH260645   6.551   0.774   6.096  0.5409 -0.2500 -0.9086
13077TIP3    H160646   6.561   0.839   6.165  0.7425 -1.3753  0.1489
13077TIP3    H260647   6.631   0.720   6.103 -0.3716 -1.6001 -0.6740
13078TIP3   OH260648   5.420   6.299   1.886  0.1425  0.5709  0.1428
13078TIP3    H160649   5.338   6.293   1.935  1.5677  1.1280  2.6516
13078TIP3    H260650   5.440   6.208   1.861 -0.3945  0.2416  0.9090
13079TIP3   OH260651   4.428   0.269  11.471  0.4843  0.0154  0.0057
13079TIP3    H160652   4.344   0.313  11.461  0.2203 -0.5050 -0.0769
13079TIP3    H260653   4.452   0.242  11.382  0.9677  0.5783 -0.0382
13080TIP3   OH260654   0.844   1.629   2.466  0.3998 -0.3505 -0.3582
13080TIP3    H160655   0.842   1.581   2.383  0.1363 -1.0244  0.0322
13080TIP3    H260656   0.762   1.678   2.468  0.7250  0.2113 -0.8150
13081TIP3   OH260657   5.522   4.365   3.701  0.3017  0.1493 -1.0939
13081TIP3    H160658   5.583   4.438   3.707  0.5219 -0.2239  1.7430
13081TIP3    H260659   5.573   4.295   3.659  1.2161  0.4526 -0.5004
13082TIP3   OH260660   4.782   0.931  13.388  0.0270  0.3314  0.1495
13082TIP3    H160661   4.725   0.856  13.403  0.1415  0.3224  0.5441
13082TIP3    H260662   4.787   0.939  13.293 -1.0452  0.6506  0.1204
13083TIP3   OH260663   3.055   0.900   0.687 -0.1145 -0.3056  0.3730
13083TIP3    H160664   2.960   0.915   0.685  0.2686  1.9697 -1.0617
13083TIP3    H260665   3.084   0.946   0.766  0.1194  0.9814 -0.4565
13084TIP3   OH260666   1.605   5.886   5.320 -0.1034 -0.1083 -0.3128
13084TIP3    H160667   1.604   5.819   5.387  2.0297 -1.0905 -1.2447
13084TIP3    H260668   1.553   5.849   5.248 -2.0150  0.7678  0.5592
13085TIP3   OH260669   5.550   1.680  10.997  0.3370  0.1021 -0.2370
13085TIP3    H160670   5.605   1.641  10.930 -1.6251 -0.0864 -1.7869
13085TIP3    H260671   5.482   1.614  11.014  1.6358 -0.5093  3.0785
13086TIP3   OH260672   0.551   5.994   4.400 -0.1731 -0.1311 -0.3510
13086TIP3    H160673   0.476   6.039   4.438 -0.7593 -0.3958 -1.1819
13086TIP3    H260674   0.527   5.980   4.308  1.1540  0.3493 -0.7812
13087TIP3   OH260675   2.880   4.653  16.398 -0.2710  0.2736  0.3056
13087TIP3    H160676   2.835   4.586  16.449  0.7565 -0.7501 -0.1147
13087TIP3    H260677   2.907   4.719  16.463 -1.1892  0.2410  0.7302
13088TIP3   OH260678   3.060   4.070   1.360  0.1075 -0.4797  0.4115
13088TIP3    H160679   2.997   4.063   1.288 -0.3609  1.0631  0.6442
13088TIP3    H260680   3.139   4.103   1.318 -0.2534  0.6998  0.6152
13089TIP3   OH260681   1.094   6.102   1.669  0.6182  0.1224 -0.0996
13089TIP3    H160682   1.074   6.180   1.720 -0.6325 -0.5786  0.5200
13089TIP3    H260683   1.103   6.134   1.579 -1.5039  0.7770 -0.1128
13090TIP3   OH260684   4.957   1.900   5.330 -0.1986  0.0425  0.1995
13090TIP3    H160685   5.044   1.862   5.346  0.2385  1.1255  0.4653
13090TIP3    H260686   4.949   1.970   5.395 -1.5600 -0.4887  0.6191
13091TIP3   OH260687   4.457   3.359  13.711 -0.6111  0.2660 -0.5301
13091TIP3    H160688   4.452   3.278  13.762 -0.7209  0.6359  0.0506
13091TIP3    H260689   4.550   3.381  13.709 -0.4011 -0.6783 -1.9706
13092TIP3   OH260690   3.429   6.475   1.167 -0.2396 -0.5118 -0.0754
13092TIP3    H160691   3.436   6.441   1.256 -0.2257 -2.1167 -0.6714
13092TIP3    H260692   3.415   6.569   1.178 -1.4546 -0.8806  1.6326
13093TIP3   OH260693   3.206   5.228  14.011 -0.3439  0.1371 -0.3056
13093TIP3    H160694   3.204   5.144  14.057 -0.7151 -0.3232 -1.1485
13093TIP3    H260695   3.150   5.286  14.063  3.0930  1.0780  2.5393
13094TIP3   OH260696   6.584   1.797   5.397 -0.1165  0.1483  0.2321
13094TIP3    H160697   6.605   1.737   5.326 -1.2468 -0.1140  0.1206
13094TIP3    H260698   6.648   1.777   5.465  0.1807 -0.4427 -0.2180
13095TIP3   OH260699   4.833   3.086  13.974 -0.4655  0.0315  0.5678
13095TIP3    H160700   4.803   3.034  13.899 -0.9556  0.5411  0.4069
13095TIP3    H260701   4.910   3.039  14.006  0.1010  0.1301 -0.6282
13096TIP3   OH260702   4.339   2.538  14.107 -0.0328  0.3003  0.3832
13096TIP3    H160703   4.418   2.555  14.056 -1.3387  0.2039 -1.7022
13096TIP3    H260704   4.305   2.626  14.129  0.6024  0.3412  1.2250
13097TIP3   OH260705   4.229   5.094   4.346 -0.1246 -0.2375  0.5179
13097TIP3    H160706   4.281   5.173   4.330 -1.2782  0.3436 -0.3923
13097TIP3    H260707   4.182   5.079   4.264 -0.4563 -1.4700  0.9226
13098TIP3   OH260708   2.711   0.472  10.772 -0.0302  0.2029  1.0580
13098TIP3    H160709   2.730   0.378  10.768 -0.0973  0.2560 -1.6741
13098TIP3    H260710   2.792   0.514  10.743 -1.4335  0.7624 -2.2770
13099TIP3   OH260711   0.932   3.452  13.887 -0.5437  0.2859 -0.0493
13099TIP3    H160712   0.890   3.505  13.819  0.5407 -0.6043 -1.4220
13099TIP3    H260713   0.945   3.366  13.847  0.8551 -0.0031  0.9914
13100TIP3   OH260714   0.275   1.602   2.981 -0.4573 -0.1051  0.3441
13100TIP3    H160715   0.328   1.678   2.958  1.3177 -1.5921 -0.6303
13100TIP3    H260716   0.200   1.606   2.922  0.2390  0.2453 -0.5259
13101TIP3   OH260717   3.562   1.414  16.936  0.0589 -0.4686  0.0717
13101TIP3    H160718   3.531   1.325  16.954 -1.4490 -0.0998 -0.6530
13101TIP3    H260719   3.483   1.463  16.913  0.8192  1.1505  0.7939
13102TIP3   OH260720   0.441   3.656  13.456 -0.4839 -0.8510 -0.3061
13102TIP3    H160721   0.442   3.746  13.489  0.4202 -0.8495 -0.3455
13102TIP3    H260722   0.371   3.613  13.506  0.5974 -0.7518  1.3242
13103TIP3   OH260723   4.830   1.021   4.562 -0.1350 -0.0141 -0.1380
13103TIP3    H160724   4.860   1.081   4.631 -1.8983 -0.3395  0.9619
13103TIP3    H260725   4.785   1.078   4.499  0.4904  0.1433 -0.4453
13104TIP3   OH260726   2.523   6.091  11.299 -0.4391 -0.9032 -0.5098
13104TIP3    H160727   2.455   6.039  11.255 -0.8285 -0.3251 -0.6013
13104TIP3    H260728   2.594   6.029  11.315  0.2474 -0.8607 -3.1045
13105TIP3   OH260729   6.393   5.576  13.560  0.2551  0.1962 -0.0059
13105TIP3    H160730   6.416   5.632  13.633  0.8558 -0.1548  0.0783
13105TIP3    H260731   6.304   5.548  13.578  0.4870 -0.0871  0.7198
13106TIP3   OH260732   2.508   3.995  13.993  0.0279 -0.2980 -0.2951
13106TIP3    H160733   2.582   4.012  14.051  1.0109 -0.4689 -1.4650
13106TIP3    H260734   2.459   3.925  14.036 -0.0652  0.5664  1.0248
13107TIP3   OH260735   0.018   1.590   5.914 -0.2014  0.2309  0.7671
13107TIP3    H160736   0.096   1.632   5.952 -0.1678  0.0275  0.9197
13107TIP3    H260737  -0.028   1.552   5.989 -0.2864  0.0813  0.6393
13108TIP3   OH260738   6.640   1.234   1.983 -0.0861 -0.0467 -0.2729
13108TIP3    H160739   6.628   1.141   1.962 -0.6550  0.1486 -0.8448
13108TIP3    H260740   6.570   1.255   2.044  0.0412  0.0109 -0.1454
13109TIP3   OH260741   5.442   3.061  17.120  0.0984  0.3873  0.4764
13109TIP3    H160742   5.530   3.044  17.086 -0.9690 -1.2094 -1.5692
13109TIP3    H260743   5.413   3.139  17.074 -0.5178 -0.5495 -0.7543
13110TIP3   OH260744   4.766   2.787  16.101 -0.0450  0.4017  0.4241
13110TIP3    H160745   4.771   2.718  16.167 -0.5300 -0.0153  0.0355
13110TIP3    H260746   4.845   2.777  16.049 -1.0031 -1.1021 -0.8215
13111TIP3   OH260747   1.104   6.028  10.670 -0.0988  0.1115  0.0645
13111TIP3    H160748   1.147   5.986  10.595  1.5220 -0.0609  1.0781
13111TIP3    H260749   1.166   6.095  10.699 -1.4452  1.3239  0.2402
13112TIP3   OH260750   4.620   2.213   2.954  0.0520 -0.3668 -0.7663
13112TIP3    H160751   4.700   2.204   3.006 -0.2360  0.8608 -0.0894
13112TIP3    H260752   4.578   2.127   2.960 -0.5617  0.0579  2.0479
13113TIP3   OH260753   4.738   4.938  13.493 -0.1953 -0.0730 -0.4106
13113TIP3    H160754   4.794   4.967  13.565  0.5565 -0.3574 -0.8670
13113TIP3    H260755   4.800   4.905  13.427 -0.8546  0.6342 -1.3871
13114TIP3   OH260756   3.548   4.441  13.948 -0.0956  0.9974 -0.0421
13114TIP3    H160757   3.562   4.462  13.855 -1.1347  3.0494  0.2302
13114TIP3    H260758   3.457   4.409  13.951  0.1697  0.2468  0.1766
13115TIP3   OH260759   6.618   0.713   5.230  0.2573 -0.1981 -0.0185
13115TIP3    H160760   6.578   0.787   5.186  0.7322  0.3451  0.4542
13115TIP3    H260761   6.687   0.683   5.171  1.3694  0.9750  0.6407
13116TIP3   OH260762   4.765   5.268   0.702 -0.3299 -0.0871  0.3583
13116TIP3    H160763   4.719   5.341   0.744  0.1531  0.7255 -0.5116
13116TIP3    H260764   4.820   5.232   0.771  0.7277  1.4661  0.3674
13117TIP3   OH260765   5.236   1.006   1.110  0.0119 -0.1131  0.1781
13117TIP3    H160766   5.330   1.015   1.121 -0.1471  0.8540  0.8468
13117TIP3    H260767   5.220   0.912   1.114  0.5601 -0.1464  3.5170
13118TIP3   OH260768   5.143   6.746   3.424 -0.4059 -0.7601  0.1503
13118TIP3    H160769   5.108   6.773   3.339  0.6165 -1.5956 -0.5474
13118TIP3    H260770   5.076   6.772   3.487  0.0625  2.4532 -0.5849
13119TIP3   OH260771   6.678   1.093  15.119 -0.2194 -0.1331  0.3704
13119TIP3    H160772   6.726   1.019  15.084  0.0475 -0.2496  0.9666
13119TIP3    H260773   6.709   1.101  15.209 -0.7422  0.2807  0.5178
13120TIP3   OH260774   1.461   5.103  15.080 -0.2977 -0.2419 -0.2310
13120TIP3    H160775   1.458   5.008  15.070 -2.0274 -0.2352  0.0132
13120TIP3    H260776   1.413   5.136  15.004  1.2598  0.5002 -0.9180
13121TIP3   OH260777   5.760   1.680   3.005 -0.9428  0.2668 -0.3102
13121TIP3    H160778   5.704   1.714   3.075 -3.7118 -1.8900 -1.3772
13121TIP3    H260779   5.764   1.750   2.940 -2.2616  0.5317 -0.1167
13122TIP3   OH260780   6.314   0.269  13.896 -0.2506  0.2835 -0.2096
13122TIP3    H160781   6.381   0.279  13.963 -0.8719 -0.4958  0.5469
13122TIP3    H260782   6.233   0.253  13.945 -0.6324 -0.7418 -1.1554
13123TIP3   OH260783   4.462   2.995   6.243 -0.0262 -0.1812 -0.3127
13123TIP3    H160784   4.461   2.960   6.332 -0.5363  1.2631  0.2607
13123TIP3    H260785   4.472   2.918   6.187  2.3283 -0.9210  1.0761
13124TIP3   OH260786   2.628   2.730   0.791 -0.4994 -0.8581 -0.0590
13124TIP3    H160787   2.560   2.665   0.805 -0.4110 -1.0950 -0.7202
13124TIP3    H260788   2.642   2.731   0.697 -0.7481  0.3832 -0.0835
13125TIP3   OH260789   2.943   6.738   2.540  0.0032  0.1055 -0.0510
13125TIP3    H160790   2.885   6.806   2.505  0.6060 -0.2923 -1.9217
13125TIP3    H260791   2.891   6.692   2.605 -0.0891  2.9991  2.0094
13126TIP3   OH260792   0.572   2.419   0.181  0.0299 -0.0106  0.3483
13126TIP3    H160793   0.523   2.337   0.173  1.0847 -0.6054 -0.0970
13126TIP3    H260794   0.617   2.411   0.265 -1.1003  0.7974  1.0412
13127TIP3   OH260795   2.970   5.767   3.440  0.3634 -0.6208 -0.0141
13127TIP3    H160796   2.891   5.801   3.398 -0.1071 -0.4313  1.0009
13127TIP3    H260797   2.965   5.673   3.427  0.1680 -0.5742 -0.2884
13128TIP3   OH260798   5.893   5.897  14.370 -0.0995  0.0487  0.3365
13128TIP3    H160799   5.805   5.877  14.403  0.2792  0.4589  1.6154
13128TIP3    H260800   5.952   5.847  14.427  0.5116 -0.0110 -0.3460
13129TIP3   OH260801   2.594   2.846  16.754  0.4102  0.3730 -0.0463
13129TIP3    H160802   2.509   2.830  16.712  0.0655  0.3179  0.6505
13129TIP3    H260803   2.593   2.790  16.832  1.0577  0.4327  0.0060
13130TIP3   OH260804   0.803   5.706   3.699 -0.2325  0.5776 -0.1308
13130TIP3    H160805   0.739   5.719   3.769  0.4866 -0.3200  0.7135
13130TIP3    H260806   0.790   5.614   3.673  0.2522  0.5923 -0.4203
13131TIP3   OH260807   0.649   5.786   1.643 -0.4744 -0.4725  0.3246
13131TIP3    H160808   0.701   5.826   1.712 -1.6839 -0.7509  1.4292
13131TIP3    H260809   0.674   5.832   1.563  1.9562 -1.1039  0.7028
13132TIP3   OH260810   4.722   1.210  12.805 -0.0833  0.8312 -0.9754
13132TIP3    H160811   4.776   1.231  12.882 -0.5133  0.9194 -0.6985
13132TIP3    H260812   4.635   1.194  12.841 -0.5808  2.1615 -1.5737
13133TIP3   OH260813   4.917   0.402  15.972 -0.5578  0.0621 -0.2422
13133TIP3    H160814   4.832   0.446  15.976 -0.9250 -0.7519  1.3494
13133TIP3    H260815   4.943   0.393  16.063  1.2051  0.2153 -0.7170
13134TIP3   OH260816   1.515   4.148  15.403 -0.5352  0.1560  0.1694
13134TIP3    H160817   1.436   4.189  15.368  0.1738 -0.8284 -2.7308
13134TIP3    H260818   1.509   4.160  15.498 -3.6793  0.9097 -0.0883
13135TIP3   OH260819   2.164   0.526  16.127 -0.2465 -0.1912 -0.2391
13135TIP3    H160820   2.208   0.561  16.050 -2.3053  0.9350 -0.9324
13135TIP3    H260821   2.230   0.530  16.196  0.7844  1.3623 -1.2915
13136TIP3   OH260822   4.294   3.034   0.825  0.1479  0.0720 -0.1156
13136TIP3    H160823   4.310   3.118   0.783 -1.7141  0.1729 -0.6774
13136TIP3    H260824   4.231   3.053   0.894 -0.0645 -0.8004 -0.0588
13137TIP3   OH260825   2.641   2.320  13.643  0.6154 -0.2572 -0.2406
13137TIP3    H160826   2.568   2.261  13.622  0.1847 -0.5798  2.0572
13137TIP3    H260827   2.629   2.394  13.584 -1.0042 -0.7741 -0.5937
13138TIP3   OH260828   0.205   0.211   4.485 -0.0775  0.3882  0.5877
13138TIP3    H160829   0.249   0.256   4.557  2.2025 -1.5396  0.4889
13138TIP3    H260830   0.167   0.133   4.526 -0.0179  0.0347 -0.0336
13139TIP3   OH260831   6.263   2.934  16.264  0.2932 -0.3174  0.1323
13139TIP3    H160832   6.256   2.853  16.214 -2.2882 -1.2643  1.8990
13139TIP3    H260833   6.281   2.905  16.353  0.3526  1.1058  0.5862
13140TIP3   OH260834   5.555   2.866  11.853 -0.2118 -0.1322 -0.1510
13140TIP3    H160835   5.581   2.783  11.893 -0.1424 -1.8355 -3.5603
13140TIP3    H260836   5.625   2.927  11.876  1.1990 -1.7833  0.0310
13141TIP3   OH260837   3.458   0.546   3.106  0.2636 -0.3045  0.4513
13141TIP3    H160838   3.512   0.566   3.030 -1.1988  1.7570 -0.0881
13141TIP3    H260839   3.434   0.454   3.095  1.0878 -0.3713 -0.9088
13142TIP3   OH260840   0.136   2.448   2.574 -0.0007  0.2007  0.0760
13142TIP3    H160841   0.056   2.471   2.622 -0.0260 -3.2565  1.8875
13142TIP3    H260842   0.206   2.466   2.636  0.2835 -0.4214 -0.0582
13143TIP3   OH260843   1.698   1.504   1.816 -0.1006  0.2293  0.0412
13143TIP3    H160844   1.659   1.429   1.861  0.1211 -0.3139 -0.6598
13143TIP3    H260845   1.757   1.543   1.880  0.3439 -0.6465  0.1694
13144TIP3   OH260846   0.127   4.511   2.321  0.1021 -0.4157 -0.1952
13144TIP3    H160847   0.036   4.522   2.294 -0.1188 -0.2926  0.5998
13144TIP3    H260848   0.139   4.416   2.328  0.0358 -0.4317 -0.3006
13145TIP3   OH260849   4.594   6.516  13.018  0.3187  0.3853 -0.0878
13145TIP3    H160850   4.606   6.605  13.053 -0.1977  0.3449  0.1980
13145TIP3    H260851   4.639   6.460  13.081  1.6898  0.5476 -0.9080
13146TIP3   OH260852   6.327   3.372   4.390 -0.0285  0.1669 -0.4149
13146TIP3    H160853   6.298   3.356   4.300  1.6433 -1.0349 -0.7530
13146TIP3    H260854   6.327   3.286   4.431  2.7777  0.1674 -0.3568
13147TIP3   OH260855   1.196   2.102   0.101  0.4529 -0.3517  0.2737
13147TIP3    H160856   1.191   2.086   0.007  0.6797 -1.4068  0.4331
13147TIP3    H260857   1.145   2.031   0.140  0.9128 -0.3041  0.9744
13148TIP3   OH260858   5.380   2.183  13.013 -0.1078  0.6119  0.3285
13148TIP3    H160859   5.357   2.124  13.084 -2.2071  0.2864 -0.5737
13148TIP3    H260860   5.455   2.142  12.970 -1.2908 -1.1973 -0.0427
13149TIP3   OH260861   1.140   0.422  16.518  0.0454 -0.1352  0.4885
13149TIP3    H160862   1.189   0.421  16.600  1.7620 -1.5846 -0.5269
13149TIP3    H260863   1.165   0.504  16.476  0.6713 -0.3033  0.5257
13150TIP3   OH260864   2.316   2.257  15.175 -0.0129  0.2930 -0.5273
13150TIP3    H160865   2.251   2.276  15.243  0.7388 -0.9980  0.6051
13150TIP3    H260866   2.380   2.328  15.182 -0.4525  0.6949 -0.5551
13151TIP3   OH260867   4.562   0.606   3.460 -0.0714  0.2421 -0.4368
13151TIP3    H160868   4.596   0.674   3.519 -0.1671 -0.6581  0.6589
13151TIP3    H260869   4.630   0.539   3.459 -0.4208 -0.1096 -0.7303
13152TIP3   OH260870   3.299   6.362   4.935 -0.7326  0.0186  0.2943
13152TIP3    H160871   3.303   6.380   5.029 -0.8666 -0.8724  0.4749
13152TIP3    H260872   3.300   6.266   4.929  2.1086  0.0821 -0.7586
13153TIP3   OH260873   4.836   6.086   4.130 -0.1217 -0.2135 -0.8602
13153TIP3    H160874   4.931   6.082   4.137 -0.2678 -0.6743  1.0313
13153TIP3    H260875   4.812   6.170   4.169 -0.7353 -1.5515  1.7345
13154TIP3   OH260876   5.930   2.191  16.722 -0.0512 -0.5213  0.3940
13154TIP3    H160877   6.011   2.207  16.771 -0.6701 -0.4636  1.3965
13154TIP3    H260878   5.862   2.235  16.773 -0.7477 -0.7351 -0.3515
13155TIP3   OH260879   0.519   1.990  16.434 -0.0562  0.0061  0.0618
13155TIP3    H160880   0.577   2.067  16.433  0.5111 -0.4185 -0.3557
13155TIP3    H260881   0.433   2.025  16.455 -0.2007  1.0291 -2.1075
13156TIP3   OH260882   4.410   6.006   2.175  0.1547 -0.1383 -0.7147
13156TIP3    H160883   4.503   6.030   2.178  0.6950 -2.3055  0.7513
13156TIP3    H260884   4.402   5.951   2.098  0.1790 -0.3247 -0.5841
13157TIP3   OH260885   5.959   5.285  13.299 -0.5378 -0.6191 -0.4403
13157TIP3    H160886   5.943   5.379  13.291  0.7195 -0.5326 -2.0809
13157TIP3    H260887   5.873   5.248  13.318 -0.9936  0.8781  0.5541
13158TIP3   OH260888   0.527   3.987   4.305  0.1632 -0.3506  0.1148
13158TIP3    H160889   0.441   4.029   4.304  1.5427  2.5724 -0.1088
13158TIP3    H260890   0.512   3.901   4.265 -2.6481  0.0723  0.1565
13159TIP3   OH260891   1.132   0.603   6.358 -0.0821  0.2681 -0.4676
13159TIP3    H160892   1.217   0.575   6.394  0.3954  1.8195 -0.3794
13159TIP3    H260893   1.089   0.648   6.430 -0.0002  1.5398 -1.2009
13160TIP3   OH260894   2.361   5.078   2.616 -0.1620 -0.2181 -0.0923
13160TIP3    H160895   2.437   5.020   2.627 -0.2032 -0.3166 -0.3151
13160TIP3    H260896   2.393   5.165   2.642 -0.2258 -0.4217  0.6563
13161TIP3   OH260897   5.423   1.733  16.181 -0.2270  0.2579 -0.0356
13161TIP3    H160898   5.352   1.743  16.118 -0.3947  1.4452  0.3175
13161TIP3    H260899   5.491   1.793  16.150 -0.9171  2.0215  1.7206
13162TIP3   OH260900   3.006   3.883  15.923  0.0207 -0.7369 -0.0394
13162TIP3    H160901   3.021   3.976  15.942 -1.3732 -0.9340  2.1522
13162TIP3    H260902   3.075   3.838  15.973  1.2893 -0.8610 -1.8549
13163TIP3   OH260903   2.236   2.904   3.817  0.1914  0.0038 -0.4001
13163TIP3    H160904   2.159   2.866   3.775 -0.3532  1.0180 -0.3391
13163TIP3    H260905   2.295   2.924   3.745 -0.5569  1.3269 -0.6758
13164TIP3   OH260906   5.063   0.728  11.643 -0.3706 -0.2612 -0.4147
13164TIP3    H160907   5.092   0.701  11.731  0.3383 -0.0362 -0.5826
13164TIP3    H260908   4.967   0.730  11.650 -0.3178 -0.2038  0.3659
13165TIP3   OH260909   5.716   0.485   1.719 -0.1640 -0.3728 -0.3324
13165TIP3    H160910   5.702   0.408   1.664 -2.2255  0.4206 -0.9356
13165TIP3    H260911   5.696   0.455   1.808  0.5706 -0.9353 -0.3515
13166TIP3   OH260912   4.766   5.219  11.244 -0.4664 -0.7799  0.0600
13166TIP3    H160913   4.782   5.313  11.253  0.1567 -0.8691 -0.1269
13166TIP3    H260914   4.683   5.204  11.291  1.0243 -0.6533  2.8735
13167TIP3   OH260915   4.720   0.854   2.679 -0.1348  0.4663 -0.1455
13167TIP3    H160916   4.779   0.779   2.686 -3.0802 -1.9778 -0.6608
13167TIP3    H260917   4.708   0.883   2.770 -0.6743 -1.0466  0.2736
13168TIP3   OH260918   0.317   0.246   2.677  0.4924 -0.0033 -0.0831
13168TIP3    H160919   0.384   0.210   2.734  0.7156  1.9626  0.9122
13168TIP3    H260920   0.234   0.214   2.713  0.7906 -1.5004 -0.6585
13169TIP3   OH260921   2.727   2.715  11.189  0.0319  0.2101 -0.6185
13169TIP3    H160922   2.783   2.765  11.129 -0.4056  1.6473  0.1466
13169TIP3    H260923   2.750   2.624  11.173 -0.5179  0.5067 -3.4708
13170TIP3   OH260924   5.317   1.531   3.853  0.5757  0.1153 -0.2344
13170TIP3    H160925   5.392   1.477   3.830  0.6219 -1.1676  2.6521
13170TIP3    H260926   5.355   1.603   3.904  0.0078  0.2417  0.0136
13171TIP3   OH260927   4.564   1.582   0.816 -0.3451  0.4435 -0.2402
13171TIP3    H160928   4.509   1.506   0.837 -1.1105  0.7352 -1.1766
13171TIP3    H260929   4.503   1.656   0.816  0.5576  1.2326  1.6445
13172TIP3   OH260930   0.600   3.649   2.032 -0.2279  0.1894  0.4180
13172TIP3    H160931   0.508   3.667   2.016 -0.6199 -1.0544  1.2113
13172TIP3    H260932   0.614   3.675   2.123  0.0973 -0.0236  0.4306
13173TIP3   OH260933   3.078   3.363   4.734 -0.3140  0.0869 -0.2370
13173TIP3    H160934   3.128   3.443   4.717  0.5003 -0.0599  1.3800
13173TIP3    H260935   3.031   3.381   4.815 -0.8301 -0.7587 -0.3464
13174TIP3   OH260936   6.155   2.762   0.949  0.2390 -0.1561  0.3283
13174TIP3    H160937   6.223   2.779   1.014  0.1120  1.0841  0.1344
13174TIP3    H260938   6.173   2.672   0.920 -0.1592 -1.0046  2.5953
13175TIP3   OH260939   3.904   4.653   0.584 -0.1498 -0.3953  0.5451
13175TIP3    H160940   3.829   4.615   0.536  0.9167 -0.6027 -0.9947
13175TIP3    H260941   3.905   4.606   0.667 -1.4128 -0.7770  0.3599
13176TIP3   OH260942   3.256   2.185   2.351 -0.3669  0.1027 -0.6927
13176TIP3    H160943   3.343   2.217   2.374 -0.7851 -0.6221  2.1334
13176TIP3    H260944   3.226   2.243   2.282  0.2943  3.6447  1.8690
13177TIP3   OH260945   1.120   0.751  17.047  0.3804  0.2865 -0.6113
13177TIP3    H160946   1.139   0.727  17.138 -2.0520  1.8536  0.3649
13177TIP3    H260947   1.109   0.668  17.002 -0.0300 -0.5012  0.9050
13178TIP3   OH260948   0.688   2.218  14.620 -0.3999 -0.1148  0.1768
13178TIP3    H160949   0.654   2.228  14.709 -0.9046  0.0376 -0.0320
13178TIP3    H260950   0.610   2.206  14.566 -0.2502  1.8505 -0.5253
13179TIP3   OH260951   3.981   4.019  14.697 -0.0184  0.3233  0.1869
13179TIP3    H160952   4.077   4.023  14.701  0.0059  0.8581 -0.7796
13179TIP3    H260953   3.954   4.111  14.688 -0.6123  0.1574  0.2719
13180TIP3   OH260954   4.828   3.113  15.760 -0.1718  0.2552  0.0190
13180TIP3    H160955   4.879   3.115  15.841 -1.7576 -0.2271  1.0488
13180TIP3    H260956   4.737   3.106  15.790 -0.8704  1.4605 -1.7717
13181TIP3   OH260957   3.501   4.191  14.222 -0.0238 -0.1371  0.2116
13181TIP3    H160958   3.442   4.210  14.295  1.2351  2.4006  0.6174
13181TIP3    H260959   3.453   4.221  14.144 -0.5458 -1.0028  0.1932
13182TIP3   OH260960   2.991   3.704  11.492 -0.2998 -0.1732  0.7597
13182TIP3    H160961   3.026   3.793  11.503  0.0125 -0.1226 -0.5745
13182TIP3    H260962   3.068   3.648  11.488 -0.4393 -0.3338  0.1988
13183TIP3   OH260963   5.771   1.623   3.396 -0.2367  0.0133 -0.6759
13183TIP3    H160964   5.853   1.573   3.399  1.7626  3.2398  1.9392
13183TIP3    H260965   5.742   1.627   3.487 -1.1461  2.3231 -1.0469
13184TIP3   OH260966   2.672   6.130  16.148 -0.0375 -0.4949 -0.4885
13184TIP3    H160967   2.766   6.113  16.146 -0.3038 -2.3631  1.0562
13184TIP3    H260968   2.659   6.204  16.088  2.2622 -0.8723 -1.4955
13185TIP3   OH260969   4.797   0.046  11.939 -0.0107  0.3594  0.0598
13185TIP3    H160970   4.814  -0.048  11.947  0.2817  0.4518  0.5158
13185TIP3    H260971   4.705   0.051  11.912 -0.0883 -0.0542  0.2376
13186TIP3   OH260972   3.387   5.806  12.120 -0.6183  0.4319  0.0961
13186TIP3    H160973   3.334   5.886  12.113  2.4096  2.3329 -2.0578
13186TIP3    H260974   3.346   5.745  12.059 -2.5983  0.4958  1.3053
13187TIP3   OH260975   1.087   0.456   1.470 -0.4664 -0.0675  0.2902
13187TIP3    H160976   1.097   0.399   1.393 -2.0623  2.0058 -1.5018
13187TIP3    H260977   1.110   0.543   1.439 -0.9715  0.7801  2.2302
13188TIP3   OH260978   1.352   0.395  10.980 -0.2361  0.1219  0.1437
13188TIP3    H160979   1.371   0.381  10.888 -0.0262 -0.2001  0.2358
13188TIP3    H260980   1.354   0.307  11.019  0.1962  0.3100  0.5538
13189TIP3   OH260981   3.626   1.133   3.957 -0.2754 -0.5649  0.5026
13189TIP3    H160982   3.715   1.160   3.934 -0.8550  0.8189 -0.1943
13189TIP3    H260983   3.595   1.084   3.881  0.2973 -2.0910  1.2279
13190TIP3   OH260984   5.959   0.324  15.136  0.2847 -0.3669 -0.3055
13190TIP3    H160985   5.930   0.278  15.214  1.1291 -1.9607 -0.9175
13190TIP3    H260986   5.909   0.285  15.064 -1.1766  1.7221 -0.4808
13191TIP3   OH260987   2.848   3.998   3.004 -0.3335 -0.1374  0.4299
13191TIP3    H160988   2.790   3.983   2.929 -0.6536  1.8613  0.2457
13191TIP3    H260989   2.788   4.017   3.076  0.0689  1.1030  0.4403
13192TIP3   OH260990   1.430   2.283  13.821  0.4479  0.6714 -0.2196
13192TIP3    H160991   1.346   2.244  13.797 -0.0153  0.8631  1.0720
13192TIP3    H260992   1.408   2.352  13.884  1.5916  0.5028  0.3867
13193TIP3   OH260993   3.356   1.993   1.503  0.3614 -0.2882  0.0430
13193TIP3    H160994   3.392   2.052   1.437 -0.1085  2.3874  2.0565
13193TIP3    H260995   3.405   2.014   1.583  0.5817 -3.0938  0.6982
13194TIP3   OH260996   6.343   2.310   0.748 -0.1063  0.1602 -0.2655
13194TIP3    H160997   6.368   2.252   0.819  2.2536 -1.1009 -2.0350
13194TIP3    H260998   6.289   2.256   0.690 -0.9624  0.8055 -0.0807
13195TIP3   OH260999   6.434   2.720   0.321  0.5759 -0.7606 -0.0217
13195TIP3    H161000   6.384   2.734   0.401  0.9438  0.1660  0.0603
13195TIP3    H261001   6.467   2.631   0.328 -2.0363 -1.8164 -0.6365
13196TIP3   OH261002   5.508   0.716  17.214  0.1609 -0.2829 -0.1279
13196TIP3    H161003   5.535   0.707  17.306 -0.5962  1.5698  0.2942
13196TIP3    H261004   5.590   0.721  17.166  0.5693 -1.4024  0.4359
13197TIP3   OH261005   3.342   2.764   1.987 -0.2736  0.2390 -0.8290
13197TIP3    H161006   3.325   2.702   1.917 -0.5462  0.9869 -1.4364
13197TIP3    H261007   3.429   2.799   1.967  0.7260 -1.3739  0.5977
13198TIP3   OH261008   6.281   4.308   5.050 -0.2552 -0.0712 -0.0880
13198TIP3    H161009   6.370   4.278   5.068 -0.4038 -0.2345  0.3751
13198TIP3    H261010   6.227   4.230   5.058 -0.0998 -0.5485 -3.0491
13199TIP3   OH261011   6.572   6.113   2.615  0.3501 -0.4467 -0.1224
13199TIP3    H161012   6.576   6.198   2.658  0.4304  0.4047 -1.7908
13199TIP3    H261013   6.663   6.092   2.593  0.0216  0.5678 -2.6199
13200TIP3   OH261014   3.284   6.335   6.314  0.2041 -0.3011 -0.1426
13200TIP3    H161015   3.190   6.316   6.313  0.4009 -1.2835 -0.4243
13200TIP3    H261016   3.325   6.254   6.343  0.8715  0.6028  1.4954
13201TIP3   OH261017   4.182   4.241  15.741 -0.6592  0.8820  0.4363
13201TIP3    H161018   4.180   4.296  15.819  0.6009 -0.8080  1.6727
13201TIP3    H261019   4.266   4.261  15.700  0.0302 -0.5053  1.1704
13202TIP3   OH261020   5.443   5.713  15.453  0.3188  0.4790 -0.1129
13202TIP3    H161021   5.427   5.635  15.400 -0.1341  0.6975 -0.3029
13202TIP3    H261022   5.537   5.712  15.469  0.4792  0.4520 -1.0075
13203TIP3   OH261023   1.714   0.357  15.826  1.0587  0.0179  0.0618
13203TIP3    H161024   1.650   0.351  15.755 -0.0346 -1.8279  1.1441
13203TIP3    H261025   1.794   0.318  15.791  0.8866  0.2260 -0.5575
13204TIP3   OH261026   3.955   1.247  11.057  0.1005  0.4312  0.5862
13204TIP3    H161027   3.963   1.342  11.046  0.9339  0.4754  1.5333
13204TIP3    H261028   3.938   1.215  10.969  0.4388  1.4054  0.1520
13205TIP3   OH261029   5.091   1.703  12.355 -0.5989 -0.2390  0.3023
13205TIP3    H161030   5.017   1.658  12.395 -0.9760  1.9852  2.1542
13205TIP3    H261031   5.075   1.796  12.371  1.8189  0.3695 -0.6077
13206TIP3   OH261032   6.248   3.129   2.238 -0.5671 -0.2773 -0.0887
13206TIP3    H161033   6.192   3.114   2.162 -1.7421 -0.3360  0.7675
13206TIP3    H261034   6.208   3.204   2.283  1.0266  0.7695 -0.3737
13207TIP3   OH261035   3.586   0.903  13.661 -0.3838  0.3118  0.2155
13207TIP3    H161036   3.571   0.817  13.699 -1.1955  0.9228  1.3165
13207TIP3    H261037   3.499   0.934  13.636 -0.0067  0.4871 -0.9123
13208TIP3   OH261038   3.574   2.670  14.895 -0.6271  0.8436 -0.2260
13208TIP3    H161039   3.559   2.759  14.863 -2.0140  0.8176  0.2796
13208TIP3    H261040   3.640   2.633  14.837 -2.1414  1.2360 -2.2489
13209TIP3   OH261041   2.288   3.347   4.051  0.5074 -0.9768 -0.5649
13209TIP3    H161042   2.273   3.441   4.059  1.0088 -0.8142 -1.4409
13209TIP3    H261043   2.202   3.311   4.031  0.2893 -0.7177 -0.1002
13210TIP3   OH261044   0.780   3.773   3.140 -0.3079 -0.2200 -0.5118
13210TIP3    H161045   0.688   3.799   3.130 -1.5542 -4.0124  0.1595
13210TIP3    H261046   0.802   3.798   3.230 -0.9376 -0.0838 -0.3936
13211TIP3   OH261047   0.101   4.704   5.848 -0.2539  0.2826  0.2641
13211TIP3    H161048   0.103   4.621   5.801 -3.1692  0.9992 -1.3060
13211TIP3    H261049   0.125   4.682   5.938  3.3965 -1.4618 -1.0560
13212TIP3   OH261050   0.316   0.189  10.363  0.3665 -0.4689  0.5977
13212TIP3    H161051   0.277   0.269  10.328 -0.0237 -2.3040 -3.4537
13212TIP3    H261052   0.410   0.203  10.358  0.3007  0.2446  1.2413
13213TIP3   OH261053   1.805   3.027   4.951 -0.0226  0.0578  0.9046
13213TIP3    H161054   1.779   3.038   5.043  1.9221 -0.4732  1.5238
13213TIP3    H261055   1.892   3.065   4.946 -0.5127  0.9537 -0.9601
13214TIP3   OH261056   0.220   5.530   1.842  0.5983 -0.4420 -0.3270
13214TIP3    H161057   0.220   5.456   1.781  0.1873  0.9813 -2.1112
13214TIP3    H261058   0.310   5.562   1.840  0.9273 -1.2589  0.9253
13215TIP3   OH261059   1.043   4.422  15.487 -0.8241 -0.2636 -0.3740
13215TIP3    H161060   1.035   4.495  15.426  1.3272 -0.5011 -0.9566
13215TIP3    H261061   1.122   4.375  15.460 -0.1989 -0.7748  2.1451
13216TIP3   OH261062   1.835   2.614   0.207 -0.2016 -0.6263 -0.6202
13216TIP3    H161063   1.927   2.611   0.233 -0.3016 -0.6243 -0.2681
13216TIP3    H261064   1.787   2.629   0.289 -0.2572  3.5836 -1.3347
13217TIP3   OH261065   3.139   4.607  14.838  0.1772  0.1092  0.0025
13217TIP3    H161066   3.112   4.598  14.930  2.2774 -0.1246  0.6091
13217TIP3    H261067   3.073   4.558  14.789  0.0765 -1.3359  1.5454
13218TIP3   OH261068   6.087   3.499  13.444  0.0416 -0.4925 -0.6041
13218TIP3    H161069   6.007   3.471  13.490 -0.4182  1.0765 -0.4051
13218TIP3    H261070   6.107   3.426  13.386 -0.5275 -1.6654  0.6159
13219TIP3   OH261071   4.953   1.724  13.974 -0.6792 -0.1933 -0.4520
13219TIP3    H161072   4.990   1.810  13.954  1.1023 -0.6188  0.8479
13219TIP3    H261073   4.987   1.704  14.062 -0.8499 -2.3334 -0.8604
13220TIP3   OH261074   6.298   0.375  14.819 -0.4908  0.0927 -0.4721
13220TIP3    H161075   6.280   0.415  14.904 -0.7742 -2.4216  0.7094
13220TIP3    H261076   6.271   0.441  14.755  0.5366  2.3597  1.3740
13221TIP3   OH261077   4.573   1.503  10.607 -0.0125 -0.2474 -0.3958
13221TIP3    H161078   4.564   1.477  10.516  0.8249  0.5560 -0.7264
13221TIP3    H261079   4.490   1.543  10.630  0.0147  0.1665 -1.0217
13222TIP3   OH261080   6.097   6.251  13.668 -0.2648  0.2893  0.3905
13222TIP3    H161081   6.091   6.225  13.760 -2.5788  1.3031  0.5623
13222TIP3    H261082   6.091   6.169  13.619 -1.1645 -0.0608  1.0784
13223TIP3   OH261083   0.376   3.900  12.584 -0.4094 -0.2890  0.0086
13223TIP3    H161084   0.435   3.972  12.562 -0.0166 -0.1289  1.5007
13223TIP3    H261085   0.335   3.875  12.501  0.5474  0.6788 -0.7580
13224TIP3   OH261086   1.445   0.900   2.242  0.6309  0.2518 -0.0265
13224TIP3    H161087   1.415   0.825   2.190  0.1618 -1.0818  2.1335
13224TIP3    H261088   1.526   0.928   2.199  0.3863 -0.9883 -1.3246
13225TIP3   OH261089   0.689   1.594  14.573 -0.6588  0.2419 -0.3178
13225TIP3    H161090   0.724   1.646  14.500  0.5320  2.9514  2.0927
13225TIP3    H261091   0.763   1.542  14.603 -1.0455 -0.5700 -0.7506
13226TIP3   OH261092   0.110   2.992   3.839 -0.0417 -0.1294  0.6099
13226TIP3    H161093   0.113   3.078   3.881 -3.3101  0.8408 -0.9627
13226TIP3    H261094   0.152   3.005   3.754 -1.3957  0.1784 -0.0211
13227TIP3   OH261095   3.142   5.872   3.229  0.0400 -0.2693  0.1697
13227TIP3    H161096   3.200   5.908   3.161 -2.0781 -0.0696 -1.5981
13227TIP3    H261097   3.101   5.797   3.187 -1.0512 -0.3383  1.3519
13228TIP3   OH261098   3.606   2.030  16.630  0.2796  0.2726 -0.1170
13228TIP3    H161099   3.673   2.027  16.699 -0.3655  1.2064  0.5579
13228TIP3    H261100   3.601   2.123  16.606 -0.3193  0.1105 -0.6129
13229TIP3   OH261101   2.986   0.873  12.128 -0.1191 -0.1741 -0.4279
13229TIP3    H161102   2.957   0.856  12.038 -0.2485  2.3690 -0.8986
13229TIP3    H261103   2.960   0.963  12.145  2.9089  0.4918  0.9785
13230TIP3   OH261104   2.456   6.740   2.658 -0.1483 -0.1301 -0.5675
13230TIP3    H161105   2.494   6.652   2.656  1.3818  0.5207 -0.7340
13230TIP3    H261106   2.514   6.790   2.715 -0.9731  0.7970 -0.5269
13231TIP3   OH261107   2.871   3.185  16.760  0.1945 -0.1767  0.5636
13231TIP3    H161108   2.791   3.137  16.783  0.6877 -0.6440  1.3204
13231TIP3    H261109   2.902   3.221  16.843  0.4062  0.5656  0.1614
13232TIP3   OH261110   2.107   0.382  17.236 -0.1068  0.3584  0.0318
13232TIP3    H161111   2.086   0.361  17.145 -1.7284 -1.0335  0.6901
13232TIP3    H261112   2.172   0.452  17.231 -2.5581  2.5813 -2.1655
13233TIP3   OH261113   3.923   2.196   4.364 -0.2344 -0.1104  0.4633
13233TIP3    H161114   3.906   2.118   4.312  1.5174 -0.5505  0.5317
13233TIP3    H261115   3.855   2.258   4.338  0.3099 -0.5055 -1.9731
13234TIP3   OH261116   6.323   1.770  15.682 -0.1458  0.1615  0.6703
13234TIP3    H161117   6.360   1.783  15.769 -0.3998 -1.1166  0.9792
13234TIP3    H261118   6.241   1.724  15.697 -0.5863  0.6408 -0.2021
13235TIP3   OH261119   3.517   3.769   2.080 -0.7001  0.1244 -0.4553
13235TIP3    H161120   3.570   3.775   2.159 -1.9809  0.2122  0.4121
13235TIP3    H261121   3.575   3.798   2.009  0.6464 -0.5926  0.3570
13236TIP3   OH261122   4.566   4.846  14.047 -0.0300 -0.3514 -0.7008
13236TIP3    H161123   4.472   4.832  14.061 -0.0215  2.0301  2.0425
13236TIP3    H261124   4.571   4.927  13.997  0.5625 -0.9721 -1.6710
13237TIP3   OH261125   3.326   0.013   1.585 -0.1918 -0.1888 -1.0436
13237TIP3    H161126   3.418   0.041   1.586 -0.0602 -0.5791  1.0119
13237TIP3    H261127   3.285   0.066   1.653 -1.5708  0.2143 -2.1785
13238TIP3   OH261128   6.360   2.670  15.679 -0.2968 -0.1025  0.3023
13238TIP3    H161129   6.440   2.620  15.661 -0.1497  0.3992 -0.4925
13238TIP3    H261130   6.333   2.702  15.593 -0.7938  0.5742  0.7074
13239TIP3   OH261131   4.633   5.666  12.605  0.1137 -0.0432  0.2247
13239TIP3    H161132   4.622   5.758  12.627 -3.4677  0.4855 -3.3011
13239TIP3    H261133   4.646   5.666  12.510 -1.8064 -3.2711 -0.0936
13240TIP3   OH261134   5.872   1.267  16.538  0.2080 -0.5542  0.1622
13240TIP3    H161135   5.808   1.281  16.608  1.4603 -0.6457  1.3657
13240TIP3    H261136   5.957   1.285  16.580  0.9953 -0.8384 -1.2811
13241TIP3   OH261137   5.300   5.791  16.365 -0.0612  0.1917  0.3419
13241TIP3    H161138   5.369   5.753  16.419 -0.1311 -0.5337 -0.0836
13241TIP3    H261139   5.219   5.767  16.410 -0.0472  1.0770  0.8629
13242TIP3   OH261140   3.451   4.844  16.988 -0.9896  0.2036 -0.2538
13242TIP3    H161141   3.371   4.809  16.948  0.2328  1.3606 -3.8732
13242TIP3    H261142   3.440   4.939  16.984  0.2896  0.3517 -0.2090
13243TIP3   OH261143   3.912   6.533  14.368 -0.1220 -0.4150 -0.1533
13243TIP3    H161144   3.964   6.523  14.288  0.4059 -0.0206  0.1420
13243TIP3    H261145   3.960   6.483  14.434 -1.5812 -2.3932 -0.5407
13244TIP3   OH261146   2.670   1.007   5.414  0.0721  0.1961  0.2875
13244TIP3    H161147   2.754   0.974   5.384 -0.3796  1.4432 -2.5392
13244TIP3    H261148   2.688   1.095   5.446 -0.1298  0.3797 -0.1047
13245TIP3   OH261149   6.626   0.995   2.363 -0.1347 -0.3371  0.1044
13245TIP3    H161150   6.717   1.000   2.334 -0.7727 -0.3050 -2.0286
13245TIP3    H261151   6.610   1.078   2.408  1.1127 -0.6928  1.2362
13246TIP3   OH261152   6.694   3.491  13.742  1.0619  0.2300 -0.3513
13246TIP3    H161153   6.619   3.518  13.795  2.0777  0.4612  1.0004
13246TIP3    H261154   6.691   3.549  13.665  1.4174  2.0889  1.0059
13247TIP3   OH261155   3.012   0.404  15.711  0.4758  0.3264  0.5665
13247TIP3    H161156   3.004   0.410  15.616 -1.2539  1.4115  0.7342
13247TIP3    H261157   3.071   0.476  15.735 -0.1572  0.9074  0.4088
13248TIP3   OH261158   5.433   2.932  15.730 -0.1782 -0.6772  0.2698
13248TIP3    H161159   5.400   2.998  15.668 -1.8560  0.7259  2.5838
13248TIP3    H261160   5.523   2.959  15.747 -0.3024  0.0327 -0.1533
13249TIP3   OH261161   1.819   0.870   1.641 -0.6564  0.4753  0.1727
13249TIP3    H161162   1.833   0.885   1.734  0.8554  0.3451 -0.0189
13249TIP3    H261163   1.820   0.957   1.602  0.4163  0.4221  0.0650
13250TIP3   OH261164   1.175   1.369   2.658  0.1225 -0.0484  0.6291
13250TIP3    H161165   1.197   1.441   2.717  0.2238  0.8501 -0.5010
13250TIP3    H261166   1.246   1.367   2.594  1.5198 -2.8598  2.1882
13251TIP3   OH261167   6.724   0.797   1.836  0.3679  0.0955  0.0465
13251TIP3    H161168   6.692   0.745   1.762 -1.6366  0.4863  0.6228
13251TIP3    H261169   6.679   0.761   1.912 -0.2495  1.9594  0.5956
13252TIP3   OH261170   4.518   2.699   3.177 -0.1455  0.1594 -0.0657
13252TIP3    H161171   4.518   2.611   3.216  2.5710 -0.6103 -1.6483
13252TIP3    H261172   4.443   2.700   3.119 -0.7556 -0.7833  0.6918
13253TIP3   OH261173   3.916   1.734  12.117 -0.5864 -0.1412 -0.2695
13253TIP3    H161174   3.972   1.698  12.187  0.4429 -0.3313 -1.1840
13253TIP3    H261175   3.965   1.717  12.036 -1.2005  1.1947 -0.9313
13254TIP3   OH261176   6.051   6.000   4.457  0.3445 -0.4200 -0.6173
13254TIP3    H161177   6.143   5.984   4.477  0.2006 -0.3073  0.1481
13254TIP3    H261178   6.051   6.029   4.365  0.9450 -1.6239 -1.0131
13255TIP3   OH261179   2.983   3.099  15.171  0.0440 -0.0909 -0.2499
13255TIP3    H161180   2.966   3.014  15.212  0.1694  0.9259  2.0083
13255TIP3    H261181   3.052   3.137  15.225 -0.6523  1.8128 -0.6775
13256TIP3   OH261182   2.679   6.326  10.668 -0.2877  0.3238 -0.3513
13256TIP3    H161183   2.680   6.313  10.573 -1.4340  0.0415 -0.3337
13256TIP3    H261184   2.652   6.241  10.703  1.1847  0.1049  0.2970
13257TIP3   OH261185   6.639   5.494  12.627 -0.8170  0.1045 -0.4219
13257TIP3    H161186   6.613   5.429  12.692 -2.2052  1.2213  0.1759
13257TIP3    H261187   6.561   5.507  12.574 -0.5461  1.2423 -0.5523
13258TIP3   OH261188   0.301   2.687   4.582 -0.0424 -0.4777  0.0371
13258TIP3    H161189   0.235   2.618   4.590 -0.9939  0.4908  0.6699
13258TIP3    H261190   0.287   2.723   4.495  0.1233 -0.7539 -0.1027
13259TIP3   OH261191   5.209   0.892  15.283 -0.4644 -0.0972 -0.2114
13259TIP3    H161192   5.195   0.883  15.189 -0.6151 -1.4085 -0.0704
13259TIP3    H261193   5.294   0.852  15.299 -1.0621 -1.1632  0.4053
13260TIP3   OH261194   5.422   0.380   0.855 -0.6641 -0.2699  0.0377
13260TIP3    H161195   5.350   0.325   0.824 -1.4690 -0.3162  1.9187
13260TIP3    H261196   5.493   0.318   0.872 -1.0554 -0.5589  0.6645
13261TIP3   OH261197   1.984   0.472   5.935 -0.1853  0.3200  0.6694
13261TIP3    H161198   1.888   0.462   5.931 -0.3336  1.7138  0.4326
13261TIP3    H261199   1.998   0.533   6.007  0.7191 -1.9516  2.4934
13262TIP3   OH261200   4.440   5.971   1.071 -0.3707 -0.1555 -0.3574
13262TIP3    H161201   4.495   5.912   1.019  0.2603 -0.8434  1.0673
13262TIP3    H261202   4.466   5.955   1.162 -1.3551  1.1371  0.1720
13263TIP3   OH261203   4.939   2.191   6.624  0.0082 -0.2535 -0.1031
13263TIP3    H161204   5.000   2.129   6.583  0.4687 -0.0964  0.3475
13263TIP3    H261205   4.908   2.145   6.702  0.5659  0.1982  0.3833
13264TIP3   OH261206   4.624   6.177   2.613  0.6782  0.0018  0.0998
13264TIP3    H161207   4.647   6.220   2.531  0.7829  3.8510  2.0803
13264TIP3    H261208   4.533   6.150   2.600  0.5583  0.9480 -1.1421
13265TIP3   OH261209   1.866   4.596   3.225 -0.2938 -0.1114  0.6123
13265TIP3    H161210   1.818   4.546   3.159 -2.5193  0.0472  2.0460
13265TIP3    H261211   1.901   4.529   3.284 -0.1062 -0.1544  0.4526
13266TIP3   OH261212   0.201   0.167  16.840  0.6499  0.3221  0.4308
13266TIP3    H161213   0.235   0.254  16.820  1.3482 -0.1061 -0.2521
13266TIP3    H261214   0.112   0.167  16.805  1.4473 -0.0180 -1.6493
13267TIP3   OH261215   0.035   0.034  12.655  0.3714  0.1386 -0.0585
13267TIP3    H161216   0.031  -0.032  12.586 -1.2087  0.8082 -0.6305
13267TIP3    H261217  -0.044   0.087  12.642 -1.0641 -0.9819  3.5527
13268TIP3   OH261218   2.701   6.587   6.088  0.8328 -0.1712 -0.2570
13268TIP3    H161219   2.652   6.609   6.167  0.7012 -3.0651  0.5560
13268TIP3    H261220   2.645   6.523   6.042  2.3593 -1.0215 -0.9872
13269TIP3   OH261221   0.481   6.218  16.585 -0.5441  0.6988 -0.4609
13269TIP3    H161222   0.433   6.247  16.662  0.4756  0.7297  0.1740
13269TIP3    H261223   0.573   6.237  16.605 -0.3711  1.7587 -2.1540
13270TIP3   OH261224   1.582   6.697  13.756 -0.3984  0.3392  0.2179
13270TIP3    H161225   1.611   6.607  13.743 -3.4453 -0.9104  1.5878
13270TIP3    H261226   1.625   6.724  13.837 -0.3430 -0.2937  0.4076
13271TIP3   OH261227   2.429   1.921   1.172 -0.6767  0.4865 -0.0413
13271TIP3    H161228   2.383   1.856   1.120  1.5660 -0.6759 -0.5881
13271TIP3    H261229   2.501   1.951   1.117  1.4909 -0.4566  2.1557
13272TIP3   OH261230   4.030   1.553   6.515 -0.5707 -0.4359 -0.1222
13272TIP3    H161231   4.078   1.596   6.585  0.0943 -1.6967  0.2043
13272TIP3    H261232   4.030   1.616   6.443  2.3555 -0.7475 -0.4543
13273TIP3   OH261233   2.445   3.669   4.640  0.3100  0.7612  0.1697
13273TIP3    H161234   2.414   3.756   4.614  0.2279  0.5940 -0.3025
13273TIP3    H261235   2.374   3.632   4.692  0.5243  1.1479  0.7457
13274TIP3   OH261236   6.207   5.288   4.211 -0.2735 -0.3395 -0.1100
13274TIP3    H161237   6.211   5.377   4.177  1.6210 -0.5316 -0.4585
13274TIP3    H261238   6.213   5.298   4.306 -0.1893 -0.0972 -0.1415
13275TIP3   OH261239   5.153   2.532  13.821  0.0894 -0.3907 -0.2867
13275TIP3    H161240   5.203   2.604  13.860  0.2996 -0.4325 -0.4816
13275TIP3    H261241   5.208   2.455  13.835 -0.0240 -0.4735 -0.2974
13276TIP3   OH261242   5.015   0.467   1.310 -0.7111 -0.4237  0.3143
13276TIP3    H161243   5.111   0.465   1.311 -0.6873 -0.6238 -1.4771
13276TIP3    H261244   4.993   0.551   1.270 -1.2817 -0.5488  0.3624
13277TIP3   OH261245   1.971   6.571  11.387  0.3410  0.6071  0.3014
13277TIP3    H161246   2.009   6.492  11.425  0.9015  0.0868 -1.2989
13277TIP3    H261247   1.975   6.635  11.458 -0.7864 -0.9843  1.8539
13278TIP3   OH261248   5.750   1.635   4.651 -0.3759  0.4448  0.5114
13278TIP3    H161249   5.746   1.716   4.601 -0.8929 -0.0826 -0.3318
13278TIP3    H261250   5.702   1.653   4.731 -0.7643  0.8761  0.1854
13279TIP3   OH261251   2.284   5.682   4.232 -0.3876 -0.3971  0.7208
13279TIP3    H161252   2.226   5.670   4.157 -1.8860  1.0896  1.5907
13279TIP3    H261253   2.372   5.677   4.196 -1.0673 -1.2486 -0.8708
13280TIP3   OH261254   5.673   5.732   5.758 -0.6809  0.6448  0.2047
13280TIP3    H161255   5.678   5.755   5.851 -1.3414  2.6403 -0.2451
13280TIP3    H261256   5.592   5.772   5.727 -0.5474 -0.1407 -1.2092
13281TIP3   OH261257   3.525   0.762  15.848 -0.1135  0.8415 -0.9407
13281TIP3    H161258   3.515   0.726  15.759 -2.7133  0.7803 -0.6823
13281TIP3    H261259   3.495   0.852  15.840 -1.5799  0.4657  0.1047
13282TIP3   OH261260   4.181   5.787  14.327 -0.2484  0.8056  0.1665
13282TIP3    H161261   4.131   5.839  14.391 -0.6968 -1.0608  1.3795
13282TIP3    H261262   4.264   5.769  14.371 -0.6934 -0.7786  0.3908
13283TIP3   OH261263   6.384   6.604   5.541 -0.5886  0.2829 -0.6647
13283TIP3    H161264   6.421   6.673   5.596  1.1390 -0.4573 -0.8558
13283TIP3    H261265   6.381   6.527   5.597  1.0419 -0.4381 -1.5171
13284TIP3   OH261266   0.494   1.407   3.710  0.0169 -0.2586 -0.0806
13284TIP3    H161267   0.465   1.485   3.757 -0.5371  0.2145 -1.1630
13284TIP3    H261268   0.476   1.335   3.770 -3.1561  0.0509 -0.5388
13285TIP3   OH261269   6.567   3.174   1.552 -0.5587  0.2050 -0.4359
13285TIP3    H161270   6.588   3.139   1.639  1.2825  0.7269 -0.6362
13285TIP3    H261271   6.519   3.104   1.508  1.5817 -1.4379 -0.2300
13286TIP3   OH261272   0.192   2.335  16.605  0.6851 -0.2855 -0.2170
13286TIP3    H161273   0.278   2.358  16.569  1.2312  0.4214  1.4981
13286TIP3    H261274   0.199   2.354  16.699 -1.3990 -0.0591 -0.0827
13287TIP3   OH261275   0.437   1.233  11.873 -0.0541  0.2602 -0.1401
13287TIP3    H161276   0.502   1.172  11.909 -0.3578  0.5604  0.9571
13287TIP3    H261277   0.363   1.177  11.848 -0.7357  0.2463  1.7831
13288TIP3   OH261278   3.383   0.041   4.017  0.2665 -0.1289  0.4607
13288TIP3    H161279   3.315   0.100   3.986  1.8536  2.1515  1.1867
13288TIP3    H261280   3.362   0.025   4.109  0.8070  0.7340  0.7378
13289TIP3   OH261281   0.758   5.498  14.117  0.0646  0.2425  0.3068
13289TIP3    H161282   0.824   5.521  14.052  1.1624 -0.2052  1.2410
13289TIP3    H261283   0.753   5.402  14.112  0.3178  0.1915  1.0398
13290TIP3   OH261284   0.527   5.939   4.767  0.1037  0.1326 -0.2693
13290TIP3    H161285   0.552   6.008   4.829 -1.6003  2.2353 -1.8379
13290TIP3    H261286   0.586   5.952   4.692  2.6381 -2.8457  1.0979
13291TIP3   OH261287   2.947   3.954  13.937 -0.4427  0.3404 -0.0610
13291TIP3    H161288   2.880   4.021  13.947 -0.9996 -0.2377  0.1601
13291TIP3    H261289   2.937   3.923  13.847  0.0107  0.7565 -0.2572
13292TIP3   OH261290   1.646   5.980  14.590  0.0252 -0.2795  0.0341
13292TIP3    H161291   1.657   5.921  14.515  0.9280  0.3435 -0.3389
13292TIP3    H261292   1.609   6.060  14.552  1.1414  0.2952  0.1274
13293TIP3   OH261293   4.664   5.424   2.638  0.8075  0.5282  0.0395
13293TIP3    H161294   4.600   5.356   2.658  0.6214 -0.3668 -3.2710
13293TIP3    H261295   4.612   5.497   2.606  1.2669  0.8761  0.0776
13294TIP3   OH261296   5.682   4.626   4.897  0.1136 -0.0701  0.0791
13294TIP3    H161297   5.629   4.706   4.902  0.0707 -0.1792  1.6014
13294TIP3    H261298   5.769   4.657   4.871 -0.3060  0.2776 -0.9422
13295TIP3   OH261299   1.408   4.942  15.793 -0.0124 -0.4163 -0.4542
13295TIP3    H161300   1.400   5.012  15.728  3.0286  1.3118  0.9301
13295TIP3    H261301   1.320   4.934  15.830 -0.5560  2.3203 -1.0079
13296TIP3   OH261302   0.036   3.594  14.737 -0.1796 -0.3664  0.4396
13296TIP3    H161303   0.130   3.578  14.738 -0.0885  0.0486 -1.0696
13296TIP3    H261304   0.025   3.679  14.694 -1.1509  0.2796  1.9206
13297TIP3   OH261305   1.317   2.523  16.730  0.4618 -0.3997  0.1021
13297TIP3    H161306   1.348   2.495  16.816  2.3396 -0.1659 -0.4810
13297TIP3    H261307   1.343   2.615  16.724  0.0086 -0.3122 -0.5578
13298TIP3   OH261308   3.839   2.645   3.471  0.1575  0.2142  0.0322
13298TIP3    H161309   3.747   2.666   3.481 -0.2469 -0.8941 -1.0963
13298TIP3    H261310   3.849   2.624   3.378  1.2767 -0.8677  0.3660
13299TIP3   OH261311   4.484   2.092  11.332  0.5290  0.0328  0.6953
13299TIP3    H161312   4.557   2.030  11.325  0.8141  0.3527  0.7897
13299TIP3    H261313   4.513   2.169  11.282 -0.7733 -0.7792 -1.3614
13300TIP3   OH261314   3.070   6.214   5.993  0.3604  0.4472  0.1125
13300TIP3    H161315   3.051   6.304   6.018  0.4101  0.5324 -0.1479
13300TIP3    H261316   2.999   6.162   6.031 -0.1073  0.6960 -0.4070
13301TIP3   OH261317   2.045   4.798   2.196  0.1794  0.0466 -0.6583
13301TIP3    H161318   2.122   4.743   2.181  0.0265 -0.2438 -0.3868
13301TIP3    H261319   2.036   4.800   2.291  1.7336  2.6969 -0.5225
13302TIP3   OH261320   1.817   2.072   2.560 -0.0090  0.0609 -0.1123
13302TIP3    H161321   1.882   2.106   2.621  0.1434  0.5723 -0.5582
13302TIP3    H261322   1.826   1.977   2.565  0.4940  0.1239  0.1283
13303TIP3   OH261323   5.382   2.056  16.092  0.5333  1.2731  0.0948
13303TIP3    H161324   5.456   2.019  16.043 -0.4260  0.1678 -0.5771
13303TIP3    H261325   5.349   2.126  16.036 -0.5182  0.0568 -0.8439
13304TIP3   OH261326   6.448   4.465  14.818  0.3145  0.1479 -0.4183
13304TIP3    H161327   6.532   4.422  14.805  0.9583  1.1585  0.3342
13304TIP3    H261328   6.387   4.415  14.764  1.4189 -0.5009 -1.0873
13305TIP3   OH261329   5.914   2.965   5.165  0.0849  0.0592  0.2542
13305TIP3    H161330   5.973   2.998   5.233 -0.7325 -2.9678  2.5720
13305TIP3    H261331   5.828   2.998   5.189  0.2156  1.3201 -0.9591
13306TIP3   OH261332   1.060   5.894  14.733  0.1870 -0.3427 -0.1868
13306TIP3    H161333   1.120   5.945  14.679 -0.5339  1.9590  1.1084
13306TIP3    H261334   1.099   5.895  14.820 -0.9626 -0.0601  0.3455
13307TIP3   OH261335   3.379   0.988  15.401  0.3093 -0.2297 -0.1233
13307TIP3    H161336   3.353   0.911  15.349 -1.6518 -0.0305  0.5380
13307TIP3    H261337   3.472   0.973  15.420  0.5768 -1.2269 -2.0776
13308TIP3   OH261338   4.215   2.793  12.041 -0.1457 -0.0870 -0.4177
13308TIP3    H161339   4.191   2.831  12.125  3.3969 -0.1139  0.6464
13308TIP3    H261340   4.227   2.868  11.983  1.2542  0.1206  0.1466
13309TIP3   OH261341   5.305   2.529   0.262  0.1983 -0.1117  0.4940
13309TIP3    H161342   5.312   2.522   0.357  1.3040  1.5290  0.5551
13309TIP3    H261343   5.351   2.610   0.240  0.4373 -0.7419 -1.4965
13310TIP3   OH261344   5.380   6.572  14.998 -0.2573  0.4134  0.0263
13310TIP3    H161345   5.308   6.629  15.025 -0.4630 -0.3311  1.0761
13310TIP3    H261346   5.340   6.486  14.986  0.1032  0.4263 -1.3016
13311TIP3   OH261347   0.290   5.270   3.632 -0.2021  0.8095 -0.1801
13311TIP3    H161348   0.296   5.247   3.724  0.5722  1.1994 -0.1209
13311TIP3    H261349   0.332   5.197   3.586  0.4729  1.1529 -0.1296
13312TIP3   OH261350   0.901   1.800   1.483  0.2907 -0.2993 -0.0179
13312TIP3    H161351   0.922   1.707   1.474 -0.7540 -0.6008  0.5727
13312TIP3    H261352   0.935   1.840   1.403  1.1340 -1.1202 -0.0742
13313TIP3   OH261353   5.265   3.382   6.561  0.0880 -0.3414  0.0649
13313TIP3    H161354   5.286   3.473   6.579  0.7243  0.0585 -2.4335
13313TIP3    H261355   5.173   3.382   6.537 -0.2213 -0.5602  1.2096
13314TIP3   OH261356   3.963   5.253  16.765 -0.1092 -0.1447 -0.0789
13314TIP3    H161357   3.964   5.187  16.834 -1.2687  1.0278  1.0727
13314TIP3    H261358   3.878   5.297  16.774  0.8362  1.8334 -0.5103
13315TIP3   OH261359   1.690   3.169   2.722  0.3124 -0.0317 -0.6931
13315TIP3    H161360   1.629   3.243   2.713  0.1473  0.0655  1.1743
13315TIP3    H261361   1.755   3.199   2.785 -0.4342 -1.9328  1.0133
13316TIP3   OH261362   0.947   1.565   5.382  0.0097  0.9028 -0.7879
13316TIP3    H161363   0.905   1.648   5.406 -0.1785  0.8147 -0.8121
13316TIP3    H261364   0.989   1.584   5.298 -1.0988  0.6197 -1.4215
13317TIP3   OH261365   0.664   0.986  12.748  0.1278  0.2380 -0.5693
13317TIP3    H161366   0.672   0.892  12.730 -0.1544  0.3323 -1.2239
13317TIP3    H261367   0.680   0.994  12.842 -0.0774 -0.4973 -0.4642
13318TIP3   OH261368   0.990   6.601   5.646 -0.1164 -0.7301 -0.7289
13318TIP3    H161369   1.079   6.567   5.640  0.1465 -0.2377  0.1726
13318TIP3    H261370   0.951   6.553   5.719 -0.0284  0.2553 -0.0207
13319TIP3   OH261371   4.199   2.261  15.718  0.3173  0.6316  0.4135
13319TIP3    H161372   4.162   2.335  15.766 -1.0796 -0.7484  1.5375
13319TIP3    H261373   4.177   2.278  15.627 -3.3397 -0.1993  1.0554
13320TIP3   OH261374   0.459   2.309  14.894  0.2097  0.4740  0.5071
13320TIP3    H161375   0.483   2.220  14.872 -3.8422 -0.6331  0.1445
13320TIP3    H261376   0.502   2.326  14.978  1.9751 -1.3408 -0.0046
13321TIP3   OH261377   1.328   2.863  14.119 -0.2954 -0.1449 -0.4538
13321TIP3    H161378   1.376   2.784  14.144 -1.4046 -1.2359 -1.7002
13321TIP3    H261379   1.307   2.905  14.202 -1.3003 -2.1315  0.3387
13322TIP3   OH261380   5.586   0.983   2.238 -0.2376 -0.0374 -0.0381
13322TIP3    H161381   5.552   1.022   2.158 -0.1691 -0.1621 -0.1285
13322TIP3    H261382   5.528   1.016   2.307 -1.2612 -1.1480 -0.3370
13323TIP3   OH261383   0.326   6.521  16.726 -0.3409  0.0687  0.3151
13323TIP3    H161384   0.265   6.495  16.794  0.0023 -0.5885  0.3767
13323TIP3    H261385   0.403   6.554  16.773 -0.5552  0.6839  0.2404
13324TIP3   OH261386   5.239   1.220  15.308  0.1777  0.3927 -0.2168
13324TIP3    H161387   5.306   1.166  15.266 -0.0979 -0.2740  0.2047
13324TIP3    H261388   5.208   1.168  15.382 -0.6565  0.7822 -0.2808
13325TIP3   OH261389   3.516   4.304  11.246  0.3999 -0.2859  0.8138
13325TIP3    H161390   3.535   4.283  11.155  0.9122 -0.5069  0.9725
13325TIP3    H261391   3.555   4.390  11.260 -0.0810 -0.0435  0.6978
13326TIP3   OH261392   5.725   6.649   0.782  0.0525  0.0862 -0.3051
13326TIP3    H161393   5.804   6.683   0.824  0.3482 -0.7238 -0.1935
13326TIP3    H261394   5.658   6.655   0.849 -0.3736  2.2336 -0.8805
13327TIP3   OH261395   3.069   0.238  13.459  0.1971 -0.0217  0.4691
13327TIP3    H161396   3.038   0.169  13.399 -0.9523  0.4556  0.5052
13327TIP3    H261397   3.164   0.228  13.459  0.1904 -0.3198 -1.1023
13328TIP3   OH261398   4.403   3.473   4.079  0.1950  0.3653 -0.4198
13328TIP3    H161399   4.491   3.441   4.059  0.1110 -0.6868  0.7883
13328TIP3    H261400   4.350   3.443   4.006  0.6878  0.3046 -0.7595
13329TIP3   OH261401   0.045   2.293   4.931  0.2759 -0.1333 -0.2373
13329TIP3    H161402  -0.017   2.346   4.881  2.1909 -0.1700 -2.7466
13329TIP3    H261403  -0.008   2.256   5.002 -1.6669  3.0208  0.0696
13330TIP3   OH261404   2.398   5.089  16.746 -0.0026 -0.4490 -0.0654
13330TIP3    H161405   2.415   5.167  16.798 -0.9397 -0.1808 -0.1529
13330TIP3    H261406   2.339   5.037  16.800  0.0358 -0.7565 -0.3216
13331TIP3   OH261407   3.590   6.225   0.736  0.2480  0.7095 -0.5436
13331TIP3    H161408   3.640   6.306   0.737  1.2662  0.0919 -0.5998
13331TIP3    H261409   3.549   6.221   0.822  3.5254 -0.7357  1.0403
13332TIP3   OH261410   2.816   0.173  16.063 -0.5203 -0.0070  0.2601
13332TIP3    H161411   2.826   0.156  15.969 -0.6134  0.1975  0.2145
13332TIP3    H261412   2.726   0.205  16.072 -0.3880  0.3380  0.3667
13333TIP3   OH261413   0.700   5.108  11.320 -0.0593  0.2811  0.0103
13333TIP3    H161414   0.751   5.185  11.344 -2.0098  1.2987  1.0803
13333TIP3    H261415   0.763   5.037  11.318  1.7969  1.9017 -1.0213
13334TIP3   OH261416   4.090   3.927   5.250 -0.1581 -0.3730  0.4785
13334TIP3    H161417   4.173   3.959   5.213 -0.5327  0.0470 -0.0031
13334TIP3    H261418   4.077   3.841   5.210  0.7101 -1.0147  1.5598
13335TIP3   OH261419   0.643   5.965  13.215 -0.2250  0.6607  0.3088
13335TIP3    H161420   0.554   5.929  13.212 -0.1467  0.3850  1.0495
13335TIP3    H261421   0.656   5.987  13.307  1.1690 -1.0884  0.5490
13336TIP3   OH261422   3.790   3.303  13.817  0.6404 -0.2355 -0.5324
13336TIP3    H161423   3.796   3.312  13.722  0.7016  0.1379 -0.4965
13336TIP3    H261424   3.835   3.221  13.836 -0.1759 -0.7786 -0.9156
13337TIP3   OH261425   0.186   0.961  10.953  0.0203  0.4066  0.6847
13337TIP3    H161426   0.210   0.935  10.864 -0.9107  0.4577  0.4189
13337TIP3    H261427   0.147   1.048  10.943  1.3006  1.0757  1.3304
13338TIP3   OH261428   0.636   1.030  13.024  0.5690  0.0474  0.2803
13338TIP3    H161429   0.717   0.993  13.058  0.6707 -0.2571 -0.2991
13338TIP3    H261430   0.572   0.959  13.031  0.5275  0.0635  0.0722
13339TIP3   OH261431   2.816   1.904  14.596 -0.0219 -0.6066  0.0577
13339TIP3    H161432   2.845   1.988  14.632  1.4611 -1.0946  0.0387
13339TIP3    H261433   2.826   1.914  14.501 -0.7810 -0.4648 -0.0078
13340TIP3   OH261434   6.398   2.675   4.669  0.0325  0.1635 -1.2622
13340TIP3    H161435   6.452   2.605   4.633  1.0031  1.1683 -1.7691
13340TIP3    H261436   6.428   2.684   4.760  1.1608  1.1443 -1.7227
13341TIP3   OH261437   0.451   1.676   6.332  0.0450  0.2973  0.0359
13341TIP3    H161438   0.428   1.604   6.390  0.1759  0.9184  0.8594
13341TIP3    H261439   0.527   1.644   6.283  0.0712 -0.1421  0.3639
13342TIP3   OH261440   5.353   3.785  12.731 -0.2287 -0.0104  0.7452
13342TIP3    H161441   5.369   3.865  12.781 -0.7621  0.5274  0.0751
13342TIP3    H261442   5.316   3.816  12.648 -0.0560 -0.9302  0.3163
13343TIP3   OH261443   3.312   0.611  11.722  0.0109  0.0840  0.8434
13343TIP3    H161444   3.394   0.580  11.683 -0.9318 -3.0837  1.2108
13343TIP3    H261445   3.327   0.607  11.816 -0.7698 -1.1602  0.9240
13344TIP3   OH261446   4.776   4.361  10.510 -0.3873 -0.3070  0.8850
13344TIP3    H161447   4.862   4.396  10.488 -0.5966  0.9246  1.9980
13344TIP3    H261448   4.790   4.309  10.589 -0.6862  0.0121  1.1521
13345TIP3   OH261449   1.343   2.916  15.675 -0.4106 -0.0518 -0.4481
13345TIP3    H161450   1.267   2.858  15.680 -1.0889  0.7906 -0.8946
13345TIP3    H261451   1.399   2.877  15.609 -1.2250  0.1975 -1.3023
13346TIP3   OH261452   5.364   6.488  10.823 -0.2443  0.3162  0.0142
13346TIP3    H161453   5.384   6.400  10.793 -0.6323 -0.5237  2.1154
13346TIP3    H261454   5.441   6.540  10.799  0.1740 -0.6843 -0.8316
13347TIP3   OH261455   2.264   4.083   2.210  0.1225 -0.1068 -0.2072
13347TIP3    H161456   2.190   4.111   2.157 -0.4961  0.9615  1.2149
13347TIP3    H261457   2.241   4.106   2.299  1.4333 -1.3185  0.4744
13348TIP3   OH261458   2.615   2.340  16.958  0.2466 -0.2631 -0.0827
13348TIP3    H161459   2.697   2.295  16.938  0.0387 -0.6478 -0.0674
13348TIP3    H261460   2.561   2.274  17.000 -1.1540 -0.8426 -2.6685
13349TIP3   OH261461   4.738   3.546   3.444  0.6813  0.0002  0.4465
13349TIP3    H161462   4.649   3.526   3.476  0.2038  0.7561 -0.3922
13349TIP3    H261463   4.778   3.595   3.516  0.6119 -0.8079  1.0487
13350TIP3   OH261464   6.266   1.973  14.984 -0.1349  0.2264  0.0605
13350TIP3    H161465   6.262   2.069  14.982 -2.2232  0.1389 -2.5601
13350TIP3    H261466   6.179   1.946  15.014  0.8943 -0.8504  2.1555
13351TIP3   OH261467   2.052   3.791  13.627 -0.3606 -0.4061 -0.2214
13351TIP3    H161468   2.123   3.748  13.676 -0.8037  1.0325  1.7632
13351TIP3    H261469   2.001   3.718  13.592  1.0313 -1.4799 -0.1059
13352TIP3   OH261470   4.315   1.288   3.560 -0.3006 -0.0658 -0.4193
13352TIP3    H161471   4.258   1.267   3.487  0.9965 -0.9675 -1.2054
13352TIP3    H261472   4.266   1.261   3.638 -1.1986 -0.2030 -1.0268
13353TIP3   OH261473   0.070   5.203  12.806 -0.1831 -0.0083 -0.1413
13353TIP3    H161474   0.161   5.203  12.832  0.0144  0.8835 -0.8232
13353TIP3    H261475   0.064   5.268  12.736 -1.6401  1.0263  0.9046
13354TIP3   OH261476   3.411   3.416  15.642 -0.2428  0.0005  0.0757
13354TIP3    H161477   3.496   3.372  15.646  0.0920  0.5579 -0.6445
13354TIP3    H261478   3.419   3.488  15.705 -0.2151 -0.0146  0.0896
13355TIP3   OH261479   2.398   2.732  11.898  0.3952 -0.7918  0.1188
13355TIP3    H161480   2.307   2.714  11.877  0.3671  0.1396 -0.5944
13355TIP3    H261481   2.438   2.758  11.814  0.9761  0.1409  0.6679
13356TIP3   OH261482   4.744   4.394  15.853 -0.1065  0.1192  0.2601
13356TIP3    H161483   4.818   4.455  15.855  0.3412 -0.4474  1.6539
13356TIP3    H261484   4.666   4.450  15.849  0.3548  0.7309 -0.3181
13357TIP3   OH261485   4.248   3.379   2.987 -0.3291  0.2024  0.3700
13357TIP3    H161486   4.154   3.396   2.996 -0.6664 -0.9480 -0.8193
13357TIP3    H261487   4.283   3.457   2.944 -1.0845 -0.1965 -0.9813
13358TIP3   OH261488   6.487   4.704   5.605 -0.1105  0.4690  0.0554
13358TIP3    H161489   6.543   4.746   5.539 -0.1053  0.5484  0.1107
13358TIP3    H261490   6.540   4.632   5.639  0.2085  0.9510  0.5818
13359TIP3   OH261491   3.263   1.981   1.187 -0.1415 -0.0175 -0.1182
13359TIP3    H161492   3.342   2.035   1.186 -0.6080  0.7072  1.1058
13359TIP3    H261493   3.295   1.893   1.206  0.5849 -0.1449 -1.8095
13360TIP3   OH261494   3.024   0.060  12.653  0.2589 -0.7703  0.2927
13360TIP3    H161495   2.967   0.134  12.670 -0.0302 -1.2844  1.6114
13360TIP3    H261496   3.035   0.017  12.738 -0.6322 -2.9972 -0.6652
13361TIP3   OH261497   6.489   4.335  15.101 -0.1093 -0.8962 -0.6534
13361TIP3    H161498   6.496   4.385  15.183 -1.0977 -0.9202 -0.5380
13361TIP3    H261499   6.527   4.392  15.035  1.4919 -1.2343 -0.0407
13362TIP3   OH261500   3.171   2.286   4.870 -0.2142 -0.5882  0.5567
13362TIP3    H161501   3.191   2.317   4.958 -2.2562  0.7595  0.5759
13362TIP3    H261502   3.244   2.316   4.816  0.5194 -0.5139  1.5794
13363TIP3   OH261503   3.061   2.874   6.194  0.4010 -0.4523  0.7351
13363TIP3    H161504   3.029   2.887   6.283  0.3569 -0.0222  0.6606
13363TIP3    H261505   3.010   2.800   6.161  0.4676 -0.6581  1.0922
13364TIP3   OH261506   1.977   6.463   3.979 -0.4634 -0.1142  0.8584
13364TIP3    H161507   1.953   6.385   3.928  0.0327 -1.6995  2.9576
13364TIP3    H261508   1.907   6.472   4.043 -0.7087  1.4228  0.3797
13365TIP3   OH261509   3.125   1.157  16.099 -0.5275  0.3983 -0.5410
13365TIP3    H161510   3.067   1.145  16.174  0.5690  1.1814  0.4409
13365TIP3    H261511   3.212   1.138  16.132 -0.0726  0.3541 -1.7214
13366TIP3   OH261512   2.876   2.746  12.076 -0.0846  0.0944 -0.2451
13366TIP3    H161513   2.891   2.789  12.160 -0.1774 -0.8656  0.2731
13366TIP3    H261514   2.906   2.656  12.090 -0.9720 -0.3172 -0.9557
13367TIP3   OH261515   0.779   1.557   4.040 -0.2957  0.3482 -0.2345
13367TIP3    H161516   0.722   1.593   3.972 -0.9008 -0.4336 -0.1620
13367TIP3    H261517   0.719   1.529   4.109  0.1604 -0.6456 -0.2293
13368TIP3   OH261518   5.356   1.524  13.273 -0.4010 -0.0947 -0.1352
13368TIP3    H161519   5.392   1.612  13.266 -0.6318  0.0120  0.0048
13368TIP3    H261520   5.414   1.480  13.335  0.9884 -0.7060 -1.8472
13369TIP3   OH261521   6.732   0.738   4.218 -0.8600  0.4064 -0.4909
13369TIP3    H161522   6.656   0.690   4.249  0.8850 -2.1402  0.0300
13369TIP3    H261523   6.767   0.781   4.296 -1.7507  1.5722 -0.7295
13370TIP3   OH261524   5.200   3.444   0.499  0.2703  0.4924  0.3430
13370TIP3    H161525   5.209   3.385   0.425 -1.2345 -1.2819  1.5369
13370TIP3    H261526   5.171   3.527   0.460 -1.5212 -0.7171 -0.9511
13371TIP3   OH261527   4.217   4.500   4.349  0.1029 -0.2306 -0.1867
13371TIP3    H161528   4.162   4.563   4.395 -0.9402 -1.5127  0.3373
13371TIP3    H261529   4.241   4.544   4.267 -0.0933  1.0804  0.4505
13372TIP3   OH261530   6.592   1.809   4.947 -0.8898  0.1489 -0.5898
13372TIP3    H161531   6.552   1.896   4.947 -2.2086 -0.4483 -0.7551
13372TIP3    H261532   6.542   1.759   4.883 -0.1344 -0.7320 -0.5018
13373TIP3   OH261533   2.592   5.955  16.784  0.1731 -0.5262  0.1602
13373TIP3    H161534   2.623   6.040  16.813 -1.5202 -0.0450  0.6649
13373TIP3    H261535   2.619   5.948  16.693  0.8812  0.2731  0.3068
13374TIP3   OH261536   6.525   5.030  15.930 -0.4816 -0.3020 -0.1140
13374TIP3    H161537   6.443   5.072  15.904  0.8555  0.9183 -2.4771
13374TIP3    H261538   6.553   4.982  15.852  1.3986 -0.1533  0.4565
13375TIP3   OH261539   5.117   5.304   0.733 -0.0907  0.0353 -0.3965
13375TIP3    H161540   5.208   5.290   0.759  0.3825 -1.1503 -2.5936
13375TIP3    H261541   5.074   5.337   0.812  2.4561  1.5435  0.4008
13376TIP3   OH261542   1.653   5.439  12.337  0.2824 -0.0859  0.1363
13376TIP3    H161543   1.738   5.461  12.377 -0.4088  0.8754  1.1024
13376TIP3    H261544   1.659   5.473  12.248  1.9543 -2.5064 -0.7273
13377TIP3   OH261545   1.180   1.678   3.416 -0.0074 -0.0265 -0.7757
13377TIP3    H161546   1.172   1.730   3.336  2.2658  1.5724  0.0076
13377TIP3    H261547   1.106   1.706   3.470 -0.8093 -0.1773 -1.7796
13378TIP3   OH261548   4.129   5.789  13.861  0.0493  0.2403 -0.5743
13378TIP3    H161549   4.055   5.761  13.808  0.3530  1.0247 -1.4172
13378TIP3    H261550   4.179   5.709  13.877 -0.2313 -0.0540 -1.1719
13379TIP3   OH261551   0.028   5.368   0.444  0.0240 -0.6603  0.3673
13379TIP3    H161552  -0.066   5.360   0.430 -0.0318 -0.8142  0.8015
13379TIP3    H261553   0.041   5.342   0.535  0.4914 -0.6715  0.3015
13380TIP3   OH261554   5.573   3.684   5.598  0.3307 -0.3041 -0.4564
13380TIP3    H161555   5.544   3.594   5.612 -1.7781  0.3870 -0.2968
13380TIP3    H261556   5.646   3.677   5.537  1.2682 -2.2590  0.8320
13381TIP3   OH261557   0.282   2.891   2.046  0.8092 -0.0128  0.3271
13381TIP3    H161558   0.258   2.981   2.069  1.9926  0.4838 -0.3454
13381TIP3    H261559   0.201   2.841   2.056  0.1602  1.1188  0.7645
13382TIP3   OH261560   0.378   1.464   0.938  0.4753 -0.2764  0.3345
13382TIP3    H161561   0.400   1.469   1.031  1.3186  1.5703  0.0542
13382TIP3    H261562   0.285   1.440   0.936  0.0668  1.1851  1.6758
13383TIP3   OH261563   6.522   0.642  14.979 -0.4239 -0.1566 -0.4130
13383TIP3    H161564   6.437   0.682  14.960 -0.1779  0.6797  0.2164
13383TIP3    H261565   6.514   0.613  15.071  0.8626  2.2485  0.4823
13384TIP3   OH261566   3.687   6.603   3.185  0.1830  0.1544 -0.1838
13384TIP3    H161567   3.782   6.609   3.186  0.1732  0.4806  2.1006
13384TIP3    H261568   3.668   6.518   3.145  1.4110  0.1996 -0.8824
13385TIP3   OH261569   3.953   1.718   5.336 -0.2354 -0.3000  0.8205
13385TIP3    H161570   3.928   1.724   5.428 -0.5273  3.8254  0.5419
13385TIP3    H261571   4.047   1.739   5.335  0.3752 -2.8059  0.3802
13386TIP3   OH261572   1.300   6.452   4.529 -0.0930  0.3276 -0.5469
13386TIP3    H161573   1.394   6.441   4.541 -0.1384  0.1360 -0.3682
13386TIP3    H261574   1.284   6.543   4.554  0.0115  0.2967 -0.3620
13387TIP3   OH261575   1.260   1.018   0.157  0.2500 -0.2530  0.7563
13387TIP3    H161576   1.270   1.085   0.089 -0.9420 -0.1225  0.6948
13387TIP3    H261577   1.273   0.935   0.111  0.2995 -0.1272  0.5424
13388TIP3   OH261578   5.089   1.448  16.099 -0.1605  0.6587  0.1765
13388TIP3    H161579   5.118   1.433  16.009 -0.2545  0.5792  0.1586
13388TIP3    H261580   5.166   1.484  16.143  0.4771 -1.1367  0.5491
13389TIP3   OH261581   5.879   1.602   0.956 -0.8332  0.3624  0.4030
13389TIP3    H161582   5.880   1.578   0.864 -0.8011 -1.0226  0.7366
13389TIP3    H261583   5.966   1.639   0.973 -0.5962 -0.0083  0.0167
13390TIP3   OH261584   1.268   5.547  16.250  0.0503 -0.6163 -0.1379
13390TIP3    H161585   1.223   5.463  16.237 -0.6872 -0.2746  0.1955
13390TIP3    H261586   1.201   5.613  16.233  0.9507 -0.0637 -1.6574
13391TIP3   OH261587   3.347   1.869   4.572  0.0848 -0.6444 -0.1403
13391TIP3    H161588   3.290   1.851   4.497 -0.7832 -1.8407  0.7804
13391TIP3    H261589   3.303   1.940   4.619  0.8811  0.4396 -1.0190
13392TIP3   OH261590   4.374   5.655   3.211  0.1685  0.4700 -0.3361
13392TIP3    H161591   4.374   5.612   3.296 -0.2242  0.9960 -0.0692
13392TIP3    H261592   4.418   5.593   3.153  0.5188  0.1511  0.2686
13393TIP3   OH261593   5.654   2.365   0.157  0.2362  0.1041  0.0372
13393TIP3    H161594   5.623   2.393   0.243  0.8392 -0.2129  0.3636
13393TIP3    H261595   5.575   2.352   0.106 -0.1253  0.3238  0.5352
13394TIP3   OH261596   6.668   5.920   4.476  0.4912 -0.4389  0.3126
13394TIP3    H161597   6.649   6.008   4.507  1.5233  0.0894 -0.4995
13394TIP3    H261598   6.743   5.891   4.529  1.2089 -0.1700 -0.5284
13395TIP3   OH261599   2.475   3.142   1.071 -0.2767 -0.6439  0.5406
13395TIP3    H161600   2.535   3.099   1.009 -0.4130 -0.3681  0.2142
13395TIP3    H261601   2.428   3.070   1.113  0.2820 -0.8620  0.7970
13396TIP3   OH261602   4.753   1.645   4.976 -0.0636  0.1197  0.4056
13396TIP3    H161603   4.774   1.656   5.069 -0.9300 -1.4740  0.8139
13396TIP3    H261604   4.659   1.626   4.975 -0.4430  2.0115 -0.9685
13397TIP3   OH261605   3.212   3.904  13.557  0.0558  0.1038 -0.8830
13397TIP3    H161606   3.248   3.886  13.470  0.5713 -0.3980 -0.5674
13397TIP3    H261607   3.284   3.946  13.604 -0.2926  0.5696 -0.7695
13398TIP3   OH261608   5.492   6.076  12.136  0.2095 -0.4731  0.1485
13398TIP3    H161609   5.510   6.160  12.179 -0.6696  0.6058 -1.5027
13398TIP3    H261610   5.558   6.016  12.170  1.6319  1.2245  0.4490
13399TIP3   OH261611   5.698   1.424   2.896  0.2629 -0.0042  0.1125
13399TIP3    H161612   5.740   1.355   2.948 -1.0977 -0.6935  0.3177
13399TIP3    H261613   5.709   1.503   2.948  0.7833 -0.2862  0.4397
13400TIP3   OH261614   0.528   3.669   1.446  0.0367 -0.0599  0.2448
13400TIP3    H161615   0.621   3.682   1.466  0.5468 -2.6313 -0.3709
13400TIP3    H261616   0.526   3.639   1.355 -1.4904  0.9328 -0.0738
13401TIP3   OH261617   1.538   6.330  13.722  0.6288 -0.6302 -0.1799
13401TIP3    H161618   1.617   6.372  13.687 -1.7171  1.6226 -2.9457
13401TIP3    H261619   1.519   6.379  13.802  0.7523  0.2717 -0.7009
13402TIP3   OH261620   6.299   2.671  10.512  0.1859  0.0197  1.0171
13402TIP3    H161621   6.318   2.613  10.438  0.4150  0.5519  0.6606
13402TIP3    H261622   6.208   2.651  10.535 -0.4523  1.0804 -0.5139
13403TIP3   OH261623   3.852   2.868   2.847  0.5783  0.7750  0.1764
13403TIP3    H161624   3.913   2.794   2.841 -1.3646 -0.7481 -1.5132
13403TIP3    H261625   3.907   2.945   2.840  2.1840 -0.5769 -3.0709
13404TIP3   OH261626   3.195   3.285   2.329 -0.0284  0.1039  0.2002
13404TIP3    H161627   3.218   3.265   2.238  0.0419 -0.0396  0.2504
13404TIP3    H261628   3.239   3.219   2.381  1.5832  1.3690  0.4860
13405TIP3   OH261629   2.049   6.463   1.830  0.9043  0.4660  0.0834
13405TIP3    H161630   1.984   6.527   1.804 -0.1202 -0.8112 -0.5505
13405TIP3    H261631   2.007   6.412   1.899  1.1457 -0.4607 -0.4324
13406TIP3   OH261632   4.683   2.138  15.155 -0.3545  0.2773 -0.2733
13406TIP3    H161633   4.757   2.077  15.151 -0.2784  0.4279 -1.1767
13406TIP3    H261634   4.664   2.146  15.249  0.0804 -0.5928 -0.1057
13407TIP3   OH261635   2.619   3.488  11.376  0.4641  0.1743  0.0231
13407TIP3    H161636   2.537   3.437  11.379  1.2904 -1.1373  0.6921
13407TIP3    H261637   2.628   3.511  11.284 -1.0463  0.9784  0.0523
13408TIP3   OH261638   1.531   4.530   0.445 -0.1679  0.4004  0.3845
13408TIP3    H161639   1.451   4.478   0.439  0.2836 -0.5935  2.7578
13408TIP3    H261640   1.602   4.466   0.446  0.4461  1.0863  2.2590
13409TIP3   OH261641   0.421   0.623  12.762  0.2052  0.3417 -0.3193
13409TIP3    H161642   0.368   0.620  12.842 -3.2008  0.4044 -2.4428
13409TIP3    H261643   0.452   0.713  12.758  0.4157  0.3401  0.9252
13410TIP3   OH261644   3.775   4.773   4.876 -0.3414 -1.1444  0.3219
13410TIP3    H161645   3.794   4.766   4.970 -0.3987 -1.7132  0.2979
13410TIP3    H261646   3.685   4.742   4.867 -1.1357  1.1101  0.3700
13411TIP3   OH261647   4.986   0.570   5.984  0.4980  0.2730  0.5542
13411TIP3    H161648   4.907   0.529   6.019  0.6283 -0.3338  0.1517
13411TIP3    H261649   4.962   0.662   5.974 -0.9187 -0.2624 -1.5937
13412TIP3   OH261650   5.234   6.093   3.424  0.2151  0.0577 -0.1880
13412TIP3    H161651   5.298   6.111   3.356 -0.0788 -0.6034 -0.6377
13412TIP3    H261652   5.176   6.027   3.387  0.8919 -1.3728  1.2225
13413TIP3   OH261653   5.092   1.506  11.514 -0.2098 -0.3099  0.6924
13413TIP3    H161654   5.173   1.499  11.464 -0.9146 -0.8754 -0.4025
13413TIP3    H261655   5.108   1.578  11.576  0.5636  0.6586 -0.6010
13414TIP3   OH261656   4.338   6.623  12.689 -0.0484  0.2722 -0.7062
13414TIP3    H161657   4.255   6.667  12.706 -0.8724 -1.6948  0.5019
13414TIP3    H261658   4.361   6.648  12.600 -1.1674  2.0487 -0.5148
13415TIP3   OH261659   3.907   4.250   1.182 -0.6765 -0.1613 -0.7328
13415TIP3    H161660   3.892   4.168   1.134  1.8817 -0.8803 -0.4051
13415TIP3    H261661   3.980   4.292   1.136 -0.3818  0.7513  0.5294
13416TIP3   OH261662   0.273   3.337  15.330  0.0106  0.5322  0.3418
13416TIP3    H161663   0.210   3.399  15.367 -2.3221 -0.3794 -1.9120
13416TIP3    H261664   0.269   3.352  15.236 -0.9000 -3.1985 -0.2977
13417TIP3   OH261665   1.307   2.640   2.132 -0.1572  0.8698 -0.1253
13417TIP3    H161666   1.351   2.635   2.047 -0.0105  0.9539 -0.0533
13417TIP3    H261667   1.362   2.698   2.185 -0.0956  0.5848  0.1220
13418TIP3   OH261668   6.053   1.201   0.515  0.5453  0.5355  0.0115
13418TIP3    H161669   5.996   1.264   0.471 -1.8292 -1.5110  0.0942
13418TIP3    H261670   6.023   1.200   0.606  1.7960  0.6380  0.4364
13419TIP3   OH261671   3.774   4.451  15.884 -0.4068  0.4063  0.5939
13419TIP3    H161672   3.741   4.518  15.823 -0.5054  0.9607  1.2524
13419TIP3    H261673   3.841   4.496  15.935  2.5328 -1.1103 -1.7573
13420TIP3   OH261674   0.431   2.996   6.558  0.8173 -0.3251 -0.5970
13420TIP3    H161675   0.340   3.025   6.562 -0.2971 -3.8145  0.5953
13420TIP3    H261676   0.455   3.005   6.466 -1.0759 -0.4273 -1.1214
13421TIP3   OH261677   6.344   2.343   1.512  0.2760 -0.2883 -0.0225
13421TIP3    H161678   6.308   2.423   1.548 -1.0592 -1.2605  0.8397
13421TIP3    H261679   6.307   2.273   1.566  1.6767 -1.4626 -0.5474
13422TIP3   OH261680   3.677   0.765  12.964  0.8173  0.1095  0.5589
13422TIP3    H161681   3.654   0.777  12.872  0.0373  0.5529  0.8025
13422TIP3    H261682   3.659   0.850  13.004  1.4954  0.0218  1.0519
13423TIP3   OH261683   4.097   4.006  14.359  0.1444  0.0909  0.3889
13423TIP3    H161684   4.047   4.088  14.365  0.0678  0.0427  0.4043
13423TIP3    H261685   4.189   4.034  14.362  0.1314  0.2466 -0.5776
13424TIP3   OH261686   6.115   2.290   3.830 -0.7837  0.3289  0.4869
13424TIP3    H161687   6.204   2.282   3.866 -1.3196  0.9118  1.9793
13424TIP3    H261688   6.070   2.211   3.862 -0.7632 -0.0411 -0.3954
13425TIP3   OH261689   4.013   3.258  12.424  0.2411  0.4518 -0.1421
13425TIP3    H161690   4.039   3.344  12.392  0.7712  0.5405  0.5246
13425TIP3    H261691   3.918   3.256  12.414  0.0993  1.5343  0.8682
13426TIP3   OH261692   5.167   4.447  11.536  0.1484  0.3050 -0.0927
13426TIP3    H161693   5.200   4.410  11.454 -1.1352  0.6953 -0.8026
13426TIP3    H261694   5.110   4.519  11.509 -1.7456 -0.7049  1.0278
13427TIP3   OH261695   2.395   0.268  15.527 -0.0980  0.4322 -0.3897
13427TIP3    H161696   2.430   0.188  15.488 -1.5693  0.0433 -0.9241
13427TIP3    H261697   2.443   0.277  15.610 -0.5852 -1.5038  0.1273
13428TIP3   OH261698   6.537   5.736   2.278  0.4115 -0.0088 -0.4389
13428TIP3    H161699   6.543   5.665   2.342 -2.5164 -0.5080 -0.6665
13428TIP3    H261700   6.515   5.813   2.329 -0.0409 -0.0185 -0.6168
13429TIP3   OH261701   1.706   0.565   2.698 -0.1120 -0.4719  0.4528
13429TIP3    H161702   1.731   0.579   2.607 -0.2057  0.0043  0.5009
13429TIP3    H261703   1.616   0.595   2.703  0.0686  0.0014  0.8309
13430TIP3   OH261704   0.884   1.762  15.764  0.4150  0.5969  0.3053
13430TIP3    H161705   0.970   1.733  15.734  0.3722  0.0109  0.7518
13430TIP3    H261706   0.894   1.774  15.858 -0.5954 -1.6815  0.7492
13431TIP3   OH261707   2.961   4.668  13.299  0.5117 -0.4242  0.2441
13431TIP3    H161708   2.940   4.707  13.384  1.8104  0.8937 -0.0095
13431TIP3    H261709   2.906   4.715  13.237  0.6408 -0.3619  0.1770
13432TIP3   OH261710   4.291   5.105   0.222  0.2908 -0.3479 -0.7066
13432TIP3    H161711   4.223   5.144   0.167  0.5089 -1.4100 -1.7477
13432TIP3    H261712   4.254   5.021   0.251  1.1561 -0.9439 -1.2931
13433TIP3   OH261713   4.066   0.929   4.603 -0.3479 -0.4270 -0.2190
13433TIP3    H161714   4.040   0.942   4.511  2.2859 -0.3865 -0.9976
13433TIP3    H261715   4.039   1.010   4.647 -0.4051  0.1234 -1.2471
13434TIP3   OH261716   0.799   0.721   0.202  0.4366 -0.0854 -0.2507
13434TIP3    H161717   0.775   0.641   0.155  0.0305 -0.2983  0.3190
13434TIP3    H261718   0.793   0.790   0.136 -2.1148 -0.0672 -0.0266
13435TIP3   OH261719   5.105   1.999   2.242  0.1787  0.4346  0.1679
13435TIP3    H161720   5.134   1.939   2.310  1.7830  0.2712 -0.6283
13435TIP3    H261721   5.045   2.059   2.287 -1.2920 -1.6067  1.0035
13436TIP3   OH261722   3.940   2.401  15.833 -0.4815  0.2106  0.1950
13436TIP3    H161723   3.915   2.309  15.825 -0.8029  0.2595  0.6096
13436TIP3    H261724   3.868   2.448  15.789 -0.2568  0.2568 -0.1249
13437TIP3   OH261725   6.084   3.252  15.767  0.3088 -0.5131  0.0443
13437TIP3    H161726   6.069   3.346  15.757  0.1546 -0.3352  1.7564
13437TIP3    H261727   6.061   3.234  15.858  0.5808 -2.1694 -0.1999
13438TIP3   OH261728   5.903   2.816   3.627 -0.7958 -0.1065  0.0016
13438TIP3    H161729   5.846   2.857   3.692 -0.4095  0.0914  0.2171
13438TIP3    H261730   5.897   2.873   3.550  0.2579  0.7296  0.5242
13439TIP3   OH261731   0.262   3.152   3.139 -0.3708 -0.1391 -0.1533
13439TIP3    H161732   0.269   3.209   3.216  0.8723  0.2217 -0.5337
13439TIP3    H261733   0.287   3.066   3.172  0.5303  0.0877 -0.2377
13440TIP3   OH261734   6.249   4.039   0.433  0.3335  0.0224  0.6832
13440TIP3    H161735   6.269   4.113   0.376  0.7607 -1.5211 -1.2271
13440TIP3    H261736   6.176   4.069   0.487 -0.5333  1.3102 -1.1416
13441TIP3   OH261737   2.757   5.534   3.936  0.4982 -0.3071  0.5115
13441TIP3    H161738   2.833   5.478   3.921  0.7770  0.3497 -0.5702
13441TIP3    H261739   2.785   5.621   3.908 -0.5928 -0.0207  0.2824
13442TIP3   OH261740   2.009   3.151  16.294  0.7533 -0.4818 -0.3326
13442TIP3    H161741   2.014   3.204  16.373 -1.5363 -0.9459  0.1572
13442TIP3    H261742   1.986   3.063  16.325 -0.2127 -0.6620 -1.5278
13443TIP3   OH261743   3.992   2.937   5.820 -0.0889 -0.0017 -0.4404
13443TIP3    H161744   4.059   2.910   5.882  1.4305  1.3063 -1.4617
13443TIP3    H261745   3.962   3.022   5.851 -3.2868 -1.7306  1.5329
13444TIP3   OH261746   4.093   3.641  15.090 -0.4551 -0.1088 -0.0294
13444TIP3    H161747   4.167   3.683  15.046 -0.9486  0.7202 -0.0941
13444TIP3    H261748   4.055   3.584  15.024  0.6328 -1.1739  0.2674
13445TIP3   OH261749   1.405   1.460   5.658 -0.0250  0.1226  0.4944
13445TIP3    H161750   1.487   1.421   5.689  0.9386  2.2084  0.6564
13445TIP3    H261751   1.342   1.440   5.727  0.5665 -0.6837  0.8231
13446TIP3   OH261752   6.000   4.468  13.693 -0.1540  0.0604  0.2990
13446TIP3    H161753   5.951   4.434  13.619 -0.4556 -0.1609  0.6024
13446TIP3    H261754   6.010   4.394  13.752 -1.4310  0.6660  1.2965
13447TIP3   OH261755   1.541   2.060   4.814 -0.1735  0.4995  0.1038
13447TIP3    H161756   1.466   2.021   4.769  0.4949  0.4888 -1.0326
13447TIP3    H261757   1.508   2.082   4.901 -1.1994 -0.4676 -0.0296
13448TIP3   OH261758   0.633   4.082   5.019  0.1366 -0.0140  0.2520
13448TIP3    H161759   0.710   4.112   4.970  0.6016 -2.2299 -0.4142
13448TIP3    H261760   0.669   4.053   5.103  0.0550 -1.2341 -0.1364
13449TIP3   OH261761   2.973   5.139   3.148  0.4414 -0.4600 -0.5481
13449TIP3    H161762   2.965   5.234   3.141  0.3649 -0.4232  0.0301
13449TIP3    H261763   3.035   5.115   3.079  0.3720 -0.0061 -0.7689
13450TIP3   OH261764   2.325   3.965  14.438  0.1955  0.2687  0.0820
13450TIP3    H161765   2.357   3.968  14.528 -0.2371 -0.3709  0.2543
13450TIP3    H261766   2.371   3.891  14.398 -1.8808 -1.3788  0.6527
13451TIP3   OH261767   5.226   5.535  12.889  0.3586 -0.2704 -0.3051
13451TIP3    H161768   5.217   5.586  12.808  0.5971  0.4551  0.1234
13451TIP3    H261769   5.172   5.582  12.953  2.5082  0.8191  0.7373
13452TIP3   OH261770   1.774   2.072  13.610  0.0322 -0.2734  0.1520
13452TIP3    H161771   1.760   2.007  13.679  0.2231  1.1864  1.6049
13452TIP3    H261772   1.817   2.024  13.540  1.1304 -1.5003  1.6274
13453TIP3   OH261773   2.603   3.588  15.952 -0.4680  0.5993 -0.3570
13453TIP3    H161774   2.648   3.668  15.923 -0.4786  0.8456  0.2983
13453TIP3    H261775   2.557   3.557  15.874 -2.0086  2.2802 -0.1423
13454TIP3   OH261776   6.400   0.371  15.641  1.1113  0.1656  0.2549
13454TIP3    H161777   6.469   0.365  15.708 -1.5718 -1.4633  2.9754
13454TIP3    H261778   6.361   0.457  15.655  1.3024  0.2947  0.0019
13455TIP3   OH261779   3.309   5.109  16.790  0.2378 -0.0723  0.2685
13455TIP3    H161780   3.242   5.062  16.740  1.8383 -2.7750  0.5458
13455TIP3    H261781   3.356   5.161  16.724  2.6738 -4.0266 -1.2831
13456TIP3   OH261782   5.942   5.973  13.002 -0.2441 -0.1618 -0.7656
13456TIP3    H161783   6.012   5.951  12.941 -0.3016 -1.8771 -0.2294
13456TIP3    H261784   5.946   6.069  13.009  2.3030 -0.2429 -0.4612
13457TIP3   OH261785   6.653   1.927  11.732 -0.6270  0.7000 -0.1496
13457TIP3    H161786   6.694   1.873  11.665 -1.1178 -0.4593  0.4694
13457TIP3    H261787   6.684   2.016  11.714  3.8569 -0.3974  1.5320
13458TIP3   OH261788   5.384   0.510  13.975  0.1072  0.0742  0.5287
13458TIP3    H161789   5.337   0.444  14.025  0.8623 -0.4859  0.5092
13458TIP3    H261790   5.317   0.573  13.948 -0.6581 -0.8498  0.2860
13459TIP3   OH261791   5.353   5.892   2.626  0.5490 -0.2969 -0.0883
13459TIP3    H161792   5.385   5.827   2.565 -1.0025 -0.3076 -0.9083
13459TIP3    H261793   5.330   5.843   2.705  1.1637 -0.4728 -0.0167
13460TIP3   OH261794   4.619   0.252  12.085  0.5158 -0.5849 -0.3427
13460TIP3    H161795   4.668   0.288  12.011 -0.5655 -2.5105 -2.0472
13460TIP3    H261796   4.561   0.323  12.112  2.0286  0.6710 -0.2786
13461TIP3   OH261797   1.339   1.502  12.816  0.0426 -0.3065 -0.4113
13461TIP3    H161798   1.319   1.575  12.874  0.1591  0.4493 -1.3075
13461TIP3    H261799   1.413   1.533  12.763  1.1427 -1.6662  0.2957
13462TIP3   OH261800   0.701   0.052  16.079 -0.4041 -0.0307 -0.1315
13462TIP3    H161801   0.690  -0.032  16.125 -2.8340  0.8038  0.8697
13462TIP3    H261802   0.786   0.084  16.108  1.2781 -2.8436 -1.6972
13463TIP3   OH261803   5.757   4.619   5.390  0.7629 -0.1501 -0.2837
13463TIP3    H161804   5.710   4.557   5.335  0.5479  0.6655 -1.0375
13463TIP3    H261805   5.697   4.694   5.398  1.7392  0.7064 -0.8665
13464TIP3   OH261806   1.412   3.024   4.989  0.3616  0.6327 -0.0606
13464TIP3    H161807   1.377   2.997   5.074 -2.2272  0.6102 -1.1033
13464TIP3    H261808   1.344   3.079   4.951  2.2464  2.1159 -1.3869
13465TIP3   OH261809   0.416   3.623   3.041  0.7576 -0.1939 -0.5323
13465TIP3    H161810   0.511   3.630   3.053  0.7701  1.2385 -1.2388
13465TIP3    H261811   0.382   3.602   3.127  1.5090  1.8648  0.3107
13466TIP3   OH261812   0.584   5.231  16.711 -0.2346  0.2192  0.2404
13466TIP3    H161813   0.510   5.174  16.732  0.0225  0.2767  1.2941
13466TIP3    H261814   0.593   5.288  16.787  0.2314  0.9149 -0.3314
13467TIP3   OH261815   0.935   3.942  12.900  0.3577 -0.5452  0.4772
13467TIP3    H161816   0.845   3.969  12.915 -0.3840 -3.2262  1.2045
13467TIP3    H261817   0.963   3.991  12.823 -1.8403  0.0612  0.0458
13468TIP3   OH261818   6.784   2.231  14.110  0.3446 -0.4113 -0.3018
13468TIP3    H161819   6.826   2.147  14.089  0.6183 -0.6236  1.0526
13468TIP3    H261820   6.851   2.279  14.158  0.0634  0.4588 -0.7710
13469TIP3   OH261821   2.164   4.488   0.035  0.2334  0.1707  0.5153
13469TIP3    H161822   2.198   4.552   0.098  0.3867  0.7961 -0.2062
13469TIP3    H261823   2.219   4.411   0.048  0.8446  0.6074  0.5189
13470TIP3   OH261824   5.347   1.020  11.762 -0.0088 -0.2801 -0.1150
13470TIP3    H161825   5.391   0.952  11.711  0.9281 -0.2599  0.6727
13470TIP3    H261826   5.372   1.102  11.719 -0.0489 -0.3351 -0.2435
13471TIP3   OH261827   5.111   1.416   3.339  0.4571  0.1153 -0.5250
13471TIP3    H161828   5.187   1.372   3.300 -0.2601 -2.3438  0.7406
13471TIP3    H261829   5.036   1.377   3.296 -0.2045  0.0674  0.6591
13472TIP3   OH261830   4.609   4.683   2.999  0.3336  0.3027 -0.3477
13472TIP3    H161831   4.679   4.731   3.044  0.0799  0.3446  0.0068
13472TIP3    H261832   4.579   4.619   3.064  0.0555  0.2719 -0.5065
13473TIP3   OH261833   0.243   0.874   5.414  0.4196 -0.0077  0.1561
13473TIP3    H161834   0.251   0.941   5.346 -1.4727 -0.2298 -0.3225
13473TIP3    H261835   0.320   0.886   5.469  0.6519  1.8519 -0.5469
13474TIP3   OH261836   0.806   2.833  12.829  0.2880  0.1672 -0.2760
13474TIP3    H161837   0.811   2.772  12.755 -0.0615 -1.8638  1.3150
13474TIP3    H261838   0.785   2.777  12.904  1.0857  2.1219  1.4405
13475TIP3   OH261839   4.612   2.907  17.219 -0.2246  0.3279 -0.2813
13475TIP3    H161840   4.673   2.836  17.237 -0.0278  0.0940 -1.8058
13475TIP3    H261841   4.525   2.869  17.235 -0.1716 -0.5509 -1.9576
13476TIP3   OH261842   3.824   5.700  16.967 -0.0950  0.0395  0.5648
13476TIP3    H161843   3.844   5.620  17.015  1.5920  0.0501 -0.0492
13476TIP3    H261844   3.784   5.758  17.031  0.7467 -0.4915  1.5922
13477TIP3   OH261845   5.516   4.109  13.958 -0.6828 -0.3293  0.2399
13477TIP3    H161846   5.483   4.090  14.046  0.0433 -2.0696  0.1540
13477TIP3    H261847   5.523   4.024  13.915 -1.6501  0.5472 -1.7499
13478TIP3   OH261848   2.052   4.136   2.039  0.2902  0.6173 -0.7507
13478TIP3    H161849   1.983   4.184   2.085 -1.1408 -1.8000 -0.2628
13478TIP3    H261850   2.023   4.134   1.948  0.1767  0.3981 -0.7102
13479TIP3   OH261851   1.349   4.559   2.690 -0.1153 -0.0779  0.1604
13479TIP3    H161852   1.292   4.587   2.761 -0.1494  0.8506 -0.2303
13479TIP3    H261853   1.301   4.579   2.610  0.9305  1.1134 -0.1864
13480TIP3   OH261854   2.036   3.737   0.729 -0.9189 -0.0102 -0.0224
13480TIP3    H161855   2.093   3.669   0.764 -1.1865  0.8672  2.1732
13480TIP3    H261856   2.087   3.775   0.657  0.2834 -0.8307  0.3693
13481TIP3   OH261857   5.292   5.537  14.843 -0.2914 -0.4895 -0.5543
13481TIP3    H161858   5.318   5.482  14.917  0.0013 -0.8254 -0.9016
13481TIP3    H261859   5.272   5.622  14.882 -0.1822 -0.6767 -0.0839
13482TIP3   OH261860   5.513   5.029   2.662 -0.4462 -0.0468 -0.2347
13482TIP3    H161861   5.473   5.046   2.747 -0.2001 -0.4904 -0.0296
13482TIP3    H261862   5.582   4.964   2.680 -0.0200  0.2788 -0.6773
13483TIP3   OH261863   3.173   0.539   1.351 -0.0854 -0.4978 -0.7097
13483TIP3    H161864   3.131   0.454   1.356 -1.0023 -0.0629 -0.9123
13483TIP3    H261865   3.103   0.602   1.369  0.7704  0.1733  0.3865
13484TIP3   OH261866   5.164   0.278   2.773 -0.2840 -0.0853  0.1442
13484TIP3    H161867   5.071   0.260   2.761 -0.3110 -0.3555  0.7398
13484TIP3    H261868   5.207   0.216   2.714 -0.4629 -0.3561  0.2952
13485TIP3   OH261869   2.838   6.128  11.845  0.0421  0.4384 -0.1985
13485TIP3    H161870   2.772   6.197  11.830  0.0396  0.7058  1.0007
13485TIP3    H261871   2.922   6.174  11.840  0.0653  0.4161 -0.0132
13486TIP3   OH261872   1.516   1.650  13.945 -0.0962 -0.7192  0.0652
13486TIP3    H161873   1.555   1.726  13.988 -0.2613 -1.2285  1.1127
13486TIP3    H261874   1.546   1.656  13.854  0.8755 -0.0682  0.4285
13487TIP3   OH261875   6.338   2.425   4.271  0.3619  0.2066  0.9410
13487TIP3    H161876   6.419   2.430   4.221 -0.0266  1.5912  0.4105
13487TIP3    H261877   6.268   2.427   4.205 -0.1932  3.4991  1.4990
13488TIP3   OH261878   3.133   6.360  16.905  0.0702 -0.6756 -0.0411
13488TIP3    H161879   3.130   6.270  16.873 -3.0055 -1.3873  1.9442
13488TIP3    H261880   3.042   6.390  16.902  0.6795  1.5470  1.5024
13489TIP3   OH261881   2.614   5.973   1.226 -0.0029  0.4870 -0.2148
13489TIP3    H161882   2.591   6.014   1.142 -0.7153  0.2052 -0.1591
13489TIP3    H261883   2.594   6.041   1.291  1.0809  0.9075 -0.3160
13490TIP3   OH261884   2.197   2.476   0.457 -0.7706  0.2063 -0.0515
13490TIP3    H161885   2.106   2.464   0.430 -1.1178 -0.4189  1.3124
13490TIP3    H261886   2.199   2.562   0.499 -1.2438 -0.6567  1.8210
13491TIP3   OH261887   2.440   2.995   3.993 -0.2022  0.3992  0.0744
13491TIP3    H161888   2.373   2.951   3.941  1.2995 -2.7619  0.6768
13491TIP3    H261889   2.430   2.958   4.081 -0.8165  3.5057  1.3609
13492TIP3   OH261890   2.740   0.487   5.828  0.4934 -0.3772  0.0406
13492TIP3    H161891   2.750   0.581   5.812 -2.5893  0.1768  0.8885
13492TIP3    H261892   2.764   0.446   5.745 -3.0753  1.5704 -2.1172
13493TIP3   OH261893   2.992   5.904   2.585  0.3744 -0.0426  0.4190
13493TIP3    H161894   3.037   5.832   2.540 -0.3600  0.6408 -1.4604
13493TIP3    H261895   2.899   5.883   2.577  0.2573 -0.1269  2.0051
13494TIP3   OH261896   5.495   4.687  13.430 -0.6703 -0.4329  0.2216
13494TIP3    H161897   5.551   4.633  13.486  0.3794 -0.0806 -0.4585
13494TIP3    H261898   5.454   4.625  13.370 -1.8719 -0.8214  1.4200
13495TIP3   OH261899   1.842   4.099   5.705 -0.2100  0.0683 -0.1204
13495TIP3    H161900   1.842   4.186   5.666  1.8934 -0.4063 -1.2964
13495TIP3    H261901   1.916   4.054   5.662  0.7214 -1.2544  2.7669
13496TIP3   OH261902   1.864   0.628  13.945  0.1159  0.6392  0.4186
13496TIP3    H161903   1.827   0.550  13.903 -1.3476  1.5789 -0.0620
13496TIP3    H261904   1.800   0.653  14.011  0.0680  2.0285 -0.1330
13497TIP3   OH261905   1.486   3.994   0.067 -0.3206  0.2451  0.0954
13497TIP3    H161906   1.537   4.057   0.016 -0.9561  0.2843 -0.4995
13497TIP3    H261907   1.540   3.914   0.068  0.1853  0.5896  0.2939
13498TIP3   OH261908   0.316   6.293  16.391  0.0008  0.1753  0.4005
13498TIP3    H161909   0.393   6.244  16.420  0.4842  1.1677  0.8020
13498TIP3    H261910   0.250   6.276  16.458 -0.2664 -0.9625 -0.1238
13499TIP3   OH261911   6.347   4.938  12.039 -0.1693 -0.2397  1.1613
13499TIP3    H161912   6.435   4.901  12.038 -0.2953 -0.5859  1.9894
13499TIP3    H261913   6.344   4.992  12.118 -0.2445  0.9278  0.3782
13500TIP3   OH261914   6.500   0.757  11.587 -0.1284  0.0414  0.0704
13500TIP3    H161915   6.484   0.847  11.560 -0.8996 -0.4735 -1.2000
13500TIP3    H261916   6.525   0.711  11.507  0.9415 -0.7273  0.8264
13501TIP3   OH261917   3.978   1.144   2.828  0.9578 -0.6852 -0.0816
13501TIP3    H161918   4.049   1.094   2.869  1.1119 -0.4152 -0.0149
13501TIP3    H261919   3.921   1.168   2.902  0.2876 -1.7198 -0.2621
13502TIP3   OH261920   3.352   2.140   0.615 -0.5319  0.1530  0.0675
13502TIP3    H161921   3.289   2.088   0.665  0.2044 -1.7617 -0.9289
13502TIP3    H261922   3.320   2.137   0.524  0.2832  0.2449 -0.2319
13503TIP3   OH261923   1.375   2.029   1.177 -0.1989  0.0733 -0.1021
13503TIP3    H161924   1.336   2.057   1.094  1.2132  1.4783 -0.3233
13503TIP3    H261925   1.469   2.045   1.165  0.0863 -0.3029  1.5443
13504TIP3   OH261926   5.076   5.946   3.266 -0.0018 -0.5822 -0.5174
13504TIP3    H161927   5.130   5.875   3.301  1.3999  0.9971  0.5732
13504TIP3    H261928   5.106   5.956   3.175  1.6469  0.3673  0.1153
13505TIP3   OH261929   0.594   2.745  12.360  0.2780  0.3962 -0.1543
13505TIP3    H161930   0.523   2.790  12.314  1.4440  1.4608 -0.9726
13505TIP3    H261931   0.659   2.728  12.291  0.7200 -0.7569  0.5368
13506TIP3   OH261932   2.199   4.673  16.667 -0.4419 -0.3528  0.4329
13506TIP3    H161933   2.226   4.627  16.588 -0.2271 -1.1747  0.9750
13506TIP3    H261934   2.103   4.672  16.664 -0.4409 -1.0605  0.5646
13507TIP3   OH261935   4.043   5.382  13.952 -0.6609 -0.1153 -0.2372
13507TIP3    H161936   4.048   5.372  13.857 -1.2197 -0.1303 -0.2633
13507TIP3    H261937   4.135   5.378  13.981 -0.1974  3.2803 -1.0966
13508TIP3   OH261938   6.714   2.221  15.908  0.2610 -0.5796 -0.1868
13508TIP3    H161939   6.734   2.148  15.967 -0.3988 -1.0445 -0.5427
13508TIP3    H261940   6.798   2.268  15.899 -0.0295  0.5294  2.5017
13509TIP3   OH261941   1.152   0.329  15.536  0.2774  0.0355  0.3349
13509TIP3    H161942   1.146   0.354  15.444 -1.1378  0.4510  0.5276
13509TIP3    H261943   1.228   0.377  15.570  0.8280 -0.1542 -0.6173
13510TIP3   OH261944   1.946   3.430  13.249 -0.3010  0.2752  0.1974
13510TIP3    H161945   1.872   3.447  13.308 -0.7427 -0.9723  0.0126
13510TIP3    H261946   1.937   3.496  13.180 -1.3222  0.0514  0.1074
13511TIP3   OH261947   2.987   0.082  13.244 -0.1144 -0.2342 -0.0905
13511TIP3    H161948   3.042   0.005  13.227 -0.3659 -0.3321 -0.4528
13511TIP3    H261949   2.897   0.049  13.240 -0.2465  0.2288 -0.9756
13512TIP3   OH261950   4.888   6.319   3.420 -0.3688 -0.6260  0.0631
13512TIP3    H161951   4.888   6.300   3.326  0.2060 -2.9874  0.5023
13512TIP3    H261952   4.849   6.241   3.460 -0.3269  0.2262  1.8024
13513TIP3   OH261953   1.857   4.572  15.143 -0.0900 -0.5708 -0.5503
13513TIP3    H161954   1.820   4.523  15.216 -0.0107 -0.9107 -0.7382
13513TIP3    H261955   1.784   4.585  15.083 -0.4264  0.6775  0.0970
13514TIP3   OH261956   5.545   4.098  13.642 -0.1784  0.0097  0.6677
13514TIP3    H161957   5.530   4.013  13.685 -0.2584 -0.2626  0.1116
13514TIP3    H261958   5.482   4.157  13.684 -0.0167 -0.1705  1.1660
13515TIP3   OH261959   4.186   4.801  11.802 -0.5567  0.1777  0.4996
13515TIP3    H161960   4.182   4.708  11.826 -0.6839 -0.2578 -1.1048
13515TIP3    H261961   4.101   4.819  11.763 -0.4959  0.9496  0.7313
13516TIP3   OH261962   0.155   0.194  11.487  0.3497 -0.2677  0.8809
13516TIP3    H161963   0.060   0.206  11.487  0.1105 -2.0028  0.3056
13516TIP3    H261964   0.190   0.280  11.465 -1.0974  0.2950  0.6948
13517TIP3   OH261965   6.666   2.051  12.073 -0.0911 -0.1603 -0.3672
13517TIP3    H161966   6.646   2.142  12.096  0.5225 -0.1548  0.1399
13517TIP3    H261967   6.724   2.058  11.997 -0.4320 -0.1466 -0.6319
13518TIP3   OH261968   1.740   0.495  12.868  0.2367  0.6172  0.2577
13518TIP3    H161969   1.757   0.570  12.811  0.1441 -0.6728 -1.5085
13518TIP3    H261970   1.791   0.423  12.829 -0.5095 -0.5106  1.3126
13519TIP3   OH261971   0.271   0.827  12.379  0.4957 -0.1293  0.2151
13519TIP3    H161972   0.313   0.747  12.412  1.6388  0.9290  1.4373
13519TIP3    H261973   0.333   0.897  12.402  0.2687  0.9242 -2.2714
13520TIP3   OH261974   1.236   2.961  14.351 -0.6017 -0.5102 -0.8738
13520TIP3    H161975   1.236   2.879  14.399  2.1582  0.0621  0.2292
13520TIP3    H261976   1.201   3.025  14.412 -0.3247 -0.3989 -0.8316
13521TIP3   OH261977   1.241   3.336  12.140  0.1588 -0.3017  0.5719
13521TIP3    H161978   1.284   3.320  12.224 -2.2318 -1.4735  1.6366
13521TIP3    H261979   1.163   3.280  12.143  0.1801 -0.5622 -2.5495
13522TIP3   OH261980   1.049   2.763  11.714 -0.2317 -0.4533 -0.0088
13522TIP3    H161981   1.140   2.744  11.735  0.1736  1.2185 -0.2159
13522TIP3    H261982   1.007   2.776  11.799 -0.0289 -0.1108  0.0390
13523TIP3   OH261983   0.459   2.741  12.598  0.7174 -0.7949  0.3313
13523TIP3    H161984   0.386   2.778  12.548 -0.6256 -3.2531  0.4251
13523TIP3    H261985   0.531   2.738  12.535 -0.2967 -1.7136 -0.8067
13524TIP3   OH261986   5.466   4.164   5.575  0.3175  0.0446  0.2123
13524TIP3    H161987   5.499   4.075   5.587 -1.0950 -0.3805  1.1426
13524TIP3    H261988   5.465   4.177   5.481 -1.1738 -1.6315 -0.0426
13525TIP3   OH261989   6.753   2.428  11.192 -0.2476 -0.3774  0.0028
13525TIP3    H161990   6.812   2.387  11.129  0.4333  3.9013 -2.3668
13525TIP3    H261991   6.806   2.442  11.269  1.3243  1.5334 -1.3732
13526TIP3   OH261992   5.028   2.254   4.961  0.3201  0.7775  0.1632
13526TIP3    H161993   4.934   2.265   4.978 -0.0170 -1.2732 -0.2599
13526TIP3    H261994   5.060   2.202   5.035  1.0707  1.1964  0.1368
13527TIP3   OH261995   3.826   3.961  16.624 -0.2771  0.4439  0.2102
13527TIP3    H161996   3.824   3.903  16.548  0.2838  0.6306  0.0476
13527TIP3    H261997   3.859   4.044  16.589 -0.0059  0.5257  0.6611
13528TIP3   OH261998   0.708   1.905  10.606  0.0072 -0.1664 -0.3146
13528TIP3    H161999   0.754   1.840  10.553  1.2424 -0.8316  1.5135
13528TIP3    H262000   0.620   1.870  10.617  0.3760 -1.0490 -0.1738
13529TIP3   OH262001   4.860   3.200   4.875 -0.2688 -0.4243  0.0583
13529TIP3    H162002   4.907   3.212   4.792 -1.6078 -0.6931 -0.7521
13529TIP3    H262003   4.924   3.224   4.942  0.1841  1.7857 -1.1260
13530TIP3   OH262004   0.350   4.140  16.942  0.2100  0.1524 -0.3071
13530TIP3    H162005   0.314   4.073  17.000  1.2911 -0.5029 -0.3809
13530TIP3    H262006   0.363   4.216  16.998 -0.0983 -0.0109 -0.0075
13531TIP3   OH262007   5.092   5.545  15.107 -0.2604 -0.6253 -0.4511
13531TIP3    H162008   5.031   5.477  15.134  1.6965 -2.4035 -0.4034
13531TIP3    H262009   5.145   5.504  15.038 -0.7147  1.6632 -2.2351
13532TIP3   OH262010   4.732   5.532  14.222 -0.4571  0.3171  0.3807
13532TIP3    H162011   4.637   5.521  14.231 -0.1153 -3.5322 -0.0610
13532TIP3    H262012   4.764   5.539  14.312 -0.9926  0.0330  0.5953
13533TIP3   OH262013   5.832   2.530   1.467 -0.0229  0.0627  0.1980
13533TIP3    H162014   5.902   2.579   1.424 -1.5178  0.2957 -2.0376
13533TIP3    H262015   5.757   2.589   1.464 -0.2950 -0.0730  2.8120
13534TIP3   OH262016   6.368   5.136   0.521  0.2571 -0.2564 -0.2691
13534TIP3    H162017   6.356   5.147   0.615 -2.2679 -0.9004 -0.4909
13534TIP3    H262018   6.338   5.219   0.483  0.9133 -0.1424 -0.5587
13535TIP3   OH262019   1.395   5.635   0.283 -0.3045 -0.6193  0.1114
13535TIP3    H162020   1.323   5.648   0.346  0.3626 -2.6259  1.3410
13535TIP3    H262021   1.473   5.665   0.330 -0.0960 -0.0891 -0.5693
13536TIP3   OH262022   5.255   5.597   3.914 -0.6201 -0.1594  0.1327
13536TIP3    H162023   5.225   5.506   3.919  1.2973 -0.7728  0.8059
13536TIP3    H262024   5.339   5.592   3.868 -1.4079  1.5128 -1.5652
13537TIP3   OH262025   3.332   2.539   1.802  0.2758  0.8921 -0.0462
13537TIP3    H162026   3.269   2.475   1.770 -0.3107  0.6213  1.6277
13537TIP3    H262027   3.416   2.492   1.801 -0.4803 -0.6886  3.2623
13538TIP3   OH262028   5.457   4.863  16.865  0.2754 -0.0714 -0.2413
13538TIP3    H162029   5.470   4.946  16.819  0.4420  0.5432  0.9092
13538TIP3    H262030   5.545   4.829  16.880  0.3612  0.9493  1.8054
13539TIP3   OH262031   2.718   0.795   0.271  0.0345  0.7849 -0.1867
13539TIP3    H162032   2.731   0.889   0.284  1.2201  0.2980  2.2412
13539TIP3    H262033   2.806   0.759   0.259 -0.3750 -0.1152 -0.5771
13540TIP3   OH262034   3.245   3.322   4.378 -0.3077  0.2871 -0.5357
13540TIP3    H162035   3.202   3.400   4.412  0.3519 -0.0709  1.1789
13540TIP3    H262036   3.259   3.266   4.455 -0.4634 -1.3738 -1.6719
13541TIP3   OH262037   2.602   2.378   4.634 -0.0563 -0.1076  0.4179
13541TIP3    H162038   2.683   2.424   4.656 -0.4263  0.3336  0.8735
13541TIP3    H262039   2.555   2.373   4.717 -0.4327 -0.4870  0.1799
13542TIP3   OH262040   4.849   3.494  13.967 -0.2060 -0.3068  0.0831
13542TIP3    H162041   4.788   3.531  14.031  0.1073  2.2453 -1.0401
13542TIP3    H262042   4.925   3.467  14.019 -1.1970 -1.0909  1.1502
13543TIP3   OH262043   6.247   6.011  13.169 -0.3875  0.4692 -0.0120
13543TIP3    H162044   6.260   6.104  13.188 -2.4243  0.2416  2.7794
13543TIP3    H262045   6.329   5.984  13.129  1.2550  2.8749  1.5560
13544TIP3   OH262046   2.602   0.361   3.385  0.1944  0.2640 -0.5390
13544TIP3    H162047   2.594   0.384   3.478 -0.0844 -0.5978 -0.3425
13544TIP3    H262048   2.572   0.270   3.381 -0.6835  0.5962 -1.6184
13545TIP3   OH262049   6.157   2.731  11.993 -0.6078  0.9092  0.0383
13545TIP3    H162050   6.125   2.708  12.080  0.8577 -0.9653  0.1183
13545TIP3    H262051   6.078   2.739  11.940 -1.3765 -1.6721  0.6896
13546TIP3   OH262052   3.774   1.893  15.861  0.0267  0.0323 -0.0096
13546TIP3    H162053   3.740   1.938  15.783  0.8710  0.0412 -0.3793
13546TIP3    H262054   3.841   1.833  15.827  1.5433  1.1852  0.8563
13547TIP3   OH262055   0.918   1.550   4.650  0.0079  0.2975  0.1689
13547TIP3    H162056   0.918   1.457   4.673 -2.3401  0.1748 -0.1448
13547TIP3    H262057   0.905   1.551   4.555 -1.9998  0.9499  0.4306
13548TIP3   OH262058   4.511   1.547   1.173 -0.1405  0.5631 -0.2644
13548TIP3    H162059   4.599   1.560   1.139 -0.3731 -0.8988 -1.4946
13548TIP3    H262060   4.524   1.510   1.260  0.4914 -0.6123 -0.8400
13549TIP3   OH262061   6.633   0.013   4.943  0.0542 -0.4670  0.1663
13549TIP3    H162062   6.589  -0.060   4.900  0.5335 -0.7464  0.1465
13549TIP3    H262063   6.579   0.089   4.923 -0.4920 -0.8297  0.2566
13550TIP3   OH262064   6.781   3.232  15.091 -0.3119  0.4058 -0.4477
13550TIP3    H162065   6.712   3.248  15.157 -1.1894 -2.0561 -0.7325
13550TIP3    H262066   6.821   3.150  15.118  1.6092  1.1071 -1.1068
13551TIP3   OH262067   5.263   0.620   4.699  0.1571  0.1507  0.6345
13551TIP3    H162068   5.325   0.554   4.730  0.2613 -0.0229  0.0585
13551TIP3    H262069   5.314   0.701   4.694 -0.1435  0.4291  2.0076
13552TIP3   OH262070   3.508   2.354  15.942 -0.0726  0.0711 -0.7613
13552TIP3    H162071   3.507   2.445  15.912  0.5381 -0.2814 -1.8794
13552TIP3    H262072   3.441   2.350  16.011 -0.9855  1.0648 -1.5844
13553TIP3   OH262073   4.581   4.933   2.602  0.3282 -0.0344  0.2740
13553TIP3    H162074   4.559   4.996   2.672  1.6194  0.2804  0.4088
13553TIP3    H262075   4.553   4.849   2.637 -0.4013  0.3164  0.5601
13554TIP3   OH262076   1.286   5.073  16.973  0.0880 -0.0440  0.1495
13554TIP3    H162077   1.244   5.006  17.027 -0.7370  0.3692  0.0277
13554TIP3    H262078   1.230   5.080  16.896 -1.2101  2.4732  1.2383
13555TIP3   OH262079   4.250   2.508  12.783  0.0578  0.5072  0.3950
13555TIP3    H162080   4.236   2.517  12.689 -0.0219  1.4908  0.4936
13555TIP3    H262081   4.342   2.481  12.790 -0.7876 -2.7058 -0.0913
13556TIP3   OH262082   0.293   5.424  14.403 -0.4843 -0.2926  0.6877
13556TIP3    H162083   0.271   5.335  14.376  0.5668 -0.5234  0.5652
13556TIP3    H262084   0.307   5.471  14.320 -1.2541  0.0451  0.7468
13557TIP3   OH262085   5.545   5.091  14.629  0.1602  0.6425  0.2088
13557TIP3    H162086   5.561   5.013  14.682  1.1061  0.4094 -0.4083
13557TIP3    H262087   5.451   5.089  14.610  0.4722 -1.2593 -1.2259
13558TIP3   OH262088   3.422   0.012   2.205  0.1751  0.1914 -0.4694
13558TIP3    H162089   3.373  -0.011   2.284  0.1737  1.1624 -0.1728
13558TIP3    H262090   3.368   0.079   2.162 -0.0892 -0.7258 -1.5805
13559TIP3   OH262091   2.910   3.589   6.535 -0.2919  0.2740  0.1697
13559TIP3    H162092   2.876   3.502   6.554  0.1040  0.0746 -0.0284
13559TIP3    H262093   2.846   3.649   6.574 -0.7654 -0.0976 -0.0381
13560TIP3   OH262094   3.318   6.580  11.767  0.1325 -0.2421 -0.5047
13560TIP3    H162095   3.251   6.648  11.759 -0.5915 -0.7764  0.9191
13560TIP3    H262096   3.395   6.626  11.799 -0.1364  0.0423 -0.2599
13561TIP3   OH262097   4.034   0.188  12.593  0.3559 -0.2425  0.0103
13561TIP3    H162098   4.111   0.244  12.604 -1.4790  2.2629  0.3530
13561TIP3    H262099   3.989   0.222  12.516  0.6676 -3.0605 -1.5138
13562TIP3   OH262100   2.889   5.211  12.122  0.2303  0.3041  0.5999
13562TIP3    H162101   2.916   5.269  12.051 -2.2381 -0.9611 -1.4233
13562TIP3    H262102   2.813   5.254  12.161 -0.5712 -0.7188  0.1880
13563TIP3   OH262103   0.481   2.178   0.792  0.5436 -0.5590 -0.3558
13563TIP3    H162104   0.445   2.093   0.764 -1.3333  0.9441 -2.6937
13563TIP3    H262105   0.512   2.219   0.712  1.8977  0.7814  0.8299
13564TIP3   OH262106   6.513   2.294  16.458  0.2514  0.6142 -0.4693
13564TIP3    H162107   6.514   2.323  16.367  0.9272 -1.6345 -1.1825
13564TIP3    H262108   6.433   2.242  16.466  0.2822  0.6641  0.2072
13565TIP3   OH262109   3.420   6.333  14.002  0.2327 -0.1060 -0.0472
13565TIP3    H162110   3.335   6.346  14.045 -0.2173  1.3666 -1.3176
13565TIP3    H262111   3.457   6.421  13.997  0.6832 -0.3872 -1.8410
13566TIP3   OH262112   2.368   2.781   5.829  0.0363 -0.6697  0.4454
13566TIP3    H162113   2.321   2.836   5.766  0.3582 -1.0214 -0.0961
13566TIP3    H262114   2.392   2.842   5.900  1.1696  0.0862 -0.5708
13567TIP3   OH262115   2.860   3.795   4.745  0.1464  0.5075 -0.0844
13567TIP3    H162116   2.819   3.881   4.736  0.1658  0.2823 -2.5856
13567TIP3    H262117   2.790   3.733   4.728  0.5155  0.0470  0.0609
13568TIP3   OH262118   1.073   3.947  14.190 -0.1331  0.2482 -0.1203
13568TIP3    H162119   1.074   4.030  14.141 -1.2695 -0.0662 -0.7128
13568TIP3    H262120   1.053   3.881  14.124 -1.8713 -0.1614  0.7871
13569TIP3   OH262121   6.004   0.382   3.718  1.0062 -0.2967  0.5593
13569TIP3    H162122   5.970   0.300   3.753  1.0168  0.6068  2.7479
13569TIP3    H262123   5.943   0.449   3.750  1.2330  0.6097 -0.8485
13570TIP3   OH262124   3.810   1.105   1.972 -0.8319  0.1287  0.4726
13570TIP3    H162125   3.869   1.077   1.903 -1.3220 -1.2940  0.6233
13570TIP3    H262126   3.805   1.200   1.962  3.3119  0.6417  1.8965
13571TIP3   OH262127   4.433   1.980  12.068  0.6794  0.4648 -0.0061
13571TIP3    H162128   4.470   2.022  11.991 -0.2221 -0.5282 -1.0125
13571TIP3    H262129   4.472   1.892  12.069 -1.0961 -0.3662 -0.7181
13572TIP3   OH262130   3.135   2.729  15.881  0.6611  0.6331  0.4424
13572TIP3    H162131   3.136   2.823  15.865  1.6918  0.7191  0.9309
13572TIP3    H262132   3.192   2.692  15.814 -0.0616  0.3148  0.0050
13573TIP3   OH262133   6.330   1.233   0.357 -0.3017  0.2933 -0.2452
13573TIP3    H162134   6.286   1.315   0.334  1.1283  0.7119 -1.6456
13573TIP3    H262135   6.261   1.176   0.390 -1.4207  1.8489  0.1548
13574TIP3   OH262136   4.880   6.750   2.030 -0.3141 -0.4676 -0.0668
13574TIP3    H162137   4.871   6.673   1.974 -1.7054 -1.9578  2.1006
13574TIP3    H262138   4.949   6.727   2.092  0.7940  0.9211 -0.7632
13575TIP3   OH262139   4.932   0.294   1.508 -0.1977  0.2624 -0.5450
13575TIP3    H162140   4.999   0.343   1.461 -0.4764  1.7851  0.6175
13575TIP3    H262141   4.913   0.347   1.586 -0.0226 -2.0015  1.0944
13576TIP3   OH262142   1.295   6.266  14.073  0.2973  0.3858  0.4006
13576TIP3    H162143   1.338   6.180  14.066  0.8656  0.4774  2.5245
13576TIP3    H262144   1.294   6.285  14.166 -0.1547  2.5441 -0.0186
13577TIP3   OH262145   5.429   5.399   4.334  0.3212 -0.4937 -0.3862
13577TIP3    H162146   5.488   5.373   4.263  2.3223 -0.5740  1.2221
13577TIP3    H262147   5.392   5.482   4.306 -0.6152 -1.5885 -2.4620
13578TIP3   OH262148   2.800   1.392   2.507 -0.3243  0.4148 -0.0799
13578TIP3    H162149   2.829   1.301   2.498  0.7550  0.9839 -2.6629
13578TIP3    H262150   2.806   1.410   2.601 -0.0256 -2.0025  0.3830
13579TIP3   OH262151   0.866   3.171   4.835  0.4989  0.1231 -0.1071
13579TIP3    H162152   0.808   3.190   4.762 -0.9387  0.4388  1.1016
13579TIP3    H262153   0.893   3.257   4.867 -0.4079  0.0236  0.9397
13580TIP3   OH262154   1.567   2.115   2.237 -0.1456  0.4143 -0.2286
13580TIP3    H162155   1.616   2.124   2.155 -0.0058  0.3369 -0.1538
13580TIP3    H262156   1.477   2.140   2.214  0.0455  1.1086 -0.2335
13581TIP3   OH262157   3.839   1.713  11.506 -0.1590 -0.1501  0.4874
13581TIP3    H162158   3.841   1.808  11.521  0.5177  0.0035 -0.5136
13581TIP3    H262159   3.903   1.678  11.568  0.0407  0.1151  0.4351
13582TIP3   OH262160   4.392   3.754   1.423 -0.1089  0.1131  0.3086
13582TIP3    H162161   4.342   3.818   1.373 -0.0726  0.4253  0.6783
13582TIP3    H262162   4.386   3.673   1.371 -0.6177  0.2677  0.1325
13583TIP3   OH262163   5.184   4.890  15.228 -0.2507  0.7761  0.5168
13583TIP3    H162164   5.215   4.936  15.307  1.6114 -0.9851  0.8574
13583TIP3    H262165   5.225   4.938  15.156  2.6943 -0.9859  0.9221
13584TIP3   OH262166   3.798   6.707  11.283  0.4081  0.8543  0.5363
13584TIP3    H162167   3.789   6.641  11.214  0.8288  1.9856 -0.6141
13584TIP3    H262168   3.728   6.686  11.345 -0.4787  0.2794 -0.6223
13585TIP3   OH262169   4.021   3.986   4.532 -0.1118 -0.0524 -0.3978
13585TIP3    H162170   3.949   3.981   4.469 -0.5073 -0.7030  0.0858
13585TIP3    H262171   4.017   3.902   4.579  0.2342  0.3818  0.4221
13586TIP3   OH262172   3.590   2.479  17.088 -0.0701 -0.4442 -0.8214
13586TIP3    H162173   3.552   2.557  17.128  0.0002  0.1892 -1.9636
13586TIP3    H262174   3.616   2.424  17.162  0.5582  0.9457  0.0110
13587TIP3   OH262175   2.436   2.324   2.474  0.3458  0.3582  0.0189
13587TIP3    H162176   2.391   2.399   2.436  0.9639  0.5596 -0.3282
13587TIP3    H262177   2.480   2.282   2.400 -0.2954 -0.5692  0.1422
13588TIP3   OH262178   5.600   0.859   6.154  0.4144 -0.5805  0.0988
13588TIP3    H162179   5.597   0.951   6.130  0.0153 -0.3816  0.8924
13588TIP3    H262180   5.682   0.850   6.203 -0.4649 -0.2301  1.6654
13589TIP3   OH262181   3.282   0.538  16.143  0.2231  0.3746  0.1109
13589TIP3    H162182   3.372   0.510  16.159  0.0877 -1.3932 -1.9830
13589TIP3    H262183   3.290   0.627  16.110  1.4158 -0.5240 -2.1465
13590TIP3   OH262184   1.400   5.796  17.078  0.2803 -0.0152 -0.2463
13590TIP3    H162185   1.433   5.708  17.097 -0.8475 -0.2374  0.7493
13590TIP3    H262186   1.476   5.844  17.044  0.6763 -1.6601 -1.7662
13591TIP3   OH262187   5.224   4.146   4.220 -0.0792 -0.4054  0.0770
13591TIP3    H162188   5.247   4.174   4.132 -1.8120 -0.0110 -0.2657
13591TIP3    H262189   5.187   4.058   4.208  1.8019 -1.3167  0.7000
13592TIP3   OH262190   2.128   5.370  15.687  0.4451  0.4606  0.0691
13592TIP3    H162191   2.125   5.274  15.690 -0.0328  0.5178  1.7065
13592TIP3    H262192   2.039   5.396  15.662 -0.1267  0.5528  2.1445
13593TIP3   OH262193   5.541   5.583   3.797  0.1462 -0.2593 -0.3673
13593TIP3    H162194   5.582   5.501   3.825 -0.1838 -0.4783 -0.5199
13593TIP3    H262195   5.612   5.647   3.800  0.8171 -0.9085 -1.8889
13594TIP3   OH262196   3.600   5.854   3.475  0.1542  0.3359  0.2851
13594TIP3    H162197   3.582   5.781   3.416 -1.2027  0.6295  0.3070
13594TIP3    H262198   3.613   5.929   3.416  0.4241  0.2966  0.2971
13595TIP3   OH262199   6.357   4.834   5.282  0.0403  0.0336 -0.3801
13595TIP3    H162200   6.302   4.764   5.318  0.7933 -0.1886  0.3582
13595TIP3    H262201   6.325   4.914   5.325 -0.2934  0.0307 -0.6225
13596TIP3   OH262202   4.894   0.441   4.529  0.1849  0.6685  0.3166
13596TIP3    H162203   4.904   0.350   4.557  1.3187  0.8706  0.6050
13596TIP3    H262204   4.971   0.486   4.565 -0.4815  1.7838  0.3581
13597TIP3   OH262205   4.381   6.049   0.281  0.2465  0.5936 -0.0413
13597TIP3    H162206   4.428   6.024   0.201 -1.1429  0.4343 -0.8245
13597TIP3    H262207   4.316   6.112   0.251 -0.8771 -0.1480  0.8227
13598TIP3   OH262208   4.771   2.709   0.087 -0.5010 -0.0027  0.1128
13598TIP3    H162209   4.720   2.642   0.131 -0.8984 -1.6365 -2.6805
13598TIP3    H262210   4.860   2.695   0.117 -0.9522 -0.2187  1.3810
13599TIP3   OH262211   4.730   3.215   3.464 -0.5259  0.5786  0.2812
13599TIP3    H162212   4.670   3.290   3.461  0.6325  1.5595  0.8132
13599TIP3    H262213   4.815   3.254   3.486 -0.3152 -1.1544  2.7357
13600TIP3   OH262214   4.124   2.136   2.240  0.5446 -0.3187  0.5839
13600TIP3    H162215   4.123   2.226   2.272  1.8478 -0.5389  1.2807
13600TIP3    H262216   4.042   2.126   2.191 -0.7364  0.5197  2.5275
13601TIP3   OH262217   1.779   4.043  16.694  0.2048  0.0115 -0.1008
13601TIP3    H162218   1.832   4.120  16.713  0.2594 -0.3062  1.0364
13601TIP3    H262219   1.695   4.059  16.737 -0.1356 -0.1298 -0.6916
13602TIP3   OH262220   5.490   1.872   3.007 -0.2830 -0.3012 -0.4394
13602TIP3    H162221   5.436   1.797   3.031 -0.2423  0.0123  0.6425
13602TIP3    H262222   5.443   1.912   2.933 -0.5659 -1.0953 -0.6924
13603TIP3   OH262223   1.116   3.162   5.470  0.0598 -0.6384 -0.2932
13603TIP3    H162224   1.166   3.082   5.487  2.0387 -0.0069 -2.6912
13603TIP3    H262225   1.043   3.134   5.415 -0.6188 -1.1388  0.8485
13604TIP3   OH262226   6.201   2.254   3.406  0.8574 -0.2131 -0.1064
13604TIP3    H162227   6.226   2.170   3.445 -2.0224 -0.2964  1.6891
13604TIP3    H262228   6.185   2.311   3.481  1.2685  1.4938 -1.3016
13605TIP3   OH262229   0.645   1.963   2.087 -0.3480 -0.4617  0.2511
13605TIP3    H162230   0.724   1.931   2.129 -0.2638 -1.3500 -0.5496
13605TIP3    H262231   0.632   2.051   2.122  0.5931 -0.5875  0.9183
13606TIP3   OH262232   1.625   5.945   2.659 -0.4521 -0.2499 -0.2357
13606TIP3    H162233   1.575   5.863   2.659 -1.5471  0.4105 -0.3000
13606TIP3    H262234   1.627   5.971   2.567 -0.6564  0.1301 -0.1306
13607TIP3   OH262235   1.404   1.596  11.592  0.9161  0.1312 -0.4629
13607TIP3    H162236   1.414   1.647  11.511 -1.4515 -0.1722 -0.9752
13607TIP3    H262237   1.359   1.516  11.564  1.0460 -0.4553  0.9902
13608TIP3   OH262238   6.107   4.856  16.433 -0.0503  0.5015  0.1384
13608TIP3    H162239   6.050   4.901  16.495 -0.0519  1.3299 -0.4637
13608TIP3    H262240   6.057   4.853  16.351  1.1314  2.0991 -0.6702
13609TIP3   OH262241   6.776   1.827   0.035 -0.3220  0.3381  0.0517
13609TIP3    H162242   6.773   1.866   0.122  0.2667 -1.0550  0.7091
13609TIP3    H262243   6.710   1.875  -0.015 -2.6707 -0.7325  2.0576
13610TIP3   OH262244   4.324   5.653   0.247 -0.3406 -0.0615 -0.3436
13610TIP3    H162245   4.281   5.710   0.310 -0.3158 -0.0423 -0.3443
13610TIP3    H262246   4.389   5.709   0.204  0.0336 -0.2214  0.0116
13611TIP3   OH262247   2.897   3.745   0.660  0.7084  0.3224  0.0071
13611TIP3    H162248   2.916   3.674   0.598 -1.9006 -2.0257  1.8063
13611TIP3    H262249   2.826   3.794   0.619  0.7293  0.3058 -0.0490
13612TIP3   OH262250   3.897   5.400   0.725  0.3240 -0.7321  0.6227
13612TIP3    H162251   3.965   5.467   0.732  1.2189 -1.6088  0.4462
13612TIP3    H262252   3.816   5.449   0.714  1.2508  0.3186 -1.9213
13613TIP3   OH262253   3.105   0.944  13.442 -0.1084  0.3864 -0.0449
13613TIP3    H162254   3.090   1.007  13.371  0.3922 -0.8565 -1.2906
13613TIP3    H262255   3.038   0.877  13.428  0.3416 -0.1449  0.3269
13614TIP3   OH262256   0.604   5.999  16.778 -0.2304  0.1421  0.1144
13614TIP3    H162257   0.523   5.993  16.830 -0.4811  1.6887 -0.0745
13614TIP3    H262258   0.630   6.091  16.786  0.1609  0.2109 -1.8703
13615TIP3   OH262259   5.310   3.099   6.588  0.0512  0.5767 -0.0368
13615TIP3    H162260   5.279   3.069   6.502  2.2742  0.3656 -0.7958
13615TIP3    H262261   5.287   3.192   6.590 -1.0567  0.3159 -0.3703
13616TIP3   OH262262   3.174   6.373   3.413 -0.0469 -0.2407  0.2646
13616TIP3    H162263   3.221   6.416   3.343 -0.1962 -1.6808 -0.7395
13616TIP3    H262264   3.240   6.321   3.459  0.0866  0.8410  1.3131
13617TIP3   OH262265   3.963   3.887  16.877  0.4713 -0.1814 -0.3796
13617TIP3    H162266   3.943   3.886  16.783 -0.7710  3.2941 -0.2420
13617TIP3    H262267   3.879   3.905  16.919  1.7210  2.6974  1.0523
13618TIP3   OH262268   1.997   6.552  11.714 -0.0499  0.5462  0.3842
13618TIP3    H162269   1.990   6.647  11.724 -1.6435  0.5313 -0.4852
13618TIP3    H262270   1.951   6.517  11.790 -0.7375  0.4712 -0.0642
13619TIP3   OH262271   4.677   0.570   6.486 -0.3931  0.1453 -0.3771
13619TIP3    H162272   4.611   0.626   6.527 -0.2471  1.9164 -2.4487
13619TIP3    H262273   4.628   0.493   6.457 -1.3560  0.9711 -0.9821
13620TIP3   OH262274   3.855   2.340   6.528  0.4911 -0.3466 -0.3404
13620TIP3    H162275   3.922   2.312   6.466  0.0626 -2.3236  0.0556
13620TIP3    H262276   3.773   2.303   6.495  0.0391 -0.2534  0.6372
13621TIP3   OH262277   5.190   0.160  14.734 -0.2803 -0.4283  0.4082
13621TIP3    H162278   5.217   0.181  14.645  0.6703 -0.8585  0.5795
13621TIP3    H262279   5.133   0.232  14.760 -0.0675  0.0115 -0.3308
13622TIP3   OH262280   5.131   0.546  13.249 -0.2259  0.0699  0.5755
13622TIP3    H162281   5.100   0.481  13.311  1.1753 -0.6720  0.5095
13622TIP3    H262282   5.123   0.503  13.163 -1.7773  0.9434  0.2643
13623TIP3   OH262283   3.864   0.701  15.859  0.0952 -0.0346  0.1670
13623TIP3    H162284   3.791   0.641  15.873 -0.3187  1.0485  3.0580
13623TIP3    H262285   3.879   0.700  15.764 -2.9738 -1.0549 -0.3591
13624TIP3   OH262286   4.283   2.382   1.002 -0.6996 -0.1933 -0.0046
13624TIP3    H162287   4.212   2.337   0.956 -2.0185 -0.3813  2.1158
13624TIP3    H262288   4.249   2.394   1.091  1.2395  1.3373  0.5574
13625TIP3   OH262289   3.575   2.696   6.875 -0.1428  0.5149 -0.0683
13625TIP3    H162290   3.481   2.717   6.873  0.1609  1.9290  0.0024
13625TIP3    H262291   3.617   2.773   6.836  0.9831 -0.1761 -0.2316
13626TIP3   OH262292   4.599   4.454  12.770  0.6875  0.5575 -0.3541
13626TIP3    H162293   4.686   4.434  12.735  0.1981 -3.1152  0.3661
13626TIP3    H262294   4.540   4.445  12.696  0.3768 -1.4342  0.1231
13627TIP3   OH262295   4.734   1.855   1.603  0.1984 -0.0490  0.3960
13627TIP3    H162296   4.782   1.850   1.520  0.8218  1.1046  0.6826
13627TIP3    H262297   4.796   1.824   1.669 -0.1891 -0.6555  0.4831
13628TIP3   OH262298   2.561   3.865   3.068 -0.2936  0.5798 -0.0521
13628TIP3    H162299   2.570   3.960   3.070  0.6445  0.4828  1.7227
13628TIP3    H262300   2.485   3.849   3.013 -0.9842  2.3995  0.3531
13629TIP3   OH262301   6.187   0.904  15.509 -0.5317 -0.3204 -0.1439
13629TIP3    H162302   6.153   0.839  15.570  0.6953 -1.9188 -1.1044
13629TIP3    H262303   6.159   0.874  15.423 -2.3843  2.0004 -0.3928
13630TIP3   OH262304   6.322   5.684  13.011 -0.0860 -0.7036  0.0938
13630TIP3    H162305   6.393   5.631  12.976  1.4590  1.9768 -0.9833
13630TIP3    H262306   6.320   5.662  13.104  2.2979 -0.6954  0.1881
13631TIP3   OH262307   3.847   3.887  12.247 -0.3607 -0.7550 -0.0964
13631TIP3    H162308   3.835   3.877  12.153 -1.2170 -0.0779 -0.0589
13631TIP3    H262309   3.761   3.913  12.280  0.0705 -0.4400  0.7992
13632TIP3   OH262310   3.178   4.085  11.701  0.2006  0.1653  0.1109
13632TIP3    H162311   3.206   4.172  11.731  0.3259  0.2489 -0.2428
13632TIP3    H262312   3.241   4.025  11.741 -0.5699  0.1223  1.2948
13633TIP3   OH262313   4.207   3.440   0.365 -0.1099 -0.1722 -0.2428
13633TIP3    H162314   4.285   3.400   0.328  0.6036 -0.7912  1.8228
13633TIP3    H262315   4.137   3.377   0.350  0.5340 -1.1988  0.9734
13634TIP3   OH262316   0.401   0.806   3.528  0.4351 -0.4982 -0.4725
13634TIP3    H162317   0.453   0.826   3.451  0.2639  0.1332 -0.4261
13634TIP3    H262318   0.445   0.853   3.600  0.6837 -1.2048 -0.1606
13635TIP3   OH262319   3.754   4.560  14.606  0.1905  0.1786 -0.1247
13635TIP3    H162320   3.814   4.587  14.536 -0.6795  0.4769 -0.7581
13635TIP3    H262321   3.812   4.545  14.681  1.0922  0.2309 -0.7897
13636TIP3   OH262322   4.893   3.412  16.292  0.0090  0.5547 -0.1552
13636TIP3    H162323   4.865   3.384  16.204 -0.2417 -0.5285  0.2642
13636TIP3    H262324   4.960   3.478  16.275  0.6687 -0.3366 -1.1869
13637TIP3   OH262325   5.189   6.350  13.771 -0.1507  0.8012  0.2548
13637TIP3    H162326   5.248   6.296  13.823  0.2030  1.7089  0.7980
13637TIP3    H262327   5.112   6.362  13.827  0.0741  1.4693  0.4191
13638TIP3   OH262328   0.277   4.507   1.607 -0.2805  0.4826 -0.2848
13638TIP3    H162329   0.224   4.453   1.665 -0.9713  0.2591 -1.1215
13638TIP3    H262330   0.358   4.457   1.595 -0.7600 -0.1843 -0.7484
13639TIP3   OH262331   4.160   3.858   2.239 -0.1006  0.4488 -0.3663
13639TIP3    H162332   4.074   3.866   2.280 -0.7447 -0.7852 -1.4586
13639TIP3    H262333   4.209   3.800   2.297  0.3529  1.9758  0.8038
13640TIP3   OH262334   2.424   4.189   2.827  0.0179  0.1649 -0.1711
13640TIP3    H162335   2.379   4.181   2.911 -1.3143  2.6224 -0.5945
13640TIP3    H262336   2.383   4.122   2.771 -1.7929  1.0390  0.0476
13641TIP3   OH262337   3.487   0.989  12.282  0.7998 -0.0412  0.2139
13641TIP3    H162338   3.483   1.082  12.303  0.0503 -0.3749  1.6451
13641TIP3    H262339   3.528   0.949  12.359 -0.0953 -1.0660  0.1670
13642TIP3   OH262340   2.404   1.381   4.100 -0.2373  0.3920  0.1693
13642TIP3    H162341   2.494   1.348   4.092 -0.0167  1.0685 -0.2424
13642TIP3    H262342   2.410   1.472   4.071 -1.2502  0.1431 -0.8705
13643TIP3   OH262343   4.847   4.599   4.977 -0.0723  0.3796  0.2857
13643TIP3    H162344   4.845   4.601   5.073  0.1512 -1.2418  0.3341
13643TIP3    H262345   4.764   4.559   4.952 -0.8815  2.3245 -0.2843
13644TIP3   OH262346   3.483   6.333  13.031 -0.3457  0.2637 -0.4500
13644TIP3    H162347   3.412   6.389  13.063 -0.7992 -0.6078  0.1156
13644TIP3    H262348   3.541   6.392  12.984 -0.4573  1.3253  0.7164
13645TIP3   OH262349   0.323   4.383   3.206  0.4300 -0.5994  0.1587
13645TIP3    H162350   0.354   4.296   3.230 -0.0801 -0.8422 -0.0555
13645TIP3    H262351   0.379   4.409   3.132 -0.5709 -1.4912 -0.9396
13646TIP3   OH262352   0.452   3.962   1.280 -0.4900  0.0255 -0.0377
13646TIP3    H162353   0.376   3.911   1.252  1.6637 -3.4832  0.1433
13646TIP3    H262354   0.526   3.921   1.236  1.5536  2.0662  1.3501
13647TIP3   OH262355   2.281   4.880  12.732 -0.4915 -0.1210 -0.3680
13647TIP3    H162356   2.307   4.917  12.817  0.4533  1.0160 -1.1425
13647TIP3    H262357   2.214   4.816  12.754 -0.2288  0.1305  1.2547
13648TIP3   OH262358   4.700   6.120  14.223  0.7621 -0.3340 -0.2206
13648TIP3    H162359   4.738   6.196  14.178 -2.6689  1.4549 -0.2907
13648TIP3    H262360   4.712   6.139  14.316  0.8703 -0.2114 -0.2595
13649TIP3   OH262361   5.886   0.104   4.958  0.9832 -0.0386 -0.2165
13649TIP3    H162362   5.847   0.050   5.027  2.4659 -1.1224 -0.1974
13649TIP3    H262363   5.847   0.190   4.971 -0.0442 -0.6401  0.9061
13650TIP3   OH262364   4.088   0.381   1.318  0.6647  0.2358  0.2873
13650TIP3    H162365   4.106   0.472   1.293 -0.5986  0.3373 -0.2882
13650TIP3    H262366   3.998   0.365   1.289  1.5611 -1.8398 -1.4820
13651TIP3   OH262367   3.491   0.118   5.045  0.3370  0.0533  0.2157
13651TIP3    H162368   3.550   0.122   4.970 -0.1334 -0.7119 -0.2030
13651TIP3    H262369   3.421   0.180   5.025 -1.5258 -2.5049 -1.5201
13652TIP3   OH262370   2.229   1.095   3.347  0.0458  0.6290  0.3286
13652TIP3    H162371   2.237   1.191   3.344 -0.7051  0.6883  0.1566
13652TIP3    H262372   2.138   1.078   3.323  0.0528 -0.1063  0.8223
13653TIP3   OH262373   0.109   6.357  14.549 -0.0834 -0.2569  0.1966
13653TIP3    H162374   0.050   6.400  14.611 -0.1591  0.7738 -0.5927
13653TIP3    H262375   0.195   6.393  14.570  0.1012 -0.9349  0.6107
13654TIP3   OH262376   5.268   1.860   4.610  0.3575 -0.1274 -0.0393
13654TIP3    H162377   5.173   1.853   4.618  0.3358 -0.5176 -0.6775
13654TIP3    H262378   5.302   1.786   4.661  0.3006 -0.5054 -0.5538
13655TIP3   OH262379   1.816   5.795   3.563  0.3553  0.0138  0.7507
13655TIP3    H162380   1.896   5.846   3.551  0.5153 -0.6175 -0.9450
13655TIP3    H262381   1.746   5.854   3.535  0.4324 -0.2537 -0.0101
13656TIP3   OH262382   1.191   5.972   4.286  0.1776  0.1508  0.3381
13656TIP3    H162383   1.212   5.973   4.192  1.8682 -1.0934  0.6775
13656TIP3    H262384   1.276   5.971   4.329 -0.5614  2.8144  1.9551
13657TIP3   OH262385   0.287   2.128  14.664  0.5736  0.3590 -0.2554
13657TIP3    H162386   0.255   2.070  14.733  0.6841  1.4227  0.6861
13657TIP3    H262387   0.251   2.214  14.685 -1.4678  0.2288 -2.8908
13658TIP3   OH262388   0.466   2.248  15.942  0.2069 -0.5650 -0.1443
13658TIP3    H162389   0.437   2.337  15.961  1.3615 -0.1375 -0.3846
13658TIP3    H262390   0.396   2.193  15.978  0.5417  0.3603  2.0243
13659TIP3   OH262391   6.201   3.635   1.147  0.5107  0.2851  0.3056
13659TIP3    H162392   6.139   3.690   1.195  0.7126 -0.5152  1.5175
13659TIP3    H262393   6.217   3.561   1.206  2.1474  0.1796 -0.2645
13660TIP3   OH262394   6.089   5.146   6.017 -0.8389  0.3016  0.9417
13660TIP3    H162395   6.118   5.059   6.044  1.7662  0.0473 -2.3092
13660TIP3    H262396   6.150   5.206   6.061 -0.3410  0.2395  0.3465
13661TIP3   OH262397   4.270   6.005   1.317  0.1259  0.0670  0.3313
13661TIP3    H162398   4.259   6.058   1.238  0.8298  0.4197  0.4705
13661TIP3    H262399   4.364   5.992   1.325  0.0943  0.4340  1.3744
13662TIP3   OH262400   6.647   2.545  15.081  0.2674 -1.0301  0.5678
13662TIP3    H162401   6.743   2.547  15.082  0.2555 -0.6176  3.1999
13662TIP3    H262402   6.625   2.453  15.067  1.0487 -1.1482  0.0934
13663TIP3   OH262403   5.533   4.209   1.013 -0.2015 -0.7887 -0.2160
13663TIP3    H162404   5.467   4.178   0.951 -1.5953 -0.1822  0.9401
13663TIP3    H262405   5.517   4.157   1.093  1.1637 -1.1234 -0.1419
13664TIP3   OH262406   6.149   0.255   5.404 -0.1022  0.3706 -0.0664
13664TIP3    H162407   6.171   0.348   5.403 -0.7340  0.6124 -4.6743
13664TIP3    H262408   6.230   0.212   5.430  1.0171  2.1149 -0.5699
13665TIP3   OH262409   4.398   5.832   3.872  0.0507 -0.5276 -0.1235
13665TIP3    H162410   4.401   5.875   3.958  0.9551  2.2202 -1.5041
13665TIP3    H262411   4.318   5.780   3.875 -1.0353  1.1854  1.6025
13666TIP3   OH262412   3.257   6.605   0.380  0.7188 -0.0341 -0.6099
13666TIP3    H162413   3.216   6.678   0.333 -0.2344 -0.0317  0.2217
13666TIP3    H262414   3.233   6.527   0.330 -1.6762 -0.2118  0.7795
13667TIP3   OH262415   4.203   3.407  13.087 -0.1488  0.3218  0.2040
13667TIP3    H162416   4.154   3.418  13.006 -1.0613 -0.2098  0.6749
13667TIP3    H262417   4.204   3.312  13.102  0.8162  0.3392  0.3330
13668TIP3   OH262418   6.302   6.361  16.916  0.1441  0.0051 -0.1696
13668TIP3    H162419   6.224   6.325  16.873  0.2233 -0.1217 -0.2045
13668TIP3    H262420   6.335   6.288  16.969 -2.0108  1.1537  2.9598
13669TIP3   OH262421   1.531   0.465   1.127 -0.0784  0.2706 -0.0815
13669TIP3    H162422   1.438   0.487   1.135  0.1271  1.3562 -0.6786
13669TIP3    H262423   1.539   0.431   1.037  0.0378 -0.1813  0.0961
13670TIP3   OH262424   4.422   4.761  15.239  0.0469  0.0186 -0.1669
13670TIP3    H162425   4.368   4.693  15.279 -0.2136  0.8757  0.9686
13670TIP3    H262426   4.360   4.826  15.207  0.3352  0.3099 -0.1444
13671TIP3   OH262427   1.773   3.506   3.631  0.1526  0.3138 -0.3077
13671TIP3    H162428   1.722   3.469   3.703  1.3112 -1.7033 -0.4698
13671TIP3    H262429   1.855   3.535   3.671  0.8395 -0.8997 -0.7992
13672TIP3   OH262430   2.102   3.143  15.451  0.0035  0.4129  0.1002
13672TIP3    H162431   2.131   3.217  15.397  0.6117  0.5421  0.6066
13672TIP3    H262432   2.020   3.114  15.410  1.2151 -0.4397 -1.7821
13673TIP3   OH262433   1.202   2.816  12.733  0.0766 -0.4762  0.3019
13673TIP3    H162434   1.281   2.839  12.684  0.7367 -0.1883  1.4868
13673TIP3    H262435   1.174   2.733  12.695  0.3977 -0.0949 -0.7754
13674TIP3   OH262436   4.642   5.456  11.299 -0.0821 -0.1340  0.1334
13674TIP3    H162437   4.652   5.482  11.391 -0.8200 -0.9735  0.4549
13674TIP3    H262438   4.548   5.457  11.284 -0.0479 -1.3518 -0.2109
13675TIP3   OH262439   4.426   0.466   0.285 -0.2940 -0.3360  0.3473
13675TIP3    H162440   4.385   0.503   0.207 -0.1320  1.8419  1.2381
13675TIP3    H262441   4.477   0.539   0.321  1.0908 -1.8382  1.4761
13676TIP3   OH262442   3.351   4.716  14.418  0.0313  0.9726 -0.0884
13676TIP3    H162443   3.375   4.676  14.502  3.3153  0.9504 -0.9646
13676TIP3    H262444   3.327   4.642  14.362 -1.5609  0.9391  0.6056
13677TIP3   OH262445   3.952   5.143  16.494 -0.0441  0.6473  0.0191
13677TIP3    H162446   3.972   5.171  16.584 -0.1179  0.8841 -0.0388
13677TIP3    H262447   4.011   5.195  16.439 -1.8058  2.4149 -0.2530
13678TIP3   OH262448   4.172   6.335   3.165  0.3629 -0.5178  0.3226
13678TIP3    H162449   4.235   6.264   3.181  3.2098  2.0244  0.6531
13678TIP3    H262450   4.115   6.333   3.242  0.5005 -2.3086  0.4120
13679TIP3   OH262451   6.660   6.338   6.510  0.1082 -0.3238 -0.5486
13679TIP3    H162452   6.580   6.300   6.473 -1.7606  0.8405  2.1404
13679TIP3    H262453   6.663   6.426   6.473 -0.2903 -0.1052 -0.0708
13680TIP3   OH262454   1.649   6.293   1.321 -0.1869 -0.2233  0.6760
13680TIP3    H162455   1.714   6.310   1.388  0.4642  0.8761 -0.2100
13680TIP3    H262456   1.667   6.358   1.253 -1.4379 -0.6896 -0.1263
13681TIP3   OH262457   1.042   5.390   2.995 -0.4681 -0.4525 -0.1766
13681TIP3    H162458   1.039   5.357   3.085  0.7254 -0.8825 -0.2870
13681TIP3    H262459   0.988   5.469   2.997 -3.2619 -2.3174  0.1113
13682TIP3   OH262460   4.697   3.206   2.771 -0.0025 -0.3479 -0.4833
13682TIP3    H162461   4.716   3.191   2.863  0.4809  0.8735 -0.3759
13682TIP3    H262462   4.604   3.227   2.768  0.1435  0.3479 -0.1815
13683TIP3   OH262463   1.783   5.788   2.859 -0.3927  0.0116 -0.2964
13683TIP3    H162464   1.763   5.696   2.842 -1.8212  0.0467  1.0943
13683TIP3    H262465   1.763   5.833   2.777  0.8214 -0.9705 -1.1588
13684TIP3   OH262466   2.186   1.379   3.017 -0.0240 -0.3794  0.4492
13684TIP3    H162467   2.224   1.350   3.100 -1.5681 -1.7759  0.7243
13684TIP3    H262468   2.187   1.300   2.962  0.5216  0.4069 -0.6790
13685TIP3   OH262469   1.387   3.938  11.186 -0.2829 -0.0427 -0.0461
13685TIP3    H162470   1.300   3.900  11.182 -0.3947  0.2919 -0.8653
13685TIP3    H262471   1.443   3.875  11.141 -0.4545  0.6971 -1.3311
13686TIP3   OH262472   4.022   6.354  14.538 -0.0816  0.0516 -0.7258
13686TIP3    H162473   3.977   6.308  14.468  0.6702  0.0201 -1.1876
13686TIP3    H262474   4.067   6.285  14.587  0.0254  0.1585 -0.6736
13687TIP3   OH262475   1.084   5.726  16.159 -0.3511  0.4898  0.6835
13687TIP3    H162476   1.087   5.770  16.074  1.5457 -0.6439  0.1418
13687TIP3    H262477   0.991   5.705  16.171 -0.4732 -0.5146 -1.7284
13688TIP3   OH262478   4.418   6.176   1.619 -0.8056  0.3363  0.0018
13688TIP3    H162479   4.404   6.144   1.708 -0.4826 -0.4987 -0.2386
13688TIP3    H262480   4.508   6.151   1.599 -1.1665 -0.2777 -0.8837
13689TIP3   OH262481   0.482   3.390  16.647  0.1191 -0.7844  0.4804
13689TIP3    H162482   0.540   3.463  16.625 -0.6349 -0.3272 -0.0064
13689TIP3    H262483   0.540   3.323  16.684  1.0920 -0.7135 -0.8980
13690TIP3   OH262484   4.555   2.360   4.585  0.8611 -0.1600 -0.1995
13690TIP3    H162485   4.647   2.366   4.559  0.4572 -1.1159 -1.9085
13690TIP3    H262486   4.506   2.388   4.508 -0.2852  1.2492  1.0047
13691TIP3   OH262487   5.223   5.060  10.489 -0.3279 -0.3074  0.1601
13691TIP3    H162488   5.230   5.121  10.563 -0.5200  0.6953 -0.6353
13691TIP3    H262489   5.140   5.084  10.447 -0.3658 -1.0739 -0.2062
13692TIP3   OH262490   2.892   1.102  16.268 -0.5559  0.4916  0.3818
13692TIP3    H162491   2.826   1.042  16.233 -1.2671 -0.3381  3.0547
13692TIP3    H262492   2.950   1.046  16.319  0.7744  1.6115  0.1342
13693TIP3   OH262493   4.563   3.215  16.267 -0.4737  0.0826 -0.4358
13693TIP3    H162494   4.468   3.219  16.272 -0.3434  1.4369  1.2641
13693TIP3    H262495   4.592   3.306  16.277  1.0651 -0.5186  0.7914
13694TIP3   OH262496   3.653   2.025  14.017  0.2292  0.3048  0.2217
13694TIP3    H162497   3.695   1.954  14.065 -1.0418  0.1394  1.1239
13694TIP3    H262498   3.561   2.021  14.043  0.1380  2.3058  0.3244
13695TIP3   OH262499   2.451   3.521  13.073  0.4226 -0.4751  0.2768
13695TIP3    H162500   2.426   3.529  12.981 -0.4478  0.2322  0.5640
13695TIP3    H262501   2.526   3.461  13.073  0.4670 -0.4253 -0.8921
13696TIP3   OH262502   4.380   4.778  14.704  0.3222  0.0319 -0.3656
13696TIP3    H162503   4.354   4.797  14.614 -1.7093 -1.2439 -0.0899
13696TIP3    H262504   4.335   4.844  14.756  0.2472 -0.1834 -0.1556
13697TIP3   OH262505   3.575   2.567  13.118  0.2213  0.4585  0.1992
13697TIP3    H162506   3.484   2.537  13.124 -0.5543  2.8214  1.2036
13697TIP3    H262507   3.593   2.605  13.204  1.6855  1.2569 -0.4382
13698TIP3   OH262508   6.092   4.199  10.900  0.1556 -0.0642  0.5720
13698TIP3    H162509   6.006   4.157  10.900  0.0830  0.0814  0.3965
13698TIP3    H262510   6.094   4.249  10.818 -0.3236  1.3912  1.4341
13699TIP3   OH262511   2.239   2.092   4.512 -0.6093  0.5101  0.0635
13699TIP3    H162512   2.322   2.066   4.472 -1.7538 -1.1142 -1.3714
13699TIP3    H262513   2.212   2.016   4.563 -1.6992  0.6340 -0.3093
13700TIP3   OH262514   4.781   0.444  15.733  1.0060 -0.0621 -0.2136
13700TIP3    H162515   4.841   0.425  15.805  1.3938  1.1071 -0.2058
13700TIP3    H262516   4.822   0.518  15.687 -0.3148  0.6016 -0.3533
13701TIP3   OH262517   1.547   0.222   0.541 -0.4102 -0.1950 -0.2577
13701TIP3    H162518   1.601   0.229   0.619 -2.0986 -0.8781  1.0213
13701TIP3    H262519   1.515   0.132   0.542 -1.0017 -0.0105 -1.3445
13702TIP3   OH262520   3.311   5.080   4.986  0.0016 -0.6731 -0.3089
13702TIP3    H162521   3.303   4.985   4.987 -0.6392 -0.6056  1.2595
13702TIP3    H262522   3.404   5.096   4.970  0.2084 -1.5623 -0.0030
13703TIP3   OH262523   4.368   1.663   5.694 -0.3825  0.0884 -0.3437
13703TIP3    H162524   4.293   1.707   5.656  1.6747  0.8849 -3.7001
13703TIP3    H262525   4.406   1.728   5.754 -0.0573  1.2101 -1.7355
13704TIP3   OH262526   5.587   5.951   3.570 -0.0658  0.0534  0.3455
13704TIP3    H162527   5.499   5.966   3.604  0.1593 -0.6555  1.2678
13704TIP3    H262528   5.644   5.969   3.645  0.5930  0.7645 -0.3227
13705TIP3   OH262529   3.380   2.882  13.497  0.1472  0.4647 -0.4284
13705TIP3    H162530   3.314   2.952  13.490 -0.7558 -0.0769  2.0079
13705TIP3    H262531   3.456   2.915  13.450 -0.1960  3.2222  0.8645
13706TIP3   OH262532   4.910   3.633   1.804  0.3627 -0.0195 -0.0682
13706TIP3    H162533   4.892   3.716   1.759  2.2611  1.1412  1.2089
13706TIP3    H262534   4.964   3.584   1.742  1.0248  0.6125 -0.0084
13707TIP3   OH262535   2.766   2.152   3.325  0.0747  0.4032  0.6878
13707TIP3    H162536   2.796   2.210   3.395  2.7307 -0.4574  0.3393
13707TIP3    H262537   2.770   2.206   3.246  1.3268  0.1451  0.5582
13708TIP3   OH262538   0.851   6.277  12.075 -0.7540 -0.0836  0.4485
13708TIP3    H162539   0.852   6.372  12.085  2.0083 -0.2191  1.9098
13708TIP3    H262540   0.808   6.245  12.154 -2.9208 -0.0327 -0.6706
13709TIP3   OH262541   4.095   5.857  10.820 -0.3521  0.1336 -0.5446
13709TIP3    H162542   4.057   5.940  10.791 -0.2000 -0.1581 -1.6200
13709TIP3    H262543   4.165   5.882  10.881  0.7237  0.8710 -2.0519
13710TIP3   OH262544   6.028   3.507  15.729  0.3350 -0.4376 -0.3938
13710TIP3    H162545   5.974   3.556  15.791 -0.3673 -0.4557 -0.9791
13710TIP3    H262546   5.992   3.530  15.643  0.9264 -0.8610 -0.7561
13711TIP3   OH262547   4.495   3.201  12.579  0.7605 -0.1592 -0.1811
13711TIP3    H162548   4.560   3.226  12.644 -0.0767  1.2899  0.1249
13711TIP3    H262549   4.545   3.163  12.507  2.0112  1.6805 -0.2984
13712TIP3   OH262550   3.944   6.755  15.090  0.1132 -0.2380  0.0379
13712TIP3    H162551   3.857   6.715  15.084 -0.1339  0.0873  1.3899
13712TIP3    H262552   3.990   6.703  15.156  0.4889  0.4494  0.3138
13713TIP3   OH262553   5.716   0.755   3.782  0.1269  0.1774 -0.1097
13713TIP3    H162554   5.647   0.690   3.768  0.7873 -0.3086 -1.2264
13713TIP3    H262555   5.783   0.708   3.832  1.0435 -0.3396 -1.7564
13714TIP3   OH262556   1.601   5.908  16.603 -0.2001  0.1605  0.0385
13714TIP3    H162557   1.641   5.822  16.616 -0.3304  0.2148  0.7649
13714TIP3    H262558   1.517   5.903  16.647 -0.4543  0.4783 -0.3946
13715TIP3   OH262559   2.444   3.365  11.855 -0.2553 -0.3500  0.3039
13715TIP3    H162560   2.409   3.338  11.771 -0.1286  2.8024 -0.8157
13715TIP3    H262561   2.421   3.458  11.863  0.3264 -0.3912  3.4272
13716TIP3   OH262562   5.641   0.612  11.914 -0.2449  1.3016 -0.1010
13716TIP3    H162563   5.578   0.624  11.986 -1.1542  0.1104 -0.6850
13716TIP3    H262564   5.655   0.518  11.910  1.5251  1.5362 -0.0495
13717TIP3   OH262565   5.666   2.793   2.073 -0.0217  0.1290 -0.1581
13717TIP3    H162566   5.701   2.874   2.035 -0.4708  1.5205  2.2964
13717TIP3    H262567   5.648   2.816   2.164 -1.2980 -2.4151  0.2480
13718TIP3   OH262568   2.556   6.482   6.408 -0.0900  0.5668 -0.5615
13718TIP3    H162569   2.478   6.504   6.459 -0.5275  2.7206 -2.1108
13718TIP3    H262570   2.589   6.567   6.377  1.1388 -0.5610 -2.4187
13719TIP3   OH262571   5.856   2.047  12.618 -0.1679 -0.7292 -0.6269
13719TIP3    H162572   5.930   2.001  12.657  0.7893  0.6145 -0.7861
13719TIP3    H262573   5.779   1.994  12.639  0.3753 -0.3063  2.6602
13720TIP3   OH262574   3.605   4.778  15.934  0.2929  0.1225  0.4737
13720TIP3    H162575   3.549   4.854  15.950  0.4691  0.4884 -0.6013
13720TIP3    H262576   3.620   4.779  15.840  1.0200 -0.7464  0.5754
13721TIP3   OH262577   2.077   6.581   0.931 -0.4955  0.3221 -0.1843
13721TIP3    H162578   2.096   6.492   0.902  0.3943  0.2856  0.4526
13721TIP3    H262579   2.113   6.585   1.020  1.5808  1.9979 -1.0371
13722TIP3   OH262580   1.943   3.368  15.864 -0.3697  0.1796 -0.4906
13722TIP3    H162581   1.932   3.454  15.824  0.1270  0.4919  0.0264
13722TIP3    H262582   1.948   3.386  15.958  1.3515 -0.2471 -0.4859
13723TIP3   OH262583   5.769   1.266   4.028  0.3261  0.2189  0.0842
13723TIP3    H162584   5.790   1.239   4.118  2.0146  0.2087 -0.2962
13723TIP3    H262585   5.725   1.190   3.990  0.8771 -0.2993  0.4647
13724TIP3   OH262586   0.383   6.560  10.567  0.0872 -0.4154 -0.2843
13724TIP3    H162587   0.335   6.550  10.649  2.3046 -1.2903  0.9364
13724TIP3    H262588   0.324   6.610  10.511 -2.6959 -2.3770  0.7840
13725TIP3   OH262589   2.563   3.121   5.339 -0.0545  0.5535  0.4497
13725TIP3    H162590   2.606   3.102   5.422  1.4662  5.8806  1.0848
13725TIP3    H262591   2.629   3.101   5.273  1.4306  3.2451  1.0652
13726TIP3   OH262592   5.108   4.946   5.180  0.1008  0.2168 -0.3619
13726TIP3    H162593   5.068   4.914   5.099  1.9732  0.1538 -1.2873
13726TIP3    H262594   5.123   5.039   5.163 -0.0769  0.3336  0.1393
13727TIP3   OH262595   2.631   1.309   0.456 -0.4901 -0.5086  0.6945
13727TIP3    H162596   2.650   1.216   0.441  2.5538  0.2134 -0.2244
13727TIP3    H262597   2.620   1.316   0.551  2.2408 -1.3282  1.1035
13728TIP3   OH262598   1.908   3.160   6.351  0.1457  0.5539 -0.0518
13728TIP3    H162599   1.848   3.173   6.425 -0.5660  0.3748 -0.5947
13728TIP3    H262600   1.856   3.114   6.286  1.2289 -0.6991 -0.0481
13729TIP3   OH262601   0.344   2.019  11.356 -0.2576 -0.4322 -0.1313
13729TIP3    H162602   0.421   2.060  11.397 -1.1228 -0.1872  1.2914
13729TIP3    H262603   0.300   2.091  11.312  0.2689 -0.5522 -0.8572
13730TIP3   OH262604   4.551   2.802   3.518  0.5632  0.1032 -0.4406
13730TIP3    H162605   4.535   2.863   3.446  0.2616  0.1404 -0.3424
13730TIP3    H262606   4.488   2.827   3.586  0.5905 -0.1722 -0.3122
13731TIP3   OH262607   0.371   0.900  10.731 -0.1586 -0.3057  0.3678
13731TIP3    H162608   0.446   0.850  10.700  0.4002 -1.1452  2.9799
13731TIP3    H262609   0.402   0.991  10.736  0.6480 -0.6268  1.2865
13732TIP3   OH262610   5.957   2.199  16.412  0.2136  0.0453 -0.6351
13732TIP3    H162611   5.944   2.221  16.505 -0.3340 -0.0873 -0.6747
13732TIP3    H262612   6.016   2.267  16.379 -1.4206  1.4602 -0.7466
13733TIP3   OH262613   5.199   4.435   5.101 -0.1248 -0.2654 -0.2870
13733TIP3    H162614   5.243   4.455   5.184  1.8023 -1.7565 -0.9012
13733TIP3    H262615   5.113   4.402   5.127 -0.6366  1.9494  0.9823
13734TIP3   OH262616   6.183   3.541   3.645 -0.2291  0.3214 -0.1138
13734TIP3    H162617   6.091   3.556   3.622 -0.3056  0.8266  0.4875
13734TIP3    H262618   6.233   3.583   3.576 -0.4549  0.9903  0.1205
13735TIP3   OH262619   1.213   1.404  16.649  0.1690 -0.0454  0.9217
13735TIP3    H162620   1.291   1.432  16.697  0.2433 -1.0591  1.4121
13735TIP3    H262621   1.144   1.463  16.678  1.3984  2.8391 -1.7887
13736TIP3   OH262622   5.085   4.678   2.628 -0.4208  0.3930 -0.2066
13736TIP3    H162623   4.995   4.670   2.595 -0.6204  0.0853  0.4018
13736TIP3    H262624   5.082   4.637   2.715  0.8378 -1.6905 -1.1199
13737TIP3   OH262625   5.202   5.705  13.977 -0.4738 -0.4275  1.0050
13737TIP3    H162626   5.174   5.790  13.944  0.5185 -0.3961  0.1901
13737TIP3    H262627   5.122   5.653  13.982 -1.0716  0.5325  1.4517
13738TIP3   OH262628   1.519   2.476   2.252  0.1475  0.2122 -0.0258
13738TIP3    H162629   1.508   2.451   2.160  0.6357  0.1374 -0.0629
13738TIP3    H262630   1.611   2.498   2.260  0.0706  0.3760  0.4111
13739TIP3   OH262631   3.886   4.066   2.668  0.7371 -0.6968  0.3736
13739TIP3    H162632   3.892   4.155   2.633  1.6917 -1.1591 -0.6625
13739TIP3    H262633   3.831   4.075   2.746 -0.9289  0.4600 -0.8863
13740TIP3   OH262634   0.412   0.796   5.643  0.0381 -0.1361  0.1868
13740TIP3    H162635   0.335   0.805   5.700  0.1616 -2.3896  0.7360
13740TIP3    H262636   0.395   0.717   5.592  1.9041 -0.5409  0.1725
13741TIP3   OH262637   3.096   5.164   4.309 -0.1464 -0.1778 -0.1381
13741TIP3    H162638   3.061   5.158   4.398 -0.4434  0.6578 -0.1916
13741TIP3    H262639   3.026   5.205   4.259  0.4573  0.3993 -0.5085
13742TIP3   OH262640   3.128   6.238  15.575 -0.2011  0.7070 -0.1914
13742TIP3    H162641   3.037   6.254  15.550 -0.3115  1.4652  0.6211
13742TIP3    H262642   3.152   6.317  15.625  1.1965  0.9310 -1.1986
13743TIP3   OH262643   6.419   2.242  10.720  0.1898  0.5577  0.0807
13743TIP3    H162644   6.492   2.272  10.775  2.4718 -3.3528 -0.5924
13743TIP3    H262645   6.370   2.182  10.776 -0.2403  0.1855 -0.6839
13744TIP3   OH262646   0.015   3.325  15.685 -0.6957 -0.3507 -0.1557
13744TIP3    H162647  -0.009   3.237  15.656  0.4908 -0.8021  0.1847
13744TIP3    H262648  -0.064   3.359  15.727 -0.6959 -1.8468  1.0955
13745TIP3   OH262649   2.588   3.404  14.123  0.5260 -0.0905  0.8223
13745TIP3    H162650   2.646   3.429  14.195 -0.0288 -0.3487  1.3653
13745TIP3    H262651   2.555   3.317  14.148  2.5784 -1.4537 -1.1263
13746TIP3   OH262652   3.203   5.958   5.055 -0.6184 -0.2282  0.0515
13746TIP3    H162653   3.164   6.030   5.104  0.5529  0.4926 -0.0753
13746TIP3    H262654   3.130   5.898   5.039 -1.7309  1.2348 -0.4088
13747TIP3   OH262655   0.375   2.106  17.142 -0.3708  0.3766 -0.0040
13747TIP3    H162656   0.313   2.035  17.125  0.7137 -0.2986 -1.2156
13747TIP3    H262657   0.384   2.108  17.237 -0.2009 -1.2910  0.0248
13748TIP3   OH262658   1.169   0.325  15.878  0.6050 -0.2251 -0.0782
13748TIP3    H162659   1.250   0.323  15.928  0.4134  1.0909  0.3082
13748TIP3    H262660   1.197   0.326  15.786  1.0037 -0.6124  0.0411
13749TIP3   OH262661   0.020   0.307   6.165 -0.9029 -0.3029 -0.2327
13749TIP3    H162662  -0.054   0.285   6.221  0.3440  0.1500  1.6268
13749TIP3    H262663   0.097   0.298   6.221  0.4277 -0.2595 -1.9825
13750TIP3   OH262664   1.478   1.583  12.594  0.0536 -0.2336  0.2738
13750TIP3    H162665   1.413   1.616  12.533 -0.2006  1.5875  1.5003
13750TIP3    H262666   1.537   1.530  12.540 -0.2018  1.2948 -1.5358
13751TIP3   OH262667   1.208   3.579   2.678  0.2991  0.4676  0.4234
13751TIP3    H162668   1.295   3.618   2.666  0.3256  0.6383  1.1435
13751TIP3    H262669   1.150   3.655   2.690 -0.1523  0.4161 -1.2298
13752TIP3   OH262670   5.882   3.443   4.275 -0.2401 -0.6210 -0.1718
13752TIP3    H162671   5.910   3.374   4.335  0.9779 -1.1385 -1.3025
13752TIP3    H262672   5.884   3.402   4.189 -0.2608  0.6108 -0.7650
13753TIP3   OH262673   5.602   2.860   5.974  0.0281  0.2118  0.4914
13753TIP3    H162674   5.656   2.781   5.967  0.5912  0.6797 -0.4927
13753TIP3    H262675   5.512   2.828   5.967  0.1553 -0.5773  2.1917
13754TIP3   OH262676   2.837   6.223   3.188 -0.3239  0.1534  0.0302
13754TIP3    H162677   2.798   6.305   3.220 -0.6661 -0.0760  0.1996
13754TIP3    H262678   2.830   6.163   3.262 -4.3718 -1.5100 -1.5584
13755TIP3   OH262679   5.683   3.486   3.941 -0.2252 -0.6693  0.0220
13755TIP3    H162680   5.656   3.406   3.986 -0.9621 -0.9975 -0.9963
13755TIP3    H262681   5.726   3.538   4.009  1.5560 -2.5317  0.4032
13756TIP3   OH262682   6.081   2.473  13.905 -0.4407 -0.1238  0.4133
13756TIP3    H162683   6.160   2.443  13.950  0.1443  0.8553  0.0427
13756TIP3    H262684   6.084   2.569  13.912 -0.9498 -0.0222 -0.6817
13757TIP3   OH262685   3.176   1.178  15.417  0.3118  0.3237 -0.2664
13757TIP3    H162686   3.226   1.257  15.437 -0.0370 -0.1514  2.7117
13757TIP3    H262687   3.240   1.107  15.424 -0.2079 -0.0301  0.9178
13758TIP3   OH262688   3.821   0.210  12.799 -0.3380  0.2145 -0.3351
13758TIP3    H162689   3.888   0.178  12.738  2.1684 -0.4433  2.6364
13758TIP3    H262690   3.770   0.132  12.822 -1.4083  0.4977 -1.6724
13759TIP3   OH262691   4.524   2.948  15.497 -0.1830  0.5444  0.1308
13759TIP3    H162692   4.610   2.911  15.514  0.0046  1.2446  0.7176
13759TIP3    H262693   4.530   3.039  15.526 -1.8677 -0.0579  2.6239
13760TIP3   OH262694   6.321   0.737  12.103  0.1600  0.4839 -0.6430
13760TIP3    H162695   6.408   0.748  12.140 -0.1895 -0.2054  0.4262
13760TIP3    H262696   6.335   0.734  12.008  1.4001 -0.5024 -0.4448
13761TIP3   OH262697   3.643   0.005   3.911  0.2949 -0.4256  0.1543
13761TIP3    H162698   3.687   0.088   3.896  1.6948 -1.0718  0.6030
13761TIP3    H262699   3.555   0.029   3.941 -0.1857  0.8781 -2.2034
13762TIP3   OH262700   2.079   2.637  12.447 -0.0699  0.3353 -0.1348
13762TIP3    H162701   2.090   2.542  12.437  0.1937  0.3712 -0.1815
13762TIP3    H262702   2.164   2.674  12.423  0.0048  0.5455  0.4481
13763TIP3   OH262703   3.649   1.410   4.676 -0.2484 -0.0262 -0.0360
13763TIP3    H162704   3.580   1.417   4.610  0.3343 -0.9509 -0.7533
13763TIP3    H262705   3.666   1.317   4.684 -0.6925  0.0281  1.8471
13764TIP3   OH262706   6.580   3.377  15.836 -0.2787  0.3295 -0.6066
13764TIP3    H162707   6.512   3.387  15.769 -0.4104 -3.2909 -1.1119
13764TIP3    H262708   6.532   3.351  15.915  0.3289 -0.0713 -0.3673
13765TIP3   OH262709   0.486   0.628   1.934  0.5320 -0.1613  0.5739
13765TIP3    H162710   0.515   0.544   1.968  2.2059  0.1971  0.1028
13765TIP3    H262711   0.458   0.610   1.844 -0.6188 -0.4902  0.9929
13766TIP3   OH262712   1.460   6.726  11.582  0.2887 -0.2709 -0.1619
13766TIP3    H162713   1.374   6.755  11.612  1.3038  1.2374  1.3433
13766TIP3    H262714   1.471   6.639  11.620  0.5086  0.6048  1.7925
13767TIP3   OH262715   2.045   2.195  11.592  0.8403 -0.4661  0.4049
13767TIP3    H162716   1.959   2.159  11.571  1.7631 -0.8598 -2.9953
13767TIP3    H262717   2.028   2.284  11.622 -0.6787 -0.0205 -1.7009
13768TIP3   OH262718   3.988   6.219  12.975  0.6787  0.9534 -0.0596
13768TIP3    H162719   4.045   6.246  13.047  0.6297 -0.1539  0.4007
13768TIP3    H262720   4.021   6.132  12.950  0.1150  0.9386 -0.7685
13769TIP3   OH262721   6.200   6.443   3.832  0.6544 -0.4596  0.7125
13769TIP3    H162722   6.166   6.484   3.753  2.0227 -0.2455  0.2424
13769TIP3    H262723   6.283   6.487   3.849  0.3554 -0.4711  2.2913
13770TIP3   OH262724   3.209   4.773  16.892  0.2414 -0.1542  0.4883
13770TIP3    H162725   3.168   4.822  16.821 -0.1531  1.4594  1.7850
13770TIP3    H262726   3.180   4.683  16.879  1.5568 -0.2233 -2.3638
13771TIP3   OH262727   6.215   2.356   2.126  0.3587 -0.2100 -0.6941
13771TIP3    H162728   6.208   2.359   2.221 -0.2472  0.6355 -0.7547
13771TIP3    H262729   6.262   2.275   2.107  0.2228 -0.5232  0.3088
13772TIP3   OH262730   5.754   1.730  11.956  0.0916  0.1677  0.0035
13772TIP3    H162731   5.771   1.713  12.049 -0.5286 -2.2107 -0.2801
13772TIP3    H262732   5.841   1.724  11.914  0.3805  1.3141  0.4243
13773TIP3   OH262733   5.745   2.466  13.670 -0.7188  0.0247 -0.3067
13773TIP3    H162734   5.732   2.372  13.658 -0.7261  0.0657 -0.6395
13773TIP3    H262735   5.682   2.491  13.737  1.6651 -0.8563  2.3748
13774TIP3   OH262736   2.562   5.411   4.515  0.5640 -0.2974 -0.2506
13774TIP3    H162737   2.530   5.471   4.582 -0.8443  0.3959 -1.5112
13774TIP3    H262738   2.483   5.375   4.475  1.3789 -0.7365 -1.5095
13775TIP3   OH262739   1.743   0.584   0.850 -0.7530 -0.1975 -0.6396
13775TIP3    H162740   1.680   0.578   0.779 -0.6615 -2.1831 -0.5852
13775TIP3    H262741   1.804   0.511   0.835  1.8079  1.9047 -0.9501
13776TIP3   OH262742   2.387   0.824  12.118  0.1897 -0.4737 -0.5454
13776TIP3    H162743   2.311   0.782  12.077  0.7416 -0.8879 -1.1455
13776TIP3    H262744   2.416   0.762  12.185 -0.4625  0.0239  0.2123
13777TIP3   OH262745   6.357   2.362   5.014  0.6557  0.9378 -0.4437
13777TIP3    H162746   6.301   2.323   5.081  1.8057 -0.6711 -0.3855
13777TIP3    H262747   6.341   2.456   5.021 -0.4271  0.6634  1.0046
13778TIP3   OH262748   1.850   2.447   3.541 -0.7489 -0.2532 -0.2076
13778TIP3    H162749   1.933   2.400   3.536 -0.6550 -0.0640 -0.4937
13778TIP3    H262750   1.788   2.384   3.578  0.1187  0.4343  2.5389
13779TIP3   OH262751   2.624   5.358   5.628 -0.1785 -0.6446 -0.6461
13779TIP3    H162752   2.573   5.416   5.571  0.5816  2.1217  1.3229
13779TIP3    H262753   2.613   5.397   5.715  1.2159 -2.9438  0.5905
13780TIP3   OH262754   3.529   2.224  12.324  0.0987  0.0463 -0.1745
13780TIP3    H162755   3.474   2.161  12.369  0.5936  0.3194  0.8162
13780TIP3    H262756   3.617   2.208  12.359  0.2198  1.3078  0.1088
13781TIP3   OH262757   4.758   5.682   4.126  0.4318 -0.6477 -0.0203
13781TIP3    H162758   4.839   5.689   4.075  0.5341  1.1703  0.3536
13781TIP3    H262759   4.704   5.754   4.094 -0.0803 -0.3838  1.4265
13782TIP3   OH262760   6.028   5.369  11.270 -0.6845 -0.4603 -0.3194
13782TIP3    H162761   5.950   5.346  11.221 -0.3510 -0.5473 -0.8124
13782TIP3    H262762   6.077   5.426  11.211 -1.1789  0.9621  0.6151
13783TIP3   OH262763   2.097   1.106  14.501  0.2462 -0.0872 -0.2593
13783TIP3    H162764   2.047   1.172  14.452  0.7830  0.2700 -0.3323
13783TIP3    H262765   2.118   1.149  14.584 -0.2869 -0.5359  0.1119
13784TIP3   OH262766   4.609   2.183  16.055  0.6533 -0.3282 -0.1122
13784TIP3    H162767   4.516   2.208  16.054 -0.0091 -2.6786 -1.5474
13784TIP3    H262768   4.612   2.104  16.109  2.2527  1.0817  1.9652
13785TIP3   OH262769   6.108   2.338   1.163  0.5597 -1.0507  0.6731
13785TIP3    H162770   6.077   2.384   1.085 -0.3928 -0.9539  1.0965
13785TIP3    H262771   6.080   2.394   1.236  1.1448 -1.3112  1.1004
13786TIP3   OH262772   1.667   6.504   4.358 -0.1131 -0.5237  0.4362
13786TIP3    H162773   1.622   6.457   4.429 -1.6123 -1.0339 -0.8095
13786TIP3    H262774   1.650   6.596   4.377 -1.8111 -0.7067 -0.0505
13787TIP3   OH262775   3.703   4.986   3.381 -0.2991  0.3068  0.0288
13787TIP3    H162776   3.662   5.061   3.339 -0.4473 -1.0500 -2.3345
13787TIP3    H262777   3.726   4.928   3.309  1.8330 -0.9237  1.6410
13788TIP3   OH262778   4.152   3.435   1.624  0.2336  0.2113 -0.3124
13788TIP3    H162779   4.241   3.452   1.655 -0.5101  0.6190  1.7477
13788TIP3    H262780   4.134   3.506   1.563  0.7015  1.1928  0.6593
13789TIP3   OH262781   6.424   6.368   2.463  0.0903  0.5980 -0.0572
13789TIP3    H162782   6.330   6.351   2.462  0.0043  0.9772  0.6305
13789TIP3    H262783   6.443   6.412   2.380  0.1479 -1.9577 -1.4117
13790TIP3   OH262784   0.099   6.495   1.969  0.6470 -0.1800 -0.0641
13790TIP3    H162785   0.083   6.523   2.059 -0.6149 -0.7305 -0.1050
13790TIP3    H262786   0.081   6.401   1.969 -0.0520 -0.0619 -1.0426
13791TIP3   OH262787   1.356   5.478   2.552  0.2592 -0.8007 -0.0316
13791TIP3    H162788   1.424   5.439   2.608  0.9765  1.9667  1.0747
13791TIP3    H262789   1.352   5.420   2.476  2.6572 -1.9526  0.6659
13792TIP3   OH262790   0.830   1.219  14.354  0.1451  0.2901 -0.2377
13792TIP3    H162791   0.805   1.255  14.440  0.2143 -1.9057  0.7483
13792TIP3    H262792   0.749   1.182  14.319  0.4502 -0.3062 -0.3354
13793TIP3   OH262793   6.552   1.994   3.314 -0.3699  0.2532  0.2285
13793TIP3    H162794   6.502   1.981   3.394  1.0116 -0.0832  1.0583
13793TIP3    H262795   6.641   1.969   3.337  0.6038  2.7364 -0.6464
13794TIP3   OH262796   3.243   0.691  13.391 -0.1217  0.1531 -0.3123
13794TIP3    H162797   3.176   0.641  13.437 -2.0971  0.9134 -2.2377
13794TIP3    H262798   3.205   0.779  13.381  2.4338  1.5011  1.2058
13795TIP3   OH262799   2.990   1.115   0.447  0.1307 -0.2515 -0.2917
13795TIP3    H162800   3.024   1.080   0.364  0.5439  0.9116 -0.6248
13795TIP3    H262801   3.062   1.102   0.509  0.2647 -0.0383 -0.4020
13796TIP3   OH262802   5.566   3.845  11.382 -0.3661 -0.0778  0.0521
13796TIP3    H162803   5.484   3.818  11.340 -1.3569 -0.5824  2.2457
13796TIP3    H262804   5.538   3.899  11.456  1.3422  0.4406  0.3459
13797TIP3   OH262805   5.609   2.547   1.992  0.1190  0.2469  0.2129
13797TIP3    H162806   5.632   2.556   1.900  0.0286  0.0215  0.1664
13797TIP3    H262807   5.628   2.632   2.031 -2.1375  1.1436 -0.5258
13798TIP3   OH262808   2.089   1.936  11.674 -0.5381  0.4204 -0.6652
13798TIP3    H162809   2.106   2.029  11.693 -0.3056  0.5136 -1.3348
13798TIP3    H262810   2.127   1.890  11.749 -0.3507  0.8430 -0.4945
13799TIP3   OH262811   2.712   1.612  13.462 -0.2148  0.2040 -0.5091
13799TIP3    H162812   2.720   1.556  13.384  2.4053 -1.1497  0.6630
13799TIP3    H262813   2.650   1.566  13.518  1.2568 -1.1322  0.0693
13800TIP3   OH262814   4.621   0.507   4.628  0.3771 -0.0782 -0.0825
13800TIP3    H162815   4.697   0.452   4.612 -0.1211 -0.9316  0.4335
13800TIP3    H262816   4.549   0.445   4.642  0.0148  0.6655  1.5484
13801TIP3   OH262817   0.694   5.122   4.766  0.0344  0.5471  0.1764
13801TIP3    H162818   0.645   5.110   4.684 -1.7364  0.3762  1.2407
13801TIP3    H262819   0.658   5.202   4.804  1.9248  1.4666  0.0599
13802TIP3   OH262820   2.601   5.034  14.562  0.0138 -0.0327  0.4760
13802TIP3    H162821   2.512   5.001  14.549  0.6565 -1.3376 -0.7215
13802TIP3    H262822   2.643   5.024  14.477  1.7736 -0.8737  1.4162
13803TIP3   OH262823   5.915   5.491   3.182  0.0738 -0.5127 -0.0311
13803TIP3    H162824   5.840   5.511   3.238 -0.4514 -1.9393 -0.2004
13803TIP3    H262825   5.880   5.492   3.093  0.3885 -0.5294 -0.1555
13804TIP3   OH262826   1.486   5.886  15.367  0.3325 -0.0035 -0.4244
13804TIP3    H162827   1.492   5.858  15.276  1.3006  0.0056 -0.3706
13804TIP3    H262828   1.532   5.970  15.370 -0.5816  0.4877 -0.1323
13805TIP3   OH262829   3.539   2.436   0.459 -0.3608 -0.4641 -0.3538
13805TIP3    H162830   3.491   2.381   0.397  0.7327 -2.0724  0.2145
13805TIP3    H262831   3.473   2.464   0.522 -0.9139 -1.1185 -0.6340
13806TIP3   OH262832   5.423   0.317  11.028  0.1057  0.2097 -0.2997
13806TIP3    H162833   5.449   0.231  11.061 -1.3196 -0.0913  0.0762
13806TIP3    H262834   5.327   0.317  11.032  0.0868  1.8931 -0.0884
13807TIP3   OH262835   0.693   1.514  15.739  0.5222  0.3583  0.4124
13807TIP3    H162836   0.711   1.589  15.797  2.0940 -0.5294  1.1234
13807TIP3    H262837   0.598   1.514  15.728  0.3081  1.2293  2.0939
13808TIP3   OH262838   3.459   3.193   4.733 -0.1160 -0.7445 -0.0808
13808TIP3    H162839   3.541   3.175   4.688 -1.2651 -1.1142 -2.0913
13808TIP3    H262840   3.444   3.287   4.718 -1.3712 -1.2228 -2.0312
13809TIP3   OH262841   6.201   4.376  15.172  0.2125 -0.1326  0.3171
13809TIP3    H162842   6.120   4.400  15.126 -0.1037 -2.1401 -0.2145
13809TIP3    H262843   6.257   4.339  15.103  0.9118 -0.3354  0.9955
13810TIP3   OH262844   4.044   6.745   1.568 -0.3717 -0.5661  0.0294
13810TIP3    H162845   4.079   6.812   1.508 -0.0062 -0.6173  0.1824
13810TIP3    H262846   3.950   6.748   1.554 -0.2900 -0.5958 -0.5728
13811TIP3   OH262847   6.100   5.436  12.598  0.3431  0.2874  0.4210
13811TIP3    H162848   6.027   5.388  12.559  2.0341  0.3117 -2.8717
13811TIP3    H262849   6.080   5.528  12.581 -1.0036  0.6057  3.4132
13812TIP3   OH262850   5.020   0.408   0.543 -0.4436  0.1375  0.9166
13812TIP3    H162851   4.982   0.368   0.464  2.7331 -2.6507  0.6546
13812TIP3    H262852   5.083   0.472   0.509  0.0052 -0.1500  1.2084
13813TIP3   OH262853   4.703   5.249  10.895  0.7410 -0.3279  0.4349
13813TIP3    H162854   4.722   5.307  10.821 -0.5378  1.4025  1.4510
13813TIP3    H262855   4.769   5.272  10.961 -0.7699  1.1265  1.4587
13814TIP3   OH262856   1.123   2.776   2.276 -0.5055  0.1347 -0.2165
13814TIP3    H162857   1.165   2.732   2.202  2.1719  1.1591  0.6012
13814TIP3    H262858   1.156   2.866   2.272 -1.4847  0.5789  1.3477
13815TIP3   OH262859   0.896   5.122  12.451  0.1497  0.0402  0.0895
13815TIP3    H162860   0.914   5.211  12.419  1.5921  0.3952  1.8315
13815TIP3    H262861   0.821   5.133  12.510  0.1912  0.0567  0.1389
13816TIP3   OH262862   5.485   1.352  16.054  0.0606 -0.3091  0.0355
13816TIP3    H162863   5.571   1.335  16.015  0.3389  0.3312  0.3551
13816TIP3    H262864   5.505   1.379  16.144 -0.5620 -1.5560  0.5457
13817TIP3   OH262865   4.071   2.988  16.790 -0.3767 -0.0193 -0.3534
13817TIP3    H162866   4.089   3.033  16.873  0.4682  2.0386 -1.6194
13817TIP3    H262867   4.149   3.005  16.737  0.1573 -3.3310 -0.7712
13818TIP3   OH262868   3.777   3.365  17.031 -0.3761  0.1772 -0.2131
13818TIP3    H162869   3.689   3.374  17.068 -0.0369 -1.8068  1.1072
13818TIP3    H262870   3.811   3.455  17.029 -1.2967  0.5975  2.0937
13819TIP3   OH262871   4.204   5.737   0.901  0.4527 -0.0995  0.5372
13819TIP3    H162872   4.208   5.832   0.914  0.2197  0.0169 -0.2403
13819TIP3    H262873   4.257   5.702   0.972  2.6928  0.7404 -0.6698
13820TIP3   OH262874   1.359   3.915   1.427  0.3844 -0.2564 -0.7617
13820TIP3    H162875   1.366   3.967   1.347 -1.1276  1.2266  0.0370
13820TIP3    H262876   1.291   3.959   1.479  0.3700 -1.9721  0.7449
13821TIP3   OH262877   4.731   5.930  12.272  0.4840 -0.0997  0.2123
13821TIP3    H162878   4.667   5.869  12.310 -1.0113  0.6398 -1.0517
13821TIP3    H262879   4.791   5.874  12.223 -1.4243 -0.5283 -1.7289
13822TIP3   OH262880   0.718   3.662  12.232  0.2123  0.2683 -0.2801
13822TIP3    H162881   0.632   3.658  12.273  0.8062 -1.1921  0.8723
13822TIP3    H262882   0.701   3.684  12.140 -1.4876 -1.5839 -0.4235
13823TIP3   OH262883   2.032   1.822  16.544 -0.0876 -0.1168 -0.2460
13823TIP3    H162884   2.014   1.836  16.637 -0.8990  1.0548 -0.5774
13823TIP3    H262885   1.946   1.810  16.504  0.2004  0.2908 -1.0000
13824TIP3   OH262886   4.013   6.612   6.629  0.1503 -0.0803 -0.1554
13824TIP3    H162887   3.956   6.656   6.692 -2.0094 -0.0751 -2.0156
13824TIP3    H262888   4.091   6.667   6.623 -0.8476  1.4245  0.4062
13825TIP3   OH262889   2.675   5.544  17.128  0.3304  0.1004 -0.0996
13825TIP3    H162890   2.697   5.552  17.035 -0.0254 -1.7917 -0.3791
13825TIP3    H262891   2.583   5.520  17.129 -0.1088  1.7721  0.8202
13826TIP3   OH262892   1.894   0.934   2.650  0.9326  0.0461  0.4667
13826TIP3    H162893   1.938   0.851   2.634  1.1976  0.4481 -0.9811
13826TIP3    H262894   1.820   0.912   2.707  0.9216 -1.1966 -0.0277
13827TIP3   OH262895   5.953   0.035  15.728  0.2817  0.2188 -0.3483
13827TIP3    H162896   6.037   0.080  15.731 -0.0101  0.7433 -0.0720
13827TIP3    H262897   5.935   0.012  15.819 -0.8646  1.9411 -0.1299
13828TIP3   OH262898   1.699   5.950   1.171  0.0399  0.7323 -0.3240
13828TIP3    H162899   1.751   5.893   1.115 -0.7085 -0.6414  0.3631
13828TIP3    H262900   1.749   5.956   1.252 -1.1421 -1.0933  0.5674
13829TIP3   OH262901   5.549   5.367   3.414  0.2250  0.0884  0.3353
13829TIP3    H162902   5.495   5.438   3.447  0.5034  0.0608  0.8458
13829TIP3    H262903   5.531   5.365   3.320 -0.7048  0.0459  0.5062
13830TIP3   OH262904   5.553   4.677  12.412 -0.0562 -0.4617 -0.5036
13830TIP3    H162905   5.630   4.662  12.357  0.1015 -0.5723 -0.2531
13830TIP3    H262906   5.478   4.659  12.354  0.0506  1.7374 -1.3916
13831TIP3   OH262907   1.116   6.618  14.584 -0.1061 -0.6011  0.5691
13831TIP3    H162908   1.020   6.623  14.592 -0.3789 -1.9153 -1.4945
13831TIP3    H262909   1.145   6.584  14.668 -1.7376 -2.7682  0.3015
13832TIP3   OH262910   5.853   6.699  15.151 -0.5470  0.0658 -0.5850
13832TIP3    H162911   5.838   6.767  15.217 -1.3576 -1.3181  0.6684
13832TIP3    H262912   5.787   6.716  15.084 -2.3019 -0.8936  0.8658
13833TIP3   OH262913   6.536   5.592   1.496  0.3153  0.1196 -0.4830
13833TIP3    H162914   6.476   5.525   1.530  0.6678 -0.5478 -1.1544
13833TIP3    H262915   6.555   5.647   1.571 -2.8305  1.6329 -0.7156
13834TIP3   OH262916   3.764   1.507  15.264 -0.4460  0.5964 -0.6889
13834TIP3    H162917   3.804   1.553  15.190 -1.6177 -2.2341 -3.2029
13834TIP3    H262918   3.741   1.421  15.229 -0.7568 -0.9571  3.0976
13835TIP3   OH262919   5.681   6.079  16.829 -0.3050  1.1810  0.0576
13835TIP3    H162920   5.766   6.073  16.872 -0.0152 -0.1012 -0.6459
13835TIP3    H262921   5.698   6.129  16.749 -0.3642  1.5765  0.2950
13836TIP3   OH262922   1.760   2.340   2.510 -0.3437  0.2120  0.4406
13836TIP3    H162923   1.750   2.246   2.525 -1.3999 -0.0673 -1.9054
13836TIP3    H262924   1.681   2.367   2.464 -0.7587  2.5865  2.4226
13837TIP3   OH262925   4.116   0.073  15.372  0.5305 -0.1120  0.2094
13837TIP3    H162926   4.093   0.118  15.453 -0.9873 -0.1939 -0.1498
13837TIP3    H262927   4.082  -0.016  15.384  1.4002 -0.4768 -0.0252
13838TIP3   OH262928   5.400   1.054  14.873  0.1288 -1.0998 -0.9849
13838TIP3    H162929   5.348   1.130  14.897 -0.9067 -1.7301 -1.1977
13838TIP3    H262930   5.347   1.009  14.807 -0.3950 -3.3020  0.8804
13839TIP3   OH262931   0.301   1.723   3.857 -0.0046 -0.2480  0.6173
13839TIP3    H162932   0.264   1.635   3.869 -0.1263 -0.3283 -0.2926
13839TIP3    H262933   0.235   1.782   3.892 -1.2492 -0.3559 -1.4583
13840TIP3   OH262934   0.601   5.255  14.567  0.0084 -0.4758 -0.5884
13840TIP3    H162935   0.582   5.341  14.529  1.1052  0.8427  1.7711
13840TIP3    H262936   0.696   5.250  14.569 -0.0515 -1.5899 -0.3321
13841TIP3   OH262937   4.575   2.180  13.517  0.3130 -0.2032 -0.3125
13841TIP3    H162938   4.553   2.106  13.460  1.8333 -1.6350  0.9257
13841TIP3    H262939   4.494   2.197  13.565 -0.6321  0.2547 -2.0060
13842TIP3   OH262940   4.563   3.280   4.284 -0.4174  0.2512 -0.0122
13842TIP3    H162941   4.605   3.314   4.362  2.0636  2.9208 -2.3925
13842TIP3    H262942   4.493   3.342   4.265 -0.8059 -0.2058 -0.0883
13843TIP3   OH262943   0.165   1.080  11.713 -0.1462 -0.1346 -0.0714
13843TIP3    H162944   0.205   1.027  11.783 -1.3200 -0.8861  0.0357
13843TIP3    H262945   0.210   1.051  11.634  0.1460 -0.3402  0.1644
13844TIP3   OH262946   0.620   0.269   6.590 -0.9058  1.0218  0.1897
13844TIP3    H162947   0.536   0.278   6.545 -0.9265 -1.3714 -0.2963
13844TIP3    H262948   0.597   0.274   6.683 -1.6513 -0.0382  0.0695
13845TIP3   OH262949   4.788   0.166  12.298 -0.0038  0.2485  0.7247
13845TIP3    H162950   4.732   0.108  12.349  0.0816 -0.2816  0.2308
13845TIP3    H262951   4.742   0.176  12.214  0.4238  0.1583  0.4754
13846TIP3   OH262952   5.623   1.815  12.246  0.7219  0.0168 -0.2433
13846TIP3    H162953   5.582   1.736  12.211 -1.6094  0.6022  0.9934
13846TIP3    H262954   5.707   1.786  12.281 -0.2019 -1.9650  0.3817
13847TIP3   OH262955   2.947   5.123  16.909 -0.1873  0.0129 -0.5362
13847TIP3    H162956   2.992   5.070  16.974 -0.8036  0.9332  0.6529
13847TIP3    H262957   2.870   5.158  16.954  0.6814  2.6540 -0.9694
13848TIP3   OH262958   2.203   5.205  16.253  0.6696 -0.2607  0.1760
13848TIP3    H162959   2.197   5.252  16.170  0.8370 -0.0335  0.2963
13848TIP3    H262960   2.269   5.137  16.237 -0.9112 -1.6482 -0.5792
13849TIP3   OH262961   6.051   3.403   5.765 -0.1958  0.0612 -0.0435
13849TIP3    H162962   5.986   3.367   5.824  1.1838  0.1598  1.6030
13849TIP3    H262963   6.134   3.367   5.796  0.7416  1.4217 -0.8951
13850TIP3   OH262964   4.370   4.437  12.295  0.2934  0.2274  0.3573
13850TIP3    H162965   4.297   4.489  12.262  0.7869  2.1699  2.2209
13850TIP3    H262966   4.445   4.464  12.241  0.7280  2.1289  1.8515
13851TIP3   OH262967   2.994   6.228  14.797 -0.6152  0.4858 -0.0764
13851TIP3    H162968   3.031   6.307  14.758 -0.4748 -0.2765 -1.5411
13851TIP3    H262969   2.906   6.222  14.760 -0.5407 -0.1659 -0.1678
13852TIP3   OH262970   0.108   4.331  15.907 -0.0308  0.1679  0.1364
13852TIP3    H162971   0.139   4.247  15.941 -2.5330 -0.7309  0.3487
13852TIP3    H262972   0.131   4.331  15.815  1.1128 -0.1846  0.4189
13853TIP3   OH262973   4.891   2.646   6.267 -0.0191 -0.0802 -0.2836
13853TIP3    H162974   4.840   2.590   6.326  0.7433  0.0091  0.4649
13853TIP3    H262975   4.941   2.703   6.325 -1.2798  1.8508 -1.0375
13854TIP3   OH262976   5.156   0.020   3.781 -0.3168  0.6585 -0.1995
13854TIP3    H162977   5.184   0.034   3.871 -2.2201  0.8185  0.3831
13854TIP3    H262978   5.205   0.084   3.730  0.0833  1.1892  0.8475
13855TIP3   OH262979   4.452   0.481  16.596 -0.3602  0.2192  0.3024
13855TIP3    H162980   4.447   0.489  16.691  0.5017 -0.5182  0.4178
13855TIP3    H262981   4.424   0.391  16.577 -1.8217  0.7740 -0.2619
13856TIP3   OH262982   2.210   5.651   3.546 -0.8483  0.5781  0.2052
13856TIP3    H162983   2.123   5.612   3.538 -0.2399 -1.0168  1.2227
13856TIP3    H262984   2.248   5.641   3.459 -0.5633 -1.4556  0.5479
13857TIP3   OH262985   4.013   6.519  13.199 -0.2931  0.3640  0.2827
13857TIP3    H162986   3.917   6.520  13.198 -0.4089  1.9187  3.4984
13857TIP3    H262987   4.035   6.434  13.238 -0.4542  0.6705  1.0648
13858TIP3   OH262988   0.258   1.893   1.666  0.3412 -0.1293  0.1659
13858TIP3    H162989   0.284   1.844   1.588  0.0828 -1.1436  0.7015
13858TIP3    H262990   0.228   1.826   1.727 -3.6564  0.9686 -0.4606
13859TIP3   OH262991   5.381   2.074  17.056  0.1241  0.2092  0.9053
13859TIP3    H162992   5.456   2.021  17.028 -1.0576 -0.8534 -0.3002
13859TIP3    H262993   5.330   2.015  17.111 -0.5337  0.5032  0.6032
13860TIP3   OH262994   6.300   1.378  13.824 -0.8169 -0.5362  0.1659
13860TIP3    H162995   6.214   1.372  13.866 -1.1208 -0.5538 -0.4541
13860TIP3    H262996   6.359   1.330  13.883 -1.4080 -1.3394  0.1169
13861TIP3   OH262997   0.420   1.193   1.226 -0.1126  0.6860 -0.1894
13861TIP3    H162998   0.399   1.285   1.208 -0.5118  0.5563 -0.3819
13861TIP3    H262999   0.456   1.194   1.315  0.5001  1.1212 -0.4387
13862TIP3   OH263000   0.575   3.213   4.690  0.1723  0.2985  0.4778
13862TIP3    H163001   0.533   3.221   4.776  0.0034  0.4364  0.3826
13862TIP3    H263002   0.558   3.123   4.663 -0.1253  0.3738  0.4081
13863TIP3   OH263003   6.224   4.455   1.929  0.4939 -0.7038  0.2202
13863TIP3    H163004   6.130   4.466   1.940  0.9223  2.8663  1.0372
13863TIP3    H263005   6.250   4.395   1.998 -0.8785  0.1714  1.5329
13864TIP3   OH263006   5.608   3.111   1.687 -0.0054 -0.0762 -0.4989
13864TIP3    H163007   5.690   3.126   1.640  0.2000 -0.1186 -0.1507
13864TIP3    H263008   5.542   3.152   1.632  0.0005 -1.6460 -1.7244
13865TIP3   OH263009   6.425   4.729   0.971  0.0185 -0.5960 -0.0685
13865TIP3    H163010   6.381   4.792   1.028  1.3280  0.8623 -0.6289
13865TIP3    H263011   6.518   4.738   0.991  0.3331 -1.5068 -1.0033
13866TIP3   OH263012   3.253   0.637  11.287  0.4571  0.0258  0.1498
13866TIP3    H163013   3.272   0.595  11.371 -1.2226 -1.4628 -0.1927
13866TIP3    H263014   3.209   0.569  11.235  2.0239  0.7168 -2.1766
13867TIP3   OH263015   0.899   4.112   5.023 -0.2325  0.5771  0.0654
13867TIP3    H163016   0.916   4.206   5.015  0.1810  0.5522  0.5950
13867TIP3    H263017   0.968   4.081   5.082  1.2363 -0.5304 -2.1634
13868TIP3   OH263018   3.835   4.674   0.179  0.4801 -0.7555 -0.2047
13868TIP3    H163019   3.922   4.640   0.203  0.5316 -0.7385 -0.3655
13868TIP3    H263020   3.825   4.752   0.233  0.9457 -0.2523 -0.8327
13869TIP3   OH263021   2.395   5.518   1.671  0.0696  0.4061 -0.3914
13869TIP3    H163022   2.410   5.600   1.625 -1.4822  0.7778 -0.2832
13869TIP3    H263023   2.390   5.543   1.764  1.8243 -0.1385 -0.1400
13870TIP3   OH263024   3.279   1.039  14.311 -0.1635  0.0018 -0.0125
13870TIP3    H163025   3.280   0.963  14.369 -1.2333 -0.1512 -0.1845
13870TIP3    H263026   3.259   1.003  14.224  0.8396  0.2978 -0.3741
13871TIP3   OH263027   2.446   3.352   4.633  0.3055  1.0424  0.4751
13871TIP3    H163028   2.505   3.344   4.557  1.1217  0.6250  1.1449
13871TIP3    H263029   2.366   3.307   4.605  0.5524  1.0129 -0.1982
13872TIP3   OH263030   1.808   5.834  16.358  0.6103  0.4638 -0.2433
13872TIP3    H163031   1.808   5.740  16.372 -0.0907  0.4207 -0.5182
13872TIP3    H263032   1.719   5.861  16.379  1.1767  1.2669  1.1939
13873TIP3   OH263033   1.896   5.167  14.006  0.1200  0.4992 -0.3711
13873TIP3    H163034   1.962   5.234  14.021  0.1745  0.2080  0.6915
13873TIP3    H263035   1.871   5.178  13.914  1.0720  1.1177 -0.5558
13874TIP3   OH263036   3.726   1.786  16.994  0.3277 -0.3595  0.1878
13874TIP3    H163037   3.634   1.774  16.970  0.0230  0.2635  1.0241
13874TIP3    H263038   3.775   1.759  16.916 -0.6247  1.1004 -0.9584
13875TIP3   OH263039   0.354   3.302  13.548 -0.0862  0.0707  0.2035
13875TIP3    H163040   0.338   3.343  13.463 -0.4920  0.8652  0.6565
13875TIP3    H263041   0.292   3.229  13.552  0.6691 -0.6356 -0.6216
13876TIP3   OH263042   5.081   3.675  10.823 -0.2142  0.0141  0.0356
13876TIP3    H163043   4.991   3.643  10.827  0.0756 -0.6434  1.4084
13876TIP3    H263044   5.076   3.753  10.767 -1.9547  1.0308  1.5439
13877TIP3   OH263045   3.382   2.059  14.857 -0.7422 -0.0254  0.3572
13877TIP3    H163046   3.406   2.071  14.765  0.1293  1.4414  0.7592
13877TIP3    H263047   3.385   1.964  14.870  1.5834 -0.1184 -0.5071
13878TIP3   OH263048   5.932   6.029   2.848  0.6563 -0.5685  0.1929
13878TIP3    H163049   5.957   6.069   2.931 -0.6706 -2.0029  1.3079
13878TIP3    H263050   5.869   5.961   2.872  0.6209 -1.3248 -1.9414
13879TIP3   OH263051   6.381   0.984  11.756 -0.3028  0.3478  0.2247
13879TIP3    H163052   6.421   0.972  11.671 -1.7095 -2.0081 -0.1547
13879TIP3    H263053   6.287   0.976  11.740 -0.4898 -2.3905  2.2995
13880TIP3   OH263054   1.498   1.152   2.341  0.5414 -0.9819  0.1621
13880TIP3    H163055   1.592   1.161   2.355  0.5109 -0.6630  0.1634
13880TIP3    H263056   1.488   1.065   2.302  0.7090 -1.5487  1.3620
13881TIP3   OH263057   2.940   1.741  16.638  0.0323  0.0493 -0.1422
13881TIP3    H163058   2.856   1.756  16.683 -0.0450 -2.8010  0.7465
13881TIP3    H263059   2.920   1.680  16.568  0.9268  1.3784 -1.6005
13882TIP3   OH263060   4.036   4.409  14.172 -0.4193  0.3811  0.4667
13882TIP3    H163061   4.038   4.334  14.232  0.7491  0.3577  0.4216
13882TIP3    H263062   3.944   4.430  14.162 -0.6387  0.4828  2.4077
13883TIP3   OH263063   4.402   3.593  12.994 -0.5248  0.3024 -0.5444
13883TIP3    H163064   4.495   3.574  13.004 -0.5793 -0.8962 -2.0709
13883TIP3    H263065   4.358   3.520  13.037 -0.7582  0.7228 -0.0697
13884TIP3   OH263066   1.454   1.831   3.269 -0.0469  0.2187 -0.4919
13884TIP3    H163067   1.481   1.895   3.335 -1.0527 -0.1073  0.2500
13884TIP3    H263068   1.531   1.776   3.255 -0.0662 -0.2083  1.0102
13885TIP3   OH263069   0.019   2.778   1.987 -0.6118 -0.5480  0.0717
13885TIP3    H163070   0.053   2.840   1.923 -1.0007 -2.5047 -2.1346
13885TIP3    H263071  -0.073   2.801   1.997 -0.3532  0.2750  0.5452
13886TIP3   OH263072   6.092   3.766  13.974 -0.3572 -0.3888  0.1515
13886TIP3    H163073   6.112   3.726  13.889  1.7865 -0.6381  0.7381
13886TIP3    H263074   6.169   3.819  13.994 -0.5342 -0.8852  2.2675
13887TIP3   OH263075   2.598   2.823  13.895  0.1960 -0.6808  0.1454
13887TIP3    H163076   2.577   2.755  13.831 -1.4756 -0.2672  0.2366
13887TIP3    H263077   2.639   2.775  13.968  1.6962 -1.2033 -1.0331
13888TIP3   OH263078   4.175   1.478   0.062  0.2738 -0.2424  0.1280
13888TIP3    H163079   4.130   1.517  -0.013 -0.1042 -1.6815 -0.4065
13888TIP3    H263080   4.268   1.490   0.043  0.1783 -0.5602 -0.5547
13889TIP3   OH263081   2.669   6.349   1.196 -0.1076  0.1627  0.2713
13889TIP3    H163082   2.738   6.320   1.256 -1.4639 -1.6397  0.9998
13889TIP3    H263083   2.708   6.424   1.150  3.0321 -1.8978 -0.6253
13890TIP3   OH263084   3.570   3.243   1.303  0.0429 -1.0152  0.4527
13890TIP3    H163085   3.581   3.292   1.384 -0.9526 -1.9649  1.1795
13890TIP3    H263086   3.487   3.196   1.314  0.0237 -1.3550 -1.0094
13891TIP3   OH263087   2.654   4.546   4.865 -0.0468 -0.4305  0.1872
13891TIP3    H163088   2.627   4.485   4.796 -1.9771  0.6873 -0.0849
13891TIP3    H263089   2.685   4.623   4.818 -1.6920  0.4712  0.5374
13892TIP3   OH263090   1.417   2.556   4.623  0.0128 -0.6530 -0.2299
13892TIP3    H163091   1.362   2.550   4.701  0.3031 -1.2034 -0.0615
13892TIP3    H263092   1.365   2.515   4.554 -0.4699  0.3328 -0.4524
13893TIP3   OH263093   0.636   1.994   4.021  0.2942  0.2544 -0.2822
13893TIP3    H163094   0.630   2.089   4.029 -1.4632  0.2367 -1.3175
13893TIP3    H263095   0.688   1.968   4.098  0.8395  2.0276 -0.0049
13894TIP3   OH263096   1.707   0.559  17.151 -0.0761 -0.2068 -0.0317
13894TIP3    H163097   1.713   0.464  17.163 -1.2108 -0.3393 -0.5141
13894TIP3    H263098   1.623   0.573  17.108 -0.0172  1.0407  0.2351
13895TIP3   OH263099   0.782   6.320   5.232 -0.1779 -0.3343 -0.3192
13895TIP3    H163100   0.749   6.276   5.310 -0.5616  3.0082  1.4802
13895TIP3    H263101   0.861   6.366   5.261  1.3763 -1.4475 -2.6253
13896TIP3   OH263102   5.853   2.997   1.364 -0.0080 -0.0941  0.2152
13896TIP3    H163103   5.791   2.944   1.313 -0.4722  0.1461  0.5305
13896TIP3    H263104   5.845   3.085   1.328  0.9962 -0.2908 -0.5229
13897TIP3   OH263105   4.566   1.164   4.429  0.1754  0.7268 -0.2012
13897TIP3    H163106   4.589   1.217   4.504  0.9412 -3.7084  2.9021
13897TIP3    H263107   4.484   1.121   4.454  0.4668 -0.8718 -1.8650
13898TIP3   OH263108   2.722   2.113  15.673 -0.7178  0.2500  0.1884
13898TIP3    H163109   2.688   2.101  15.584 -1.5170 -2.6789  0.8651
13898TIP3    H263110   2.646   2.138  15.725 -1.3443 -3.2658  1.0757
13899TIP3   OH263111   1.017   4.610  15.273  0.2040 -0.1967 -0.4799
13899TIP3    H163112   0.976   4.537  15.227  2.0899 -0.6218 -1.5182
13899TIP3    H263113   1.059   4.661  15.204 -0.9405  1.7924  0.2487
13900TIP3   OH263114   0.579   1.003   4.641 -0.0105 -0.1081 -0.3235
13900TIP3    H163115   0.599   1.038   4.554 -0.7410 -0.3017 -0.5792
13900TIP3    H263116   0.494   1.042   4.663  0.3980  0.3271  0.5217
13901TIP3   OH263117   2.669   6.180   4.006  0.2302 -0.3966  0.0511
13901TIP3    H163118   2.683   6.220   4.092  0.0980 -0.4233  0.0859
13901TIP3    H263119   2.640   6.091   4.026  3.1040 -1.3978 -0.0483
13902TIP3   OH263120   1.777   3.863  14.079  0.5774 -0.4621 -0.3176
13902TIP3    H163121   1.798   3.857  14.172 -0.5306  0.8980  0.0521
13902TIP3    H263122   1.829   3.936  14.048  0.1469 -0.2368 -0.5138
13903TIP3   OH263123   2.391   2.367  14.840 -0.4465 -1.1894 -0.8203
13903TIP3    H163124   2.312   2.319  14.864 -0.5866 -1.2811 -1.4534
13903TIP3    H263125   2.452   2.350  14.911 -0.1176 -3.1723 -1.5456
13904TIP3   OH263126   0.304   1.230   4.371 -0.1149 -0.0487 -0.0433
13904TIP3    H163127   0.318   1.146   4.329  1.5778  0.0170  0.3684
13904TIP3    H263128   0.234   1.214   4.434  0.2910 -1.1912  0.1329
13905TIP3   OH263129   4.906   4.188  16.857  0.1839  0.2206  0.2086
13905TIP3    H163130   4.943   4.245  16.925  1.1535  0.8415 -0.8136
13905TIP3    H263131   4.961   4.204  16.781 -0.3999 -1.0751 -0.4935
13906TIP3   OH263132   2.788   0.505   2.588  0.4885 -0.7943  1.2046
13906TIP3    H163133   2.743   0.484   2.507  0.6338 -0.3656  1.0114
13906TIP3    H263134   2.857   0.438   2.594  1.4843  0.1150  0.1585
13907TIP3   OH263135   2.315   6.699   4.847  0.1836 -0.2739 -0.1400
13907TIP3    H163136   2.306   6.783   4.802 -0.6292 -0.5817 -0.5662
13907TIP3    H263137   2.341   6.638   4.778 -0.9999 -0.7356 -0.1873
13908TIP3   OH263138   5.249   5.669   1.625 -0.7456 -0.0548  0.1575
13908TIP3    H163139   5.212   5.626   1.702 -0.4222  2.3472  1.7351
13908TIP3    H263140   5.343   5.670   1.641 -0.7047  0.7036 -0.1228
13909TIP3   OH263141   6.189   5.121   2.607 -0.4009  0.1587 -0.4806
13909TIP3    H163142   6.120   5.186   2.617 -1.3950 -0.8435 -0.7147
13909TIP3    H263143   6.146   5.047   2.564  0.8472 -0.4280 -0.7418
13910TIP3   OH263144   3.865   6.434   4.207 -0.1629  0.0052 -0.2268
13910TIP3    H163145   3.783   6.442   4.255 -0.5369  0.2353 -0.8924
13910TIP3    H263146   3.841   6.452   4.116  0.2856 -1.7136 -0.7107
13911TIP3   OH263147   4.313   3.326   1.903 -0.1157  0.3204  0.0239
13911TIP3    H163148   4.311   3.396   1.967 -0.2648  0.5500 -0.2322
13911TIP3    H263149   4.345   3.367   1.822  0.5311 -0.0654  0.0741
13912TIP3   OH263150   2.943   4.529  15.423  0.7512  0.5572 -0.3290
13912TIP3    H163151   2.867   4.487  15.382  1.5200 -0.4425 -0.7651
13912TIP3    H263152   2.919   4.621  15.430  0.4774  0.7009 -2.7456
13913TIP3   OH263153   3.627   3.833   5.573 -0.2152  0.3535 -0.2183
13913TIP3    H163154   3.635   3.739   5.589  0.0171 -0.0282 -2.5195
13913TIP3    H263155   3.590   3.867   5.654  1.2785 -1.4661  1.2920
13914TIP3   OH263156   0.385   2.752   2.888  0.0476  0.2728  0.3682
13914TIP3    H163157   0.301   2.770   2.845 -0.5163 -0.5025  1.1273
13914TIP3    H263158   0.441   2.825   2.863 -0.1120 -0.4018 -2.0649
13915TIP3   OH263159   6.106   3.474   5.137  0.5199 -0.0522 -0.5261
13915TIP3    H163160   6.097   3.569   5.148  0.5395 -0.2738  1.6957
13915TIP3    H263161   6.157   3.464   5.057  1.7065  1.8692 -0.0461
13916TIP3   OH263162   0.284   4.389  15.054  0.2963 -0.2876  0.1150
13916TIP3    H163163   0.335   4.357  15.129 -1.8209  0.2027  1.8077
13916TIP3    H263164   0.240   4.311  15.020 -0.1414 -0.2201  0.5132
13917TIP3   OH263165   2.761   1.624  13.070  0.5733 -0.0898  0.4331
13917TIP3    H163166   2.797   1.580  12.993  1.9264 -1.0738  1.5940
13917TIP3    H263167   2.727   1.553  13.124 -0.6487  0.6214  0.6097
13918TIP3   OH263168   3.152   5.966   4.008 -0.6751  0.1795 -0.1079
13918TIP3    H163169   3.068   5.920   3.996 -0.1222 -0.7275 -0.5759
13918TIP3    H263170   3.153   6.032   3.939 -2.4133  2.3521  1.8476
13919TIP3   OH263171   6.162   2.358  16.275 -0.3947  0.1756 -0.4127
13919TIP3    H163172   6.205   2.387  16.194 -0.8612 -0.4135 -0.8854
13919TIP3    H263173   6.158   2.436  16.330  1.6423  0.1482 -0.1837
13920TIP3   OH263174   6.317   3.832   0.028 -0.0676 -0.4331 -0.2856
13920TIP3    H163175   6.307   3.812   0.121  0.2478 -0.2962 -0.2217
13920TIP3    H263176   6.344   3.924   0.026 -0.5590 -0.2954 -0.5349
13921TIP3   OH263177   2.629   2.033   1.752 -0.4126  0.3483 -0.2784
13921TIP3    H163178   2.547   2.082   1.747 -0.2924  0.3672 -2.1269
13921TIP3    H263179   2.694   2.091   1.713  0.3975  0.1097  0.6854
13922TIP3   OH263180   4.545   4.889   0.248  0.4325 -0.2864  0.1347
13922TIP3    H163181   4.458   4.928   0.258  0.7712  0.8945 -1.3755
13922TIP3    H263182   4.539   4.837   0.168  1.2013 -0.0005 -0.1076
13923TIP3   OH263183   1.288   0.511   5.122  0.1351  0.5362 -0.3017
13923TIP3    H163184   1.268   0.563   5.200 -1.3539 -0.4026 -0.0342
13923TIP3    H263185   1.375   0.474   5.139  0.8164  2.2073 -0.1081
13924TIP3   OH263186   1.988   3.082   1.853  0.2134 -0.2127 -0.5974
13924TIP3    H163187   1.948   3.001   1.820 -2.2527  0.7171  0.0138
13924TIP3    H263188   1.934   3.106   1.928  3.5739 -0.3364  1.9793
13925TIP3   OH263189   4.609   1.466  15.028 -0.5625 -0.0565 -0.1055
13925TIP3    H163190   4.668   1.538  15.004  0.3907 -0.8514 -0.1868
13925TIP3    H263191   4.570   1.439  14.945  2.0969 -2.2438 -0.7148
13926TIP3   OH263192   4.467   5.210  12.755  0.4046 -0.1606  0.0634
13926TIP3    H163193   4.422   5.223  12.838 -1.6964  0.2195 -1.0878
13926TIP3    H263194   4.500   5.297  12.732 -0.3913  0.0630 -0.2529
13927TIP3   OH263195   1.859   5.499  11.089 -0.7107  0.2171  0.2732
13927TIP3    H163196   1.940   5.503  11.140 -1.2554  0.4356  1.1422
13927TIP3    H263197   1.884   5.457  11.007  0.1316 -0.3766  0.8262
13928TIP3   OH263198   1.632   2.484   2.782  0.2203 -0.3610 -0.1162
13928TIP3    H163199   1.624   2.557   2.844 -0.4332  1.4221 -2.2208
13928TIP3    H263200   1.542   2.457   2.765  0.4383 -1.3749  0.3066
13929TIP3   OH263201   3.719   4.628  12.167  0.2580  0.3349 -0.6122
13929TIP3    H163202   3.778   4.654  12.237 -1.1622  0.1705  0.6554
13929TIP3    H263203   3.710   4.706  12.113  1.0953  0.5524 -0.4498
13930TIP3   OH263204   4.768   5.522   5.764 -0.4007  0.4450 -0.6510
13930TIP3    H163205   4.758   5.437   5.720 -1.1671  0.4425 -0.4875
13930TIP3    H263206   4.820   5.503   5.842  0.3461  0.3188 -1.1728
13931TIP3   OH263207   6.137   4.309   3.885 -0.5880 -0.6259  0.4359
13931TIP3    H163208   6.060   4.294   3.832 -0.7818 -1.1292  0.8562
13931TIP3    H263209   6.118   4.265   3.968 -0.7897  1.1712  1.3651
13932TIP3   OH263210   1.272   0.879  14.404 -1.2638 -0.4548 -0.5207
13932TIP3    H163211   1.334   0.851  14.471  0.0426 -1.0111 -1.9384
13932TIP3    H263212   1.302   0.836  14.324 -2.6871  0.3561 -1.5137
13933TIP3   OH263213   4.962   3.007   3.704 -0.4358  0.1772 -0.4096
13933TIP3    H163214   5.023   3.021   3.631 -0.3862  1.4161 -0.1476
13933TIP3    H263215   5.019   2.998   3.781 -0.5575  1.0934 -0.2013
13934TIP3   OH263216   4.425   3.174   3.082  0.7885  0.4406  0.4481
13934TIP3    H163217   4.348   3.193   3.028  1.4158 -1.5634 -1.2307
13934TIP3    H263218   4.455   3.260   3.113 -0.1878  1.5536 -1.5871
13935TIP3   OH263219   4.486   2.846  15.039  0.1367 -0.2232 -0.8088
13935TIP3    H163220   4.503   2.940  15.051 -0.3678 -0.3060  0.7109
13935TIP3    H263221   4.523   2.826  14.953  1.1154  1.1681 -0.7372
13936TIP3   OH263222   4.139   3.113   1.783  0.1479 -0.3264 -0.0555
13936TIP3    H163223   4.207   3.180   1.795 -0.1396  0.2065 -1.3168
13936TIP3    H263224   4.120   3.115   1.689  0.4610 -2.4972 -0.1952
13937TIP3   OH263225   2.565   1.234  12.018 -0.0221  0.3179  0.2903
13937TIP3    H163226   2.553   1.314  12.068 -1.1655 -0.3733  1.1646
13937TIP3    H263227   2.639   1.190  12.060  0.0827  0.5308  0.3269
13938TIP3   OH263228   2.282   1.790   2.941  0.4633  0.8200  1.1361
13938TIP3    H163229   2.225   1.724   2.902  1.7063  0.8406 -0.8141
13938TIP3    H263230   2.225   1.840   2.999 -0.7974 -1.1020  1.5941
13939TIP3   OH263231   4.261   0.768   0.798  0.1738 -0.8444  0.1478
13939TIP3    H163232   4.238   0.778   0.890  1.0790 -4.0903  0.7901
13939TIP3    H263233   4.355   0.782   0.795 -0.2216  1.8832 -0.7576
13940TIP3   OH263234   5.637   4.423   5.994  0.1101 -0.0440 -0.2656
13940TIP3    H163235   5.562   4.476   6.021  0.2943 -0.2687  0.7027
13940TIP3    H263236   5.599   4.347   5.951 -0.2178 -0.1129  0.1479
13941TIP3   OH263237   1.091   3.570  14.996 -0.1433  0.0259 -0.0668
13941TIP3    H163238   0.998   3.549  15.010 -0.6389  1.6651 -0.7702
13941TIP3    H263239   1.116   3.517  14.920 -0.0765 -1.5853  1.0666
13942TIP3   OH263240   5.145   6.268  12.604 -0.2365  0.1682  0.3269
13942TIP3    H163241   5.061   6.314  12.607 -0.3186  0.2413 -1.7675
13942TIP3    H263242   5.128   6.193  12.547  1.2546  0.5112 -0.5859
13943TIP3   OH263243   4.187   6.695  11.991 -0.1348  0.4470 -0.1173
13943TIP3    H163244   4.227   6.721  12.074  1.2410 -0.7877 -0.3681
13943TIP3    H263245   4.241   6.621  11.961 -1.4040  0.0549 -1.4649
13944TIP3   OH263246   3.625   0.792   2.523  0.6476  0.0980 -0.0976
13944TIP3    H163247   3.598   0.738   2.597 -0.0767 -0.6363 -0.8976
13944TIP3    H263248   3.668   0.731   2.463 -1.1506  0.1849 -1.5068
13945TIP3   OH263249   1.189   4.936  15.451  0.5597 -0.2398  0.1550
13945TIP3    H163250   1.228   4.854  15.420 -0.7524 -1.0930  0.7608
13945TIP3    H263251   1.205   4.998  15.380  0.2567 -1.3989 -0.9379
13946TIP3   OH263252   6.533   4.109  11.342 -0.6549 -0.8129  0.4947
13946TIP3    H163253   6.473   4.139  11.409  0.6536  1.2152  0.8085
13946TIP3    H263254   6.569   4.189  11.304  1.0819 -1.9611 -0.3706
13947TIP3   OH263255   0.862   0.704  17.010 -0.0879 -0.3280  0.3295
13947TIP3    H163256   0.942   0.744  17.043 -0.8619  0.8244  0.8126
13947TIP3    H263257   0.791   0.755  17.048 -1.0462 -0.8166 -0.7506
13948TIP3   OH263258   4.849   0.899   0.489  0.2798  0.3821 -0.0297
13948TIP3    H163259   4.910   0.961   0.449 -0.9529  1.0060 -0.9757
13948TIP3    H263260   4.868   0.903   0.582  2.1446  0.0540 -0.3561
13949TIP3   OH263261   1.886   5.959  15.217  0.4881 -0.0456 -0.2813
13949TIP3    H163262   1.974   5.951  15.183  0.2909 -1.6195 -0.4505
13949TIP3    H263263   1.847   6.030  15.167  1.1963 -0.3021 -1.2035
13950TIP3   OH263264   2.118   1.581  15.455 -0.0875  0.0429 -0.1812
13950TIP3    H163265   2.078   1.650  15.402 -1.6320  0.5326  1.6049
13950TIP3    H263266   2.044   1.530  15.489  0.9849 -1.8153 -0.5292
13951TIP3   OH263267   5.636   1.760  13.710  0.5816  0.0404 -0.2166
13951TIP3    H163268   5.696   1.806  13.768  1.6296 -0.3788 -0.9481
13951TIP3    H263269   5.551   1.764  13.755  1.1321  0.7149  0.7825
13952TIP3   OH263270   2.340   3.553   2.330 -0.5212 -0.8874 -0.0673
13952TIP3    H163271   2.305   3.642   2.338 -0.2679 -0.7876 -0.0802
13952TIP3    H263272   2.395   3.556   2.252  1.9759 -0.2520  1.6800
13953TIP3   OH263273   4.144   3.751   1.980 -0.6114  0.0635 -0.2305
13953TIP3    H163274   4.161   3.816   1.911  0.4375  0.3811  0.3235
13953TIP3    H263275   4.142   3.802   2.061 -0.1276 -0.5464  0.1660
13954TIP3   OH263276   4.163   1.002  16.946  0.1422 -0.2286 -0.0444
13954TIP3    H163277   4.091   1.007  17.010 -0.8189 -0.1369 -1.1194
13954TIP3    H263278   4.146   0.921  16.898 -0.1633  0.6193 -1.3828
13955TIP3   OH263279   3.057   2.870  13.270 -0.2806 -0.4255  0.0023
13955TIP3    H163280   3.027   2.941  13.213 -1.0993  0.2710  1.2930
13955TIP3    H263281   3.151   2.864  13.254 -0.7486 -1.4993 -2.8410
13956TIP3   OH263282   2.159   0.167   3.403  0.3798  0.0263 -0.7253
13956TIP3    H163283   2.181   0.168   3.496  0.0328  0.0296 -0.6436
13956TIP3    H263284   2.206   0.092   3.368 -0.8948 -1.0168 -0.2123
13957TIP3   OH263285   1.256   3.625  11.830 -0.1508 -0.1141 -0.0378
13957TIP3    H163286   1.274   3.566  11.756 -1.1611  0.5988 -0.8743
13957TIP3    H263287   1.166   3.606  11.854  0.0668 -0.0939  0.7928
13958TIP3   OH263288   6.373   4.837  15.317  0.2589 -0.1686  0.2814
13958TIP3    H163289   6.468   4.830  15.331  0.5631 -0.2127 -1.7193
13958TIP3    H263290   6.359   4.807  15.227 -1.3925  1.8395 -0.1765
13959TIP3   OH263291   4.098   5.802   1.206 -0.0697  0.4426 -0.0155
13959TIP3    H163292   4.118   5.886   1.246 -0.7992  0.0796  1.1336
13959TIP3    H263293   4.059   5.824   1.122  0.2617  1.2365  0.0362
13960TIP3   OH263294   0.524   0.913   1.599  0.2443 -0.4952 -0.0324
13960TIP3    H163295   0.560   0.904   1.687  2.2272 -0.1946 -0.7742
13960TIP3    H263296   0.562   0.995   1.566 -2.0930  0.4778 -0.4376
13961TIP3   OH263297   6.422   5.220   5.891 -0.3973  0.1284  0.3530
13961TIP3    H163298   6.400   5.132   5.922 -2.1494  0.1402 -0.7671
13961TIP3    H263299   6.466   5.262   5.965  2.6745 -2.4787  0.1121
13962TIP3   OH263300   2.401   2.407   4.835  0.1671  0.2740 -0.3267
13962TIP3    H163301   2.307   2.396   4.845 -0.0062  2.4206  0.6453
13962TIP3    H263302   2.412   2.498   4.808  1.8630 -0.4129 -2.0530
13963TIP3   OH263303   0.759   3.677  16.399 -0.0690 -0.3937  0.0590
13963TIP3    H163304   0.671   3.677  16.438 -0.5970  2.5376 -1.0273
13963TIP3    H263305   0.744   3.692  16.306  1.5175 -1.4833 -0.3791
13964TIP3   OH263306   3.398   1.400   4.898  0.3399  0.4382 -0.0933
13964TIP3    H163307   3.472   1.347   4.870 -0.5584 -0.9812  0.1956
13964TIP3    H263308   3.361   1.434   4.816  0.9295  0.6449 -0.2755
13965TIP3   OH263309   1.613   2.089  12.190  0.0465  0.1387 -0.2773
13965TIP3    H163310   1.641   2.017  12.248  0.2473 -0.5568 -1.2258
13965TIP3    H263311   1.518   2.081  12.188  0.1511 -1.0098 -1.5142
13966TIP3   OH263312   1.169   4.370   1.499 -0.3568 -0.0670  0.1655
13966TIP3    H163313   1.169   4.308   1.427  0.6341 -0.9810  0.9264
13966TIP3    H263314   1.086   4.356   1.544 -0.0341 -1.0351  0.4772
13967TIP3   OH263315   6.719   6.160  15.624 -0.4260  0.3879  0.5839
13967TIP3    H163316   6.693   6.229  15.564 -0.5310 -0.5444 -0.4685
13967TIP3    H263317   6.718   6.080  15.571  0.6030 -0.2823  1.5271
13968TIP3   OH263318   2.772   5.467  11.546  0.3120 -0.3156 -0.0055
13968TIP3    H163319   2.859   5.435  11.520  0.3035  0.3951 -0.8922
13968TIP3    H263320   2.787   5.508  11.632  1.0678  0.7723 -0.6414
13969TIP3   OH263321   5.169   5.719   0.329 -0.2184  0.2530  0.4369
13969TIP3    H163322   5.120   5.643   0.359  0.0474 -0.5413 -1.1149
13969TIP3    H263323   5.260   5.698   0.349  0.3319 -1.6826 -3.7343
13970TIP3   OH263324   1.947   2.286  17.051 -0.1254 -0.0313 -0.7839
13970TIP3    H163325   2.026   2.291  16.997 -0.8127 -0.9633 -1.8910
13970TIP3    H263326   1.980   2.270  17.139  0.8961 -1.6325 -1.4153
13971TIP3   OH263327   0.146   0.380  13.454 -0.2875  0.2426  0.0546
13971TIP3    H163328   0.151   0.470  13.487  0.0001  0.7790 -1.4143
13971TIP3    H263329   0.056   0.372  13.421 -0.7169 -0.4418  1.3367
13972TIP3   OH263330   5.304   2.608  11.046  0.2577  0.0971 -0.5391
13972TIP3    H163331   5.219   2.582  11.010  0.4990  1.6192 -2.3272
13972TIP3    H263332   5.335   2.677  10.987  2.3693  0.1479  0.5566
13973TIP3   OH263333   6.397   6.731  12.206  0.0513  0.4400 -0.2733
13973TIP3    H163334   6.325   6.748  12.145 -0.2860 -1.9451 -0.5702
13973TIP3    H263335   6.363   6.663  12.265  2.5310 -1.7438 -1.2753
13974TIP3   OH263336   4.567   0.214  13.013 -0.0331  0.5209 -0.3061
13974TIP3    H163337   4.525   0.299  12.996 -0.4683 -0.2827 -3.6184
13974TIP3    H263338   4.511   0.150  12.969  0.3122 -1.5343  2.1255
13975TIP3   OH263339   5.117   1.678   5.857 -0.4821  0.2603 -0.1652
13975TIP3    H163340   5.147   1.735   5.786  0.5134  0.5749  0.4967
13975TIP3    H263341   5.085   1.738   5.925  1.2140  0.0716  0.8238
13976TIP3   OH263342   3.674   3.102   3.785 -0.4690  0.2171  0.2301
13976TIP3    H163343   3.656   3.177   3.728 -1.4247  0.7282  1.1891
13976TIP3    H263344   3.613   3.111   3.858 -0.0558 -1.0675  0.7638
13977TIP3   OH263345   5.133   6.120   2.537 -0.2196  0.2582  0.0073
13977TIP3    H163346   5.107   6.032   2.509 -1.0655  0.6826 -0.5393
13977TIP3    H263347   5.144   6.111   2.632 -1.1999 -0.2118  0.0786
13978TIP3   OH263348   2.130   1.942   2.374 -0.6168  0.5402 -0.0362
13978TIP3    H163349   2.036   1.921   2.369 -0.2771 -0.8860 -0.5433
13978TIP3    H263350   2.132   2.036   2.389 -2.1556  0.4749  0.7623
13979TIP3   OH263351   6.335   3.910  12.172 -0.0377 -0.6448 -0.0732
13979TIP3    H163352   6.367   3.834  12.122  2.1139 -0.3383  0.7557
13979TIP3    H263353   6.394   3.915  12.247 -1.0645  0.9891  0.6413
13980TIP3   OH263354   4.477   6.257  14.462 -0.4166  0.0429  0.4014
13980TIP3    H163355   4.482   6.187  14.527 -0.9626 -1.1503 -0.8192
13980TIP3    H263356   4.452   6.334  14.512  0.3031 -0.6116  1.7856
13981TIP3   OH263357   2.366   0.050   2.228 -0.3122 -0.2348  0.3460
13981TIP3    H163358   2.358   0.115   2.158 -0.1229  1.5092  1.8919
13981TIP3    H263359   2.283   0.004   2.228 -1.1496  1.2238  0.3711
13982TIP3   OH263360   6.090   2.159  13.003 -0.6267 -0.0222 -0.0105
13982TIP3    H163361   6.149   2.084  13.010  1.1630  1.2041 -1.4230
13982TIP3    H263362   6.072   2.184  13.093 -1.9421 -2.6668  0.4943
13983TIP3   OH263363   1.194   5.393   6.138 -0.0239  0.1510 -0.2177
13983TIP3    H163364   1.145   5.455   6.084  0.1079 -0.4327 -1.0111
13983TIP3    H263365   1.129   5.354   6.196 -0.2827  0.2879 -0.4170
13984TIP3   OH263366   0.251   3.329   0.916 -0.3198  0.6579  0.0038
13984TIP3    H163367   0.261   3.424   0.924  2.4309  0.5786 -1.8666
13984TIP3    H263368   0.325   3.302   0.862 -0.9569 -2.5916  0.6889
13985TIP3   OH263369   3.542   0.050  12.342 -0.0784  0.3330  0.0178
13985TIP3    H163370   3.566  -0.024  12.397  0.1852 -0.3206 -0.9723
13985TIP3    H263371   3.446   0.047  12.337 -0.0373 -0.2455 -0.4412
13986TIP3   OH263372   3.121   5.613  15.191 -0.2092  0.9000  0.2418
13986TIP3    H163373   3.140   5.671  15.264  0.7871 -0.8137  1.3774
13986TIP3    H263374   3.200   5.617  15.136 -0.3823  1.0831  0.0034
13987TIP3   OH263375   5.624   3.790   4.373  0.0902  0.3703 -0.2041
13987TIP3    H163376   5.675   3.805   4.453  1.6054  2.4681 -1.5010
13987TIP3    H263377   5.669   3.842   4.306 -0.2892 -2.4441 -2.7731
13988TIP3   OH263378   5.031   5.765  15.535 -0.1625  0.1780 -0.1880
13988TIP3    H163379   5.057   5.750  15.444 -0.4856  0.5657 -0.3455
13988TIP3    H263380   5.076   5.697  15.585  0.4965  0.3332 -0.5622
13989TIP3   OH263381   0.654   3.836  13.699 -0.1443 -0.4969  0.2785
13989TIP3    H163382   0.574   3.796  13.732 -1.7781  1.1854 -1.5257
13989TIP3    H263383   0.718   3.765  13.698 -1.0117 -1.3932  3.6486
13990TIP3   OH263384   0.356   1.609  14.760 -0.2633 -0.1233 -0.6399
13990TIP3    H163385   0.262   1.622  14.747 -0.5586 -3.0087 -1.7273
13990TIP3    H263386   0.363   1.540  14.826  1.1617  2.0992  1.6254
13991TIP3   OH263387   4.830   1.534  16.150 -0.0074  0.3887 -0.2879
13991TIP3    H163388   4.915   1.507  16.115  0.1328  0.0981  0.2576
13991TIP3    H263389   4.806   1.611  16.100 -0.1289 -0.4117 -1.4773
13992TIP3   OH263390   0.240   0.824  16.418  0.0772 -0.1959 -0.5904
13992TIP3    H163391   0.162   0.789  16.461  1.9643 -1.6466  1.7957
13992TIP3    H263392   0.251   0.911  16.456  2.0128 -1.6582  2.3560
13993TIP3   OH263393   2.626   0.129   2.827  0.0662  0.1557  0.2228
13993TIP3    H163394   2.638   0.125   2.922  0.9744 -0.2499  0.0935
13993TIP3    H263395   2.622   0.223   2.808  1.0062  0.2569  0.5236
13994TIP3   OH263396   0.351   6.470   0.117 -0.0731  0.3100  0.4722
13994TIP3    H163397   0.369   6.564   0.125  0.3486  0.3004 -0.3947
13994TIP3    H263398   0.370   6.435   0.204  3.3930  0.4187 -0.1863
13995TIP3   OH263399   3.497   4.767  12.352 -0.1879  0.0506 -0.1969
13995TIP3    H163400   3.530   4.834  12.412  1.0990 -0.2123 -0.5778
13995TIP3    H263401   3.534   4.685  12.385 -0.4979 -0.2581 -0.6105
13996TIP3   OH263402   0.071   6.194   2.943  0.0824 -0.2726 -0.1212
13996TIP3    H163403   0.055   6.123   2.880  2.1469 -1.2063  0.3606
13996TIP3    H263404   0.035   6.161   3.025 -3.8630  1.5130 -1.0443
13997TIP3   OH263405   5.393   0.349   2.951  0.5717  0.0376 -0.5322
13997TIP3    H163406   5.465   0.399   2.988  1.1711 -0.6132 -0.8100
13997TIP3    H263407   5.412   0.346   2.857 -0.5752  1.0968 -0.8161
13998TIP3   OH263408   2.535   1.600   5.671  0.4104  0.5221 -0.1040
13998TIP3    H163409   2.563   1.686   5.640 -0.0561  0.2203 -1.3713
13998TIP3    H263410   2.446   1.613   5.702  0.7928  0.7700  0.9221
13999TIP3   OH263411   2.438   4.136   4.688 -0.6522  0.9444 -0.4089
13999TIP3    H163412   2.451   4.089   4.605 -0.2113  0.1370  0.1166
13999TIP3    H263413   2.360   4.096   4.726  1.1910 -1.1777  1.2731
14000TIP3   OH263414   4.729   5.643  15.017  0.0636 -0.5649 -0.2053
14000TIP3    H163415   4.808   5.681  15.055  0.1723  1.1145 -2.0313
14000TIP3    H263416   4.668   5.716  15.012 -0.8825 -1.3911 -0.7128
14001TIP3   OH263417   5.375   5.738   6.097  0.1981  0.4516 -0.2965
14001TIP3    H163418   5.454   5.698   6.061 -0.9288 -2.6402  0.5426
14001TIP3    H263419   5.371   5.706   6.187 -1.9629  0.6760 -0.2984
14002TIP3   OH263420   1.025   4.614   5.438 -0.3710  0.4879 -1.2526
14002TIP3    H163421   1.058   4.695   5.478 -3.9229  1.1646  0.5331
14002TIP3    H263422   1.065   4.544   5.489 -1.1576  1.2471  0.4465
14003TIP3   OH263423   4.884   1.747  15.052 -0.0476  0.5879 -0.3140
14003TIP3    H163424   4.816   1.767  15.117 -2.3005 -0.9519 -2.0975
14003TIP3    H263425   4.906   1.655  15.068 -0.2579  0.3473 -1.3757
14004TIP3   OH263426   1.998   2.483   3.217  0.1949 -0.1260 -0.2176
14004TIP3    H163427   2.018   2.573   3.241 -0.5600  0.2310 -0.8726
14004TIP3    H263428   2.076   2.452   3.171  0.4004  0.2416 -0.1162
14005TIP3   OH263429   5.496   6.404   4.824 -0.4436 -0.3648 -0.0921
14005TIP3    H163430   5.411   6.446   4.810  0.4541  0.6834 -2.5816
14005TIP3    H263431   5.496   6.328   4.766  0.8051  0.3776 -1.0955
14006TIP3   OH263432   0.424   4.261   2.892 -0.3193 -0.1502  0.4466
14006TIP3    H163433   0.330   4.272   2.908 -0.0509  0.9923  1.2116
14006TIP3    H263434   0.431   4.262   2.796 -1.1193 -0.5555  0.3737
14007TIP3   OH263435   1.582   4.909   1.022 -0.0826 -0.3862  0.3692
14007TIP3    H163436   1.585   4.816   1.000 -2.4375 -0.3758 -0.1329
14007TIP3    H263437   1.491   4.923   1.050 -0.0102  1.9757 -0.5412
14008TIP3   OH263438   6.544   5.827  11.324  0.1972  0.4346 -0.2774
14008TIP3    H163439   6.524   5.885  11.250 -2.0447 -0.5695 -0.5010
14008TIP3    H263440   6.639   5.827  11.329  0.2818  3.2412 -0.9755
14009TIP3   OH263441   0.318   6.521   1.542  0.0489  0.6829  0.0541
14009TIP3    H163442   0.232   6.525   1.499 -1.0417 -0.2973  2.0361
14009TIP3    H263443   0.343   6.612   1.554 -2.0261  1.0674  1.8727
14010TIP3   OH263444   2.973   5.374   4.133 -0.0142 -0.1522 -0.3286
14010TIP3    H163445   2.880   5.390   4.150  0.2574 -0.1387  1.2388
14010TIP3    H263446   3.016   5.457   4.154  0.3882 -0.2664 -0.7073
14011TIP3   OH263447   0.813   2.056   3.433 -0.5800 -0.1020  0.4947
14011TIP3    H163448   0.864   2.095   3.363 -1.4475  0.1342 -0.0133
14011TIP3    H263449   0.743   2.119   3.449 -0.2808 -0.0650  1.6971
14012TIP3   OH263450   0.545   5.653   3.363 -0.2647  0.1795 -0.4548
14012TIP3    H163451   0.510   5.588   3.423  2.2289 -0.0400  0.8435
14012TIP3    H263452   0.527   5.737   3.405  0.5911  0.0722  0.1499
14013TIP3   OH263453   2.761   5.486  14.629 -0.0330 -0.5441  0.7172
14013TIP3    H163454   2.839   5.451  14.586 -0.7200  0.4514 -1.3618
14013TIP3    H263455   2.758   5.440  14.714  2.8883 -0.4568  0.9035
14014TIP3   OH263456   4.892   4.180  12.325  0.1881 -0.2740 -0.5850
14014TIP3    H163457   4.866   4.184  12.417  1.5843 -2.3741 -0.0484
14014TIP3    H263458   4.811   4.168  12.277 -0.8203  3.2208  0.1322
14015TIP3   OH263459   2.165   3.646  17.230 -0.5240  0.0606 -0.5137
14015TIP3    H163460   2.216   3.571  17.198 -1.1192 -0.2983 -0.6346
14015TIP3    H263461   2.216   3.722  17.203  0.7514 -0.3299  0.7401
14016TIP3   OH263462   6.471   6.636   0.087 -0.2093  0.7267  0.0312
14016TIP3    H163463   6.564   6.651   0.069 -0.0749  2.0721  1.7714
14016TIP3    H263464   6.427   6.654   0.003  0.9301  1.5599 -0.3933
14017TIP3   OH263465   2.639   2.203  14.383  0.1175  0.0658  0.3607
14017TIP3    H163466   2.719   2.150  14.382 -0.4961 -0.8986  1.3023
14017TIP3    H263467   2.626   2.225  14.475  0.7748  2.5350 -0.0911
14018TIP3   OH263468   2.834   6.334   5.664  0.8322 -0.8873  0.5885
14018TIP3    H163469   2.791   6.249   5.652 -0.8417 -0.0313  0.4364
14018TIP3    H263470   2.764   6.392   5.693  1.8146  0.6415 -0.0720
14019TIP3   OH263471   4.752   4.406  14.004  0.4847 -0.6298  0.1265
14019TIP3    H163472   4.793   4.356  13.933  2.1589  2.1421 -0.9671
14019TIP3    H263473   4.659   4.388  13.995  0.6974 -0.6631 -2.5512
14020TIP3   OH263474   3.196   0.889  14.733 -0.1816  0.5172  0.1846
14020TIP3    H163475   3.165   0.808  14.772  2.1319 -0.4712  0.0640
14020TIP3    H263476   3.218   0.944  14.808 -3.5722  1.8397  0.2972
14021TIP3   OH263477   3.529   4.819  14.219 -0.7900 -0.1712 -0.5237
14021TIP3    H163478   3.484   4.758  14.278 -0.1302 -0.3972 -0.2559
14021TIP3    H263479   3.603   4.852  14.270 -1.3225  1.1038 -0.5497
14022TIP3   OH263480   5.234   1.318  12.404 -0.4941  1.0657 -0.4166
14022TIP3    H163481   5.270   1.288  12.321 -0.7077  2.7177 -1.1050
14022TIP3    H263482   5.149   1.274  12.411  0.2074 -0.2991 -0.3114
14023TIP3   OH263483   5.560   4.393  17.082 -0.2116 -0.0789 -0.3029
14023TIP3    H163484   5.619   4.466  17.100 -0.6974  0.2128  0.1208
14023TIP3    H263485   5.593   4.356  17.000  0.9610 -0.3461  0.2801
14024TIP3   OH263486   2.489   4.548   3.812  0.1165  0.5161 -0.1867
14024TIP3    H163487   2.582   4.573   3.815  0.0275  0.9373 -0.8445
14024TIP3    H263488   2.491   4.453   3.800  0.4607  0.4465  0.3897
14025TIP3   OH263489   6.013   4.829   1.317  0.3789  0.0100 -0.1933
14025TIP3    H163490   5.950   4.864   1.254 -0.1716  1.2997  1.0417
14025TIP3    H263491   6.078   4.899   1.326  1.3058 -0.8092 -0.5118
14026TIP3   OH263492   4.726   0.098   2.195 -0.2036  0.2155  0.1275
14026TIP3    H163493   4.737   0.034   2.266 -1.1875  0.8901  0.9025
14026TIP3    H263494   4.757   0.053   2.117  1.6477 -0.2609  1.1150
14027TIP3   OH263495   1.838   2.987  16.113 -0.1624 -0.4191  0.1921
14027TIP3    H163496   1.857   3.037  16.193  1.4968 -1.1657  0.2926
14027TIP3    H263497   1.781   3.044  16.062 -0.5256  0.4320  1.5247
14028TIP3   OH263498   2.210   0.371  15.796  0.2169 -0.0409 -0.2094
14028TIP3    H163499   2.282   0.309  15.810 -0.4341 -0.4349  1.4125
14028TIP3    H263500   2.241   0.453  15.837  0.0540 -0.0016 -0.1628
14029TIP3   OH263501   4.207   6.598  11.532 -0.1114 -0.0081  0.3194
14029TIP3    H163502   4.266   6.605  11.457  1.1874  1.2983  1.4234
14029TIP3    H263503   4.160   6.681  11.533 -1.3738 -0.7130 -0.0603
14030TIP3   OH263504   4.301   2.688   5.826 -0.2193 -0.5807  0.5727
14030TIP3    H163505   4.283   2.765   5.879 -0.0678  1.0461 -1.7006
14030TIP3    H263506   4.396   2.688   5.815 -0.2814 -0.7364  0.0244
14031TIP3   OH263507   5.123   6.174  15.325 -0.2105 -0.3301  0.2046
14031TIP3    H163508   5.073   6.133  15.395  0.1547 -0.6257  0.2899
14031TIP3    H263509   5.062   6.178  15.251 -0.1438 -1.3295  0.0892
14032TIP3   OH263510   4.603   6.551   0.457 -0.2590  0.0926 -0.3551
14032TIP3    H163511   4.560   6.489   0.517  1.6258 -1.2655 -0.3753
14032TIP3    H263512   4.689   6.513   0.441  0.1785  1.7169 -1.9828
14033TIP3   OH263513   2.553   3.786   3.574  0.1932 -0.1469  0.1822
14033TIP3    H163514   2.474   3.748   3.537 -0.3615  0.7654  0.4074
14033TIP3    H263515   2.531   3.804   3.665  0.6561  0.1048  0.2457
14034TIP3   OH263516   1.024   3.251   3.658  0.2105 -0.1853  0.7349
14034TIP3    H163517   1.111   3.281   3.684  0.9190 -1.8142  0.3118
14034TIP3    H263518   0.969   3.329   3.664  1.7453  0.9206  0.7667
14035TIP3   OH263519   5.111   5.646  12.019 -0.4496  0.2011 -0.6004
14035TIP3    H163520   5.194   5.689  12.002 -0.2221 -0.0820 -0.1972
14035TIP3    H263521   5.117   5.563  11.971 -0.6763  0.3785 -0.9394
14036TIP3   OH263522   6.700   2.304  13.301  0.2143 -0.2923  0.0812
14036TIP3    H163523   6.629   2.367  13.288 -0.4361 -1.0439 -0.0739
14036TIP3    H263524   6.777   2.357  13.319 -0.3519  0.5411  0.0533
14037TIP3   OH263525   5.086   0.586  13.555 -0.5096  0.1116  0.4873
14037TIP3    H163526   5.172   0.552  13.580 -0.1608  0.4263 -0.2710
14037TIP3    H263527   5.103   0.678  13.533 -0.5490 -0.5100 -2.2258
14038TIP3   OH263528   6.219   3.793  11.657 -0.6821  0.2886  0.1893
14038TIP3    H163529   6.208   3.750  11.742 -2.6721  0.7075  0.1808
14038TIP3    H263530   6.152   3.861  11.656 -2.0725 -1.0166 -2.5148
14039TIP3   OH263531   3.649   5.635  14.748  0.1834 -0.2969  0.3160
14039TIP3    H163532   3.700   5.573  14.800  2.1305  0.8780 -0.1342
14039TIP3    H263533   3.704   5.714  14.745 -1.4927  0.8665 -0.5289
14040TIP3   OH263534   0.046   1.967   0.452  0.3654  0.9148 -0.2614
14040TIP3    H163535   0.062   1.989   0.544  0.8890 -0.9006  0.1057
14040TIP3    H263536   0.046   1.872   0.450 -0.0458  0.9353 -2.0910
14041TIP3   OH263537   6.158   1.146   6.805 -0.5270 -0.1871  0.2378
14041TIP3    H163538   6.214   1.177   6.734 -1.0165  1.3032  0.4798
14041TIP3    H263539   6.076   1.194   6.793 -0.4034  0.5439  2.1704
14042TIP3   OH263540   2.591   5.005   0.329 -0.1035  0.2996 -0.1797
14042TIP3    H163541   2.560   4.965   0.247 -0.6108 -1.1264  0.6933
14042TIP3    H263542   2.686   5.012   0.318 -0.2879  1.1830 -1.3475
14043TIP3   OH263543   2.423   0.148  12.704  0.0997  0.6249  0.0802
14043TIP3    H163544   2.414   0.053  12.705 -0.3514  0.6689  0.9716
14043TIP3    H263545   2.516   0.163  12.688  0.6656 -0.0248  2.4493
14044TIP3   OH263546   0.066   0.380   3.881 -0.2182 -0.1302  0.2368
14044TIP3    H163547   0.058   0.467   3.920 -0.1650 -1.3042  2.9647
14044TIP3    H263548  -0.025   0.351   3.869 -0.2388  0.4951 -1.1271
14045TIP3   OH263549   2.364   3.659  11.479  0.2920 -0.2489  0.2575
14045TIP3    H163550   2.403   3.721  11.541  2.0801 -0.8562 -0.2404
14045TIP3    H263551   2.391   3.691  11.393 -3.1871  1.3013 -0.3604
14046TIP3   OH263552   4.998   1.822   4.965  0.1316  0.4905 -0.1139
14046TIP3    H163553   4.961   1.736   4.945  1.3047 -0.1425  0.3605
14046TIP3    H263554   5.012   1.863   4.880  1.0210 -0.4348 -0.4311
14047TIP3   OH263555   5.918   6.654  13.218  0.1277  0.3219  0.4354
14047TIP3    H163556   5.894   6.693  13.302  0.1705  1.0813  0.0987
14047TIP3    H263557   5.976   6.719  13.177 -0.6127  0.3645 -0.5646
14048TIP3   OH263558   2.405   0.214   1.269 -0.2238  0.3285  0.1072
14048TIP3    H163559   2.358   0.296   1.257 -1.0695 -0.2211 -0.4553
14048TIP3    H263560   2.350   0.163   1.329 -1.4217 -1.1088 -2.1103
14049TIP3   OH263561   2.794   5.444   6.129  0.2602  0.0835  0.3996
14049TIP3    H163562   2.782   5.493   6.211 -0.6108  0.8495 -0.1791
14049TIP3    H263563   2.876   5.477   6.094 -0.0589  0.7649  0.2769
14050TIP3   OH263564   1.128   1.385   5.512 -0.0373  0.3742 -0.0489
14050TIP3    H163565   1.220   1.407   5.515  0.2398 -0.3691 -1.9747
14050TIP3    H263566   1.085   1.463   5.477 -0.4466  1.4678  2.7790
14051TIP3   OH263567   0.692   1.746  14.958 -0.3871 -0.5578  0.0166
14051TIP3    H163568   0.729   1.833  14.963  0.7418 -1.0591  0.5795
14051TIP3    H263569   0.597   1.760  14.950 -0.6250  0.7286  3.8506
14052TIP3   OH263570   6.177   5.763   0.024  0.0841 -0.0160 -0.3686
14052TIP3    H163571   6.124   5.759   0.104 -0.0125 -2.4256 -0.5233
14052TIP3    H263572   6.266   5.776   0.055 -0.3558  2.5695 -0.0476
14053TIP3   OH263573   0.392   2.518  15.991 -0.5654 -0.0710 -0.1635
14053TIP3    H163574   0.403   2.572  15.912 -0.7432 -0.2764 -0.3285
14053TIP3    H263575   0.443   2.563  16.058 -0.9207  0.4483 -0.2350
14054TIP3   OH263576   5.059   3.742   5.269 -0.7497  0.4359  0.1642
14054TIP3    H163577   5.139   3.794   5.273  0.0466 -0.6307 -1.3339
14054TIP3    H263578   5.046   3.709   5.358  0.5989  0.4368  0.3639
14055TIP3   OH263579   0.297   6.702  13.090  0.5243  0.3227  0.2649
14055TIP3    H163580   0.381   6.691  13.134  1.3581 -0.6828 -1.5196
14055TIP3    H263581   0.319   6.744  13.007 -0.3189 -2.7210 -1.5870
14056TIP3   OH263582   1.709   3.934  12.450  0.0655  0.4673 -0.1820
14056TIP3    H163583   1.732   3.898  12.535  1.0824  2.5323  0.4552
14056TIP3    H263584   1.618   3.906  12.436  0.2894 -0.9042  1.0183
14057TIP3   OH263585   3.600   2.911  13.824 -0.0072  0.5387 -0.5675
14057TIP3    H163586   3.529   2.975  13.822 -1.1599 -0.5662  1.8809
14057TIP3    H263587   3.624   2.905  13.916  2.3776 -0.1077 -1.1946
14058TIP3   OH263588   0.762   0.362   6.362  0.2075 -0.2337 -0.0640
14058TIP3    H163589   0.786   0.455   6.363 -0.6259  0.0349 -2.3804
14058TIP3    H263590   0.719   0.348   6.446 -0.2816  1.6578  0.0443
14059TIP3   OH263591   6.205   5.615  16.742 -0.0150  0.3225 -0.4654
14059TIP3    H163592   6.203   5.634  16.648  0.7640 -1.8312 -0.9450
14059TIP3    H263593   6.129   5.557  16.756  0.9695 -0.9229 -0.1505
14060TIP3   OH263594   5.868   4.468  13.242  0.6146 -0.1066  0.3806
14060TIP3    H163595   5.854   4.563  13.240  0.6343 -0.0799  1.6067
14060TIP3    H263596   5.909   4.449  13.157  3.2609  1.4119  1.2431
14061TIP3   OH263597   3.864   6.776   4.864 -0.5215  0.0092 -0.1362
14061TIP3    H163598   3.775   6.755   4.891  0.3699 -1.6058  1.6616
14061TIP3    H263599   3.920   6.731   4.927  1.6595 -2.5045 -3.6775
14062TIP3   OH263600   2.599   3.641   2.203  0.1549 -0.3340  0.7878
14062TIP3    H163601   2.630   3.550   2.204  1.9820  0.2846  2.5001
14062TIP3    H263602   2.621   3.673   2.115 -1.6746 -1.8892 -0.2896
14063TIP3   OH263603   2.463   1.593   1.372  0.0740 -0.1323 -0.0521
14063TIP3    H163604   2.372   1.565   1.372 -0.0413  0.2436 -0.3648
14063TIP3    H263605   2.460   1.687   1.388  0.4406 -0.2253  0.5954
14064TIP3   OH263606   4.689   3.834   0.683 -0.9295  0.0698  0.1100
14064TIP3    H163607   4.764   3.869   0.634 -0.3423 -0.1228  0.8640
14064TIP3    H263608   4.676   3.746   0.648 -1.0100  0.2275 -0.2548
14065TIP3   OH263609   3.273   4.863  15.741 -0.1954 -0.5166  0.1481
14065TIP3    H163610   3.229   4.805  15.679 -0.6776 -0.2118  0.2073
14065TIP3    H263611   3.311   4.805  15.807 -0.2693 -0.7928 -0.0554
14066TIP3   OH263612   1.222   3.166   0.828  0.7193  0.3089 -0.0426
14066TIP3    H163613   1.160   3.116   0.774  1.1131 -0.2016 -0.0299
14066TIP3    H263614   1.210   3.131   0.916  0.0885  1.1311  0.2025
14067TIP3   OH263615   1.671   5.527   4.689  0.1215 -0.6945  0.0086
14067TIP3    H163616   1.638   5.563   4.771  0.6199 -0.6462  0.1961
14067TIP3    H263617   1.610   5.457   4.667 -0.3748 -0.2837  0.0842
14068TIP3   OH263618   6.614   0.967   4.550 -0.4373  0.2941 -0.2159
14068TIP3    H163619   6.632   0.996   4.640 -1.7680  0.3462  0.0383
14068TIP3    H263620   6.579   0.879   4.560 -0.9184  0.4360 -0.6589
14069TIP3   OH263621   2.630   0.867  12.712 -0.5194 -0.8539  0.2544
14069TIP3    H163622   2.680   0.946  12.732 -1.1276 -0.8351  1.7913
14069TIP3    H263623   2.587   0.886  12.629  0.0438  0.0787  0.1623
14070TIP3   OH263624   1.977   5.290   1.067  0.2102  0.0398 -0.0537
14070TIP3    H163625   1.986   5.357   1.135  0.1295 -0.9967  1.0044
14070TIP3    H263626   1.913   5.228   1.103  1.4051 -1.3974 -0.3595
14071TIP3   OH263627   2.883   6.280   3.623  0.5349  0.0961  0.2149
14071TIP3    H163628   2.926   6.363   3.600 -0.6307  0.6271 -0.0871
14071TIP3    H263629   2.798   6.284   3.579 -0.1613 -0.5942  1.4640
14072TIP3   OH263630   6.775   4.633  14.034 -0.2281  0.0555  0.3592
14072TIP3    H163631   6.711   4.619  13.964  0.2265  0.3914 -0.1362
14072TIP3    H263632   6.856   4.657  13.988 -0.1500  1.1239  1.0307
14073TIP3   OH263633   0.101   6.434   3.266 -0.0877  0.3292 -0.3469
14073TIP3    H163634   0.008   6.427   3.244  0.1989 -2.0174 -1.0371
14073TIP3    H263635   0.109   6.516   3.314 -2.0565  1.8385 -2.5182
14074TIP3   OH263636   3.444   1.782   1.207  0.8714 -0.5877  0.1446
14074TIP3    H163637   3.448   1.689   1.231  1.1899 -0.2634  1.3555
14074TIP3    H263638   3.533   1.814   1.221  0.4915  0.1706  0.8297
14075TIP3   OH263639   4.635   5.291  15.075 -0.7885  0.0669  0.0126
14075TIP3    H163640   4.632   5.217  15.015  0.5463  0.0477 -0.0639
14075TIP3    H263641   4.547   5.298  15.110 -1.5224 -0.0950 -1.7416
14076TIP3   OH263642   0.997   6.306  10.822 -0.4802 -0.3005  0.0902
14076TIP3    H163643   1.026   6.223  10.782  2.4040  0.3838  0.6674
14076TIP3    H263644   1.071   6.365  10.811 -1.6188  1.5079  1.8345
14077TIP3   OH263645   2.009   6.121   0.661  0.4322 -0.3620 -0.3325
14077TIP3    H163646   1.939   6.118   0.596 -0.1295  0.7073  0.2064
14077TIP3    H263647   2.076   6.063   0.627 -0.6491 -1.2706 -0.9373
14078TIP3   OH263648   3.355   4.452  12.339 -0.1836  0.8268 -0.2678
14078TIP3    H163649   3.437   4.501  12.330  0.2800  0.1865  0.4343
14078TIP3    H263650   3.375   4.366  12.301  0.1211 -0.0411  1.8084
14079TIP3   OH263651   4.007   0.510   0.399  0.2922 -0.5879  0.5477
14079TIP3    H163652   4.034   0.575   0.334 -0.3756  1.5643  2.3572
14079TIP3    H263653   4.086   0.491   0.449  0.4607 -1.0523  0.0988
14080TIP3   OH263654   0.504   4.300  16.308  0.3150  0.1495  0.4459
14080TIP3    H163655   0.434   4.287  16.245 -0.5068  1.8514  1.0045
14080TIP3    H263656   0.584   4.292  16.257 -0.3274  0.4980 -0.6101
14081TIP3   OH263657   0.843   1.007  16.959 -0.1196  0.2303 -0.0917
14081TIP3    H163658   0.749   1.025  16.952  0.0544  1.0814 -0.3035
14081TIP3    H263659   0.877   1.081  17.011  0.1368 -1.0034  1.5288
14082TIP3   OH263660   4.299   6.439   4.528 -0.3022  0.4324 -0.2804
14082TIP3    H163661   4.295   6.460   4.621  2.0650  0.0725 -0.0882
14082TIP3    H263662   4.321   6.522   4.486 -2.4165  0.8395 -0.6614
14083TIP3   OH263663   3.148   6.490   2.747  0.5575  0.7593 -0.1691
14083TIP3    H163664   3.191   6.568   2.780  2.0271 -0.6843  1.4416
14083TIP3    H263665   3.143   6.431   2.822 -4.6133  0.9581 -0.1730
14084TIP3   OH263666   6.690   5.590  16.895 -0.7822 -0.1621 -0.3091
14084TIP3    H163667   6.618   5.636  16.939 -1.6531 -2.2335  0.5153
14084TIP3    H263668   6.755   5.657  16.879 -1.4129  1.0916  2.1726
14085TIP3   OH263669   6.737   4.860  11.492 -0.2504 -0.4560 -0.2886
14085TIP3    H163670   6.821   4.885  11.456 -0.7725  0.7577 -0.6842
14085TIP3    H263671   6.749   4.770  11.521  1.4264 -0.0137  0.4449
14086TIP3   OH263672   1.950   5.822   2.439  0.3840 -0.4653  0.3741
14086TIP3    H163673   1.859   5.793   2.446  0.2274 -0.4729 -1.4032
14086TIP3    H263674   1.946   5.916   2.456 -0.4517  0.1267 -2.8466
14087TIP3   OH263675   3.259   2.513  12.744 -0.1535  0.4535  0.3062
14087TIP3    H163676   3.330   2.576  12.753 -0.5176  1.0011 -0.5808
14087TIP3    H263677   3.287   2.453  12.675  0.1584 -0.3325  1.0926
14088TIP3   OH263678   0.286   6.687  11.164  0.1825 -0.0183 -0.0069
14088TIP3    H163679   0.375   6.677  11.130  0.5543 -0.5085  1.0834
14088TIP3    H263680   0.232   6.635  11.105  0.7169 -0.2428 -0.2974
14089TIP3   OH263681   1.969   2.718  16.638  0.0338  0.2838 -0.4722
14089TIP3    H163682   1.973   2.688  16.547 -2.2080  0.4462 -0.6641
14089TIP3    H263683   1.985   2.812  16.633  0.8141  0.1472 -0.5891
14090TIP3   OH263684   5.024   0.728   3.227  0.0156  0.7477 -0.4849
14090TIP3    H163685   4.966   0.733   3.151  0.2102  0.8653 -0.6249
14090TIP3    H263686   5.024   0.816   3.264  0.8976  1.0009 -1.0735
14091TIP3   OH263687   1.768   0.306  14.537  0.4407  0.1250  0.1476
14091TIP3    H163688   1.673   0.290  14.538  0.3192  0.6474 -1.6348
14091TIP3    H263689   1.785   0.351  14.620 -0.5511 -1.6558  1.3470
14092TIP3   OH263690   2.334   1.296   2.612  0.2938 -0.7651  0.0567
14092TIP3    H163691   2.351   1.385   2.644 -0.0622 -0.8342  0.4270
14092TIP3    H263692   2.241   1.281   2.628  0.1218 -0.8265 -0.9388
14093TIP3   OH263693   1.256   2.054   2.950  0.1600  0.5534 -0.4387
14093TIP3    H163694   1.281   2.134   2.998 -1.1916  0.3215  0.6790
14093TIP3    H263695   1.274   1.983   3.012  0.7285  0.0347 -1.1926
14094TIP3   OH263696   4.921   4.600   4.129 -0.7219  0.1564  0.3397
14094TIP3    H163697   4.905   4.506   4.122 -1.3537  0.1987  1.2350
14094TIP3    H263698   4.992   4.616   4.067 -1.3069 -0.7386 -0.5844
14095TIP3   OH263699   6.460   0.500  16.225 -0.1829  0.4704  0.2061
14095TIP3    H163700   6.380   0.546  16.250 -0.7369  0.9905 -2.3872
14095TIP3    H263701   6.432   0.409  16.213 -0.4162  0.6843 -0.8616
14096TIP3   OH263702   2.227   1.377  15.006  0.0804  0.6056  0.1012
14096TIP3    H163703   2.277   1.298  14.987 -0.7326  0.2240 -0.4599
14096TIP3    H263704   2.205   1.370  15.099 -2.4449 -1.2467 -0.5958
14097TIP3   OH263705   3.809   6.378   1.170 -0.2963 -0.6351  0.0756
14097TIP3    H163706   3.897   6.341   1.170 -0.6938 -1.5907  0.5429
14097TIP3    H263707   3.764   6.332   1.099  0.2065  1.3867 -1.5917
14098TIP3   OH263708   1.703   5.355  12.845  0.4006 -0.0120 -0.4474
14098TIP3    H163709   1.672   5.278  12.892  1.0129  0.4621  0.7478
14098TIP3    H263710   1.651   5.427  12.880  0.7180  0.3111 -0.6378
14099TIP3   OH263711   4.485   4.318  12.977  0.8663  0.3606  0.0259
14099TIP3    H163712   4.401   4.305  12.932  0.9214  0.3957 -0.0853
14099TIP3    H263713   4.533   4.380  12.922  0.7126  0.8310  0.4179
14100TIP3   OH263714   5.195   3.106   2.439  0.2706 -0.2888  0.1045
14100TIP3    H163715   5.147   3.035   2.481 -1.0385  1.3330  1.4307
14100TIP3    H263716   5.128   3.156   2.393  1.2543 -0.2192 -1.2769
14101TIP3   OH263717   0.974   2.945   3.758 -0.4179 -0.0883 -0.0630
14101TIP3    H163718   0.998   2.945   3.666 -1.8676 -1.0343 -0.4634
14101TIP3    H263719   0.964   3.037   3.781 -2.0818  0.0945 -1.4189
14102TIP3   OH263720   0.010   1.740  11.898  0.0065  0.3086  0.2288
14102TIP3    H163721  -0.077   1.746  11.858 -0.3360 -0.7980  0.7720
14102TIP3    H263722   0.067   1.788  11.838 -0.3346 -1.9829 -2.0526
14103TIP3   OH263723   0.092   4.215  11.343 -0.3627 -0.4852 -0.0429
14103TIP3    H163724   0.146   4.281  11.300  0.1083  0.4480  1.9438
14103TIP3    H263725   0.002   4.248  11.334 -0.0317  1.0013  1.8941
14104TIP3   OH263726   1.653   2.777   6.241  0.3306  0.1530 -0.2088
14104TIP3    H163727   1.604   2.697   6.222  1.9460 -0.8611 -0.2305
14104TIP3    H263728   1.593   2.848   6.217 -0.6329 -1.0547 -1.4786
14105TIP3   OH263729   5.095   6.573   0.297  1.3955  0.4402  0.1190
14105TIP3    H163730   5.188   6.560   0.313  1.9093  0.0498 -2.8736
14105TIP3    H263731   5.083   6.552   0.204 -1.8256 -0.3184  0.6323
14106TIP3   OH263732   1.124   3.987  12.380  0.4926 -0.8269  0.5175
14106TIP3    H163733   1.075   3.923  12.329 -1.4230  2.2521 -1.7605
14106TIP3    H263734   1.189   4.021  12.319  0.3432  0.5771  1.1216
14107TIP3   OH263735   3.813   0.921  12.084  0.2138 -0.0662  0.1213
14107TIP3    H163736   3.743   0.873  12.041 -0.8785  0.8863  0.8194
14107TIP3    H263737   3.832   0.994  12.024 -0.2082  0.3522  0.4982
14108TIP3   OH263738   4.292   1.585   2.961 -0.7751  0.0074  0.0242
14108TIP3    H163739   4.229   1.621   3.024 -2.1510 -0.4452 -1.0743
14108TIP3    H263740   4.241   1.573   2.881  0.7139 -0.3993 -0.8674
14109TIP3   OH263741   3.553   4.690  14.818  0.3391  0.4551 -0.1472
14109TIP3    H163742   3.515   4.771  14.785  1.3854  1.1068  0.2196
14109TIP3    H263743   3.546   4.629  14.745 -2.3722  0.2160  0.2475
14110TIP3   OH263744   0.540   4.229   3.949 -0.2328 -0.1456 -0.2190
14110TIP3    H163745   0.575   4.288   3.882 -0.4580  1.0030  0.6639
14110TIP3    H263746   0.590   4.148   3.937  0.3714  0.3464 -1.1754
14111TIP3   OH263747   2.402   4.081  13.711  0.4762  0.3619 -0.2866
14111TIP3    H163748   2.444   4.158  13.672  2.9104 -0.2112  1.1384
14111TIP3    H263749   2.403   4.098  13.805  0.8101 -1.3141  0.0250
14112TIP3   OH263750   0.507   1.347  13.536  0.4615 -0.8259 -0.7418
14112TIP3    H163751   0.454   1.296  13.598 -0.2696 -1.2040 -1.6624
14112TIP3    H263752   0.577   1.384  13.589 -0.3087 -0.9293  0.3584
14113TIP3   OH263753   5.290   1.067  12.493 -0.2445 -0.1386 -0.0663
14113TIP3    H163754   5.202   1.040  12.468 -0.5147  0.6260  0.0401
14113TIP3    H263755   5.288   1.163  12.487  0.6103 -0.1235 -0.1756
14114TIP3   OH263756   4.960   6.449   5.589  0.2755 -0.4802  0.0770
14114TIP3    H163757   4.874   6.407   5.593  0.1292 -0.1687  0.1793
14114TIP3    H263758   4.942   6.539   5.563  0.5121 -0.2140  0.8188
14115TIP3   OH263759   4.812   6.767  15.116 -0.0798  0.2081 -0.2166
14115TIP3    H163760   4.787   6.675  15.109  0.9600  0.0188 -1.4838
14115TIP3    H263761   4.828   6.795  15.026 -1.7578  2.0313  0.0161
14116TIP3   OH263762   4.304   1.853  11.468 -0.4662  0.3560  0.0093
14116TIP3    H163763   4.264   1.940  11.471 -1.4136 -0.1004  1.0082
14116TIP3    H263764   4.370   1.854  11.537  0.4218  0.6984 -0.8291
14117TIP3   OH263765   1.787   0.385  10.812 -0.6039  0.0840 -0.5006
14117TIP3    H163766   1.869   0.434  10.817 -0.4209 -0.1635 -1.0519
14117TIP3    H263767   1.767   0.381  10.718 -0.5772 -0.9565 -0.4684
14118TIP3   OH263768   5.054   5.247   3.090 -0.4099 -0.0528  0.1394
14118TIP3    H163769   4.991   5.288   3.148  2.4147  0.7057  2.7873
14118TIP3    H263770   5.077   5.165   3.133  3.3858  1.5482  1.3520
14119TIP3   OH263771   4.623   5.247   4.044 -0.7241 -0.2941 -0.1926
14119TIP3    H163772   4.657   5.312   3.983  0.4713 -1.8048 -1.1946
14119TIP3    H263773   4.667   5.165   4.018 -0.9769 -1.1666  2.0530
14120TIP3   OH263774   0.644   6.039   0.603  0.1746 -0.1803  0.5522
14120TIP3    H163775   0.683   5.975   0.543  0.1875 -1.6220  2.0463
14120TIP3    H263776   0.554   6.049   0.573  0.7129  0.5273 -0.8301
14121TIP3   OH263777   1.462   0.062   6.285 -0.4825  0.1032  0.1785
14121TIP3    H163778   1.406   0.001   6.236  0.7846 -1.1303  0.2184
14121TIP3    H263779   1.543   0.065   6.235  0.1701  0.2464  1.2305
14122TIP3   OH263780   1.812   0.252  11.708  0.5097 -0.0514 -0.7280
14122TIP3    H163781   1.774   0.166  11.689 -0.0853  0.2455 -0.8904
14122TIP3    H263782   1.759   0.314  11.658  0.1720  0.5375  0.3288
14123TIP3   OH263783   0.104   5.707  11.836 -0.4140 -0.5885 -0.3084
14123TIP3    H163784   0.018   5.733  11.803 -0.1348  0.7807  0.0129
14123TIP3    H263785   0.092   5.699  11.930 -0.0677  0.1584 -0.1935
14124TIP3   OH263786   3.792   2.867  16.837 -0.4166  0.6635  0.3722
14124TIP3    H163787   3.804   2.778  16.869 -0.0366  0.3943 -0.4967
14124TIP3    H263788   3.879   2.906  16.841  0.0657 -0.0259 -2.2110
14125TIP3   OH263789   2.535   3.066  12.022  0.0818 -0.2119 -0.4631
14125TIP3    H163790   2.585   3.147  12.036 -0.5836 -0.2833  2.6804
14125TIP3    H263791   2.474   3.087  11.951  0.1867  1.9304  0.0502
14126TIP3   OH263792   0.829   4.903  16.515  0.4614  0.4452  0.4211
14126TIP3    H163793   0.743   4.918  16.554 -1.0431 -0.2245 -2.5175
14126TIP3    H263794   0.879   4.982  16.535 -0.9415  0.9710  1.8839
14127TIP3   OH263795   5.109   2.000   3.068  0.1096 -0.3584  0.4184
14127TIP3    H163796   5.159   2.080   3.083  0.5384 -0.5801  0.1808
14127TIP3    H263797   5.134   1.943   3.141  0.3696 -0.5476  0.1848
14128TIP3   OH263798   1.717   4.558   3.812 -0.2465  0.6145  0.2381
14128TIP3    H163799   1.794   4.529   3.763 -1.1992 -0.7509 -0.4915
14128TIP3    H263800   1.699   4.486   3.873 -0.4506  1.3003  0.9949
14129TIP3   OH263801   5.924   6.291  16.395 -0.1639  0.8063  0.0006
14129TIP3    H163802   5.981   6.230  16.441  0.4103  1.6502  0.4042
14129TIP3    H263803   5.938   6.272  16.303 -2.3110 -1.8205  0.1506
14130TIP3   OH263804   6.449   4.870   0.714  0.1998  0.6465 -0.3715
14130TIP3    H163805   6.435   4.844   0.806  1.4635 -0.5742 -0.5154
14130TIP3    H263806   6.457   4.965   0.717  1.1758  0.5313  0.9128
14131TIP3   OH263807   0.524   6.480   3.170  0.0818  0.1298  0.5829
14131TIP3    H163808   0.606   6.430   3.171  1.0011  1.5364 -1.0104
14131TIP3    H263809   0.490   6.468   3.081 -0.5948  0.8656  0.7353
14132TIP3   OH263810   5.508   0.695  16.894 -0.1170 -0.0899  0.3299
14132TIP3    H163811   5.510   0.625  16.960 -1.9466 -0.7752 -0.3232
14132TIP3    H263812   5.424   0.739  16.908 -0.4460 -0.1463 -1.4409
14133TIP3   OH263813   5.759   3.619   1.903  0.3839  0.2420  0.1351
14133TIP3    H163814   5.665   3.617   1.918  0.6200  1.2769  1.9698
14133TIP3    H263815   5.778   3.539   1.854 -1.3838 -0.1618  0.0870
14134TIP3   OH263816   5.259   2.666  12.968 -0.4378  0.2203 -0.4635
14134TIP3    H163817   5.223   2.742  12.923  1.7268  0.4428 -1.9264
14134TIP3    H263818   5.211   2.591  12.932  0.4735  0.5087 -2.3301
14135TIP3   OH263819   5.206   0.025   5.961  0.1132  0.1771 -0.1075
14135TIP3    H163820   5.225  -0.067   5.975 -0.2926 -0.1416 -1.5435
14135TIP3    H263821   5.258   0.071   6.026 -0.8703 -1.1346  1.6325
14136TIP3   OH263822   0.802   5.778   1.959  0.0863 -0.2133 -0.1786
14136TIP3    H163823   0.843   5.837   1.897  1.3750 -0.8335  0.0574
14136TIP3    H263824   0.750   5.834   2.016  0.4822  0.5699 -0.5891
14137TIP3   OH263825   0.398   5.655   1.504  0.0696 -0.3492  0.4262
14137TIP3    H163826   0.464   5.702   1.555  0.7451  0.4537 -1.1500
14137TIP3    H263827   0.448   5.600   1.444 -0.7103 -0.8732  0.2490
14138TIP3   OH263828   3.667   4.625   5.233 -0.6415 -0.5308 -0.0967
14138TIP3    H163829   3.631   4.605   5.146 -0.2213 -1.2002 -0.1190
14138TIP3    H263830   3.601   4.592   5.294 -0.5169 -0.8814 -0.1507
14139TIP3   OH263831   1.127   0.989   0.849  0.1255  0.1224  0.3244
14139TIP3    H163832   1.150   0.960   0.761  0.9414  0.9437  0.2699
14139TIP3    H263833   1.120   1.084   0.843 -0.3648  0.1397  1.0243
14140TIP3   OH263834   4.022   5.660  11.954  0.0142  0.3217  0.9293
14140TIP3    H163835   4.080   5.729  11.986  1.6114 -0.9800  0.8905
14140TIP3    H263836   4.045   5.650  11.862 -0.8761  0.3629  0.6916
14141TIP3   OH263837   2.462   2.120   5.821  0.6448 -0.0741 -0.9852
14141TIP3    H163838   2.446   2.108   5.914  2.0939 -1.4080 -0.8795
14141TIP3    H263839   2.557   2.115   5.812  0.4085 -2.2188 -2.8054
14142TIP3   OH263840   0.380   3.242   4.273  0.3042 -0.3812 -0.2868
14142TIP3    H163841   0.438   3.257   4.198 -0.6744 -1.3408 -1.2714
14142TIP3    H263842   0.399   3.152   4.299  0.7379 -0.0026  0.7189
14143TIP3   OH263843   3.550   2.348   1.090  0.6373 -0.1512  0.0256
14143TIP3    H163844   3.533   2.293   1.013  0.3997 -0.7348  0.4937
14143TIP3    H263845   3.483   2.417   1.085 -0.6119 -1.2819  0.7469
14144TIP3   OH263846   6.325   5.286   5.227  0.5052  0.2701  0.5821
14144TIP3    H163847   6.410   5.276   5.184  0.1990 -0.1219  0.0478
14144TIP3    H263848   6.264   5.302   5.155  0.2161  1.1587  1.0152
14145TIP3   OH263849   1.959   3.616   3.158  0.2008 -0.8542  0.2544
14145TIP3    H163850   1.951   3.706   3.128 -0.7802 -1.2217 -0.6527
14145TIP3    H263851   1.961   3.621   3.253  1.9432  0.2477  0.1722
14146TIP3   OH263852   2.421   1.972   2.414  0.3329 -0.1700  0.1158
14146TIP3    H163853   2.439   1.969   2.321  0.3867 -0.0569  0.1227
14146TIP3    H263854   2.325   1.965   2.420  0.0714  2.7493 -0.0927
14147TIP3   OH263855   2.658   5.024  11.080 -0.0981  0.8458 -0.1729
14147TIP3    H163856   2.603   4.987  11.010 -0.3184  0.4245  0.2188
14147TIP3    H263857   2.691   5.106  11.044  1.4692 -0.3660 -1.5636
14148TIP3   OH263858   3.920   5.081  10.978  0.2615  0.6295  0.2699
14148TIP3    H163859   3.945   5.171  10.996  2.4596  0.4682 -1.7225
14148TIP3    H263860   3.883   5.083  10.890  0.3838 -0.4153  0.1832
14149TIP3   OH263861   0.970   5.251   3.261  0.4372  0.9128  0.6488
14149TIP3    H163862   0.904   5.282   3.324  1.0083  0.4558  1.4832
14149TIP3    H263863   1.046   5.230   3.315  1.2473  1.3825 -0.3072
14150TIP3   OH263864   4.011   6.034   4.728  0.0914  0.1484  0.0811
14150TIP3    H163865   4.047   5.970   4.789  1.0195  0.7800  0.2073
14150TIP3    H263866   4.042   6.005   4.642  1.0155  0.7551  0.2017
14151TIP3   OH263867   0.818   5.604  12.972 -0.2382  0.0845 -0.0098
14151TIP3    H163868   0.826   5.648  13.057 -1.0112 -1.0581  0.6761
14151TIP3    H263869   0.727   5.574  12.970 -0.2352  0.1449 -1.2723
14152TIP3   OH263870   5.227   0.204   4.681 -0.4018 -0.7446 -0.0835
14152TIP3    H163871   5.290   0.250   4.737 -1.6806  1.5220 -0.4507
14152TIP3    H263872   5.278   0.176   4.605  0.9498 -2.2635  1.3311
14153TIP3   OH263873   5.609   1.660   5.513 -0.0900  0.0318 -0.2728
14153TIP3    H163874   5.690   1.674   5.561  0.1500  0.2593 -0.7453
14153TIP3    H263875   5.631   1.678   5.422 -0.4413 -0.7777 -0.5274
14154TIP3   OH263876   5.033   0.047   3.147 -0.5786  0.3072  0.4357
14154TIP3    H163877   5.017   0.030   3.054 -2.8267 -1.2826  1.0654
14154TIP3    H263878   5.012   0.140   3.159  2.3633  1.2254 -1.1437
14155TIP3   OH263879   4.734   2.641  13.180  0.2012  0.5467 -0.3524
14155TIP3    H163880   4.748   2.547  13.171  1.5589  0.6872  0.0968
14155TIP3    H263881   4.785   2.679  13.107  3.2442  1.1497  1.9668
14156TIP3   OH263882   6.345   6.736  16.096 -0.7634  0.5917 -0.6577
14156TIP3    H163883   6.362   6.745  16.003  1.6478 -1.2144 -0.4415
14156TIP3    H263884   6.262   6.690  16.101 -0.5730  0.0944 -1.9278
14157TIP3   OH263885   2.736   2.588   3.481 -0.0136  1.0086 -0.1008
14157TIP3    H163886   2.823   2.551   3.498 -1.0019 -2.0386 -1.4355
14157TIP3    H263887   2.751   2.658   3.418  1.6534  1.6490  0.9713
14158TIP3   OH263888   0.992   0.329   5.262  0.2175 -0.2615 -0.0115
14158TIP3    H163889   1.066   0.302   5.317  0.1562  0.2110  0.3099
14158TIP3    H263890   1.029   0.341   5.175  0.0730 -2.2324 -0.3542
14159TIP3   OH263891   2.169   0.048  11.285 -0.3313  0.7705 -0.8265
14159TIP3    H163892   2.137   0.087  11.367 -0.0905  0.9617 -0.8253
14159TIP3    H263893   2.243   0.103  11.259  0.7985 -0.4268 -0.1713
14160TIP3   OH263894   0.899   0.414  15.595 -0.2009  0.0506  0.7000
14160TIP3    H163895   0.819   0.363  15.583  0.1782 -0.2683 -0.5247
14160TIP3    H263896   0.970   0.352  15.579  0.2789  0.7125  0.2552
14161TIP3   OH263897   6.317   3.893   1.254 -0.0012  0.3390  0.4748
14161TIP3    H163898   6.395   3.858   1.210 -0.6866  0.6507 -1.0138
14161TIP3    H263899   6.284   3.960   1.194  0.2366  2.2670  2.4265
14162TIP3   OH263900   1.271   0.672   1.714 -0.4229 -0.2975 -0.4441
14162TIP3    H163901   1.248   0.603   1.777  0.5676 -0.1957  0.0309
14162TIP3    H263902   1.277   0.751   1.767  1.8188 -0.4612 -0.4080
14163TIP3   OH263903   3.053   6.544  12.099 -0.5489 -0.0077  0.4670
14163TIP3    H163904   3.070   6.488  12.175  2.0705 -0.1631 -0.1920
14163TIP3    H263905   3.021   6.626  12.136  1.1045  0.0600  1.7754
14164TIP3   OH263906   0.740   6.377   3.316  0.2758  0.5758 -0.2033
14164TIP3    H163907   0.810   6.412   3.372 -1.7249 -0.0755  2.7742
14164TIP3    H263908   0.787   6.324   3.251  2.7025  1.9318  0.3486
14165TIP3   OH263909   5.518   1.016  16.870  0.1722 -0.5750  0.2384
14165TIP3    H163910   5.513   1.112  16.862  1.7166 -0.6321 -1.8370
14165TIP3    H263911   5.439   0.992  16.917 -0.0681  1.7663  1.1241
14166TIP3   OH263912   4.445   3.627   0.119  0.6926  0.0120 -0.0756
14166TIP3    H163913   4.448   3.565   0.192  3.1512 -0.2249 -0.3371
14166TIP3    H263914   4.385   3.588   0.056 -1.1986  0.0549  1.6658
14167TIP3   OH263915   2.235   5.490   0.516  0.3378 -0.0046  0.2985
14167TIP3    H163916   2.169   5.424   0.537  1.0820 -1.1563 -0.8669
14167TIP3    H263917   2.231   5.498   0.421  0.3621  1.5528  0.4069
14168TIP3   OH263918   2.654   5.562  11.967 -0.4001  0.0090  0.6210
14168TIP3    H163919   2.642   5.489  11.907  0.1564 -0.1018  0.6376
14168TIP3    H263920   2.747   5.558  11.990 -0.8521 -0.6466  2.3778
14169TIP3   OH263921   3.037   0.067  16.484  0.7619  0.2798 -0.0838
14169TIP3    H163922   3.013  -0.003  16.422  2.0883 -1.9850  1.8621
14169TIP3    H263923   2.998   0.146  16.447 -3.2598 -1.9637 -0.8876
14170TIP3   OH263924   2.428   6.755  13.313  0.0127  0.8291 -0.0307
14170TIP3    H163925   2.465   6.689  13.254  0.0064  1.3613 -0.6486
14170TIP3    H263926   2.406   6.707  13.392  0.1007  0.1085 -0.4332
14171TIP3   OH263927   0.270   4.013  14.769 -0.0687 -0.0927  0.1938
14171TIP3    H163928   0.280   3.938  14.828  0.6792  0.0611  0.2622
14171TIP3    H263929   0.330   3.995  14.696 -0.8601 -0.1971 -0.4401
14172TIP3   OH263930   0.830   2.868  11.333  0.7962 -0.3426  0.3087
14172TIP3    H163931   0.889   2.871  11.258 -1.0837  0.5317 -1.1866
14172TIP3    H263932   0.826   2.958  11.364  1.0768 -0.5900  1.0723
14173TIP3   OH263933   5.454   3.219   0.727 -0.4396 -0.4134 -0.2358
14173TIP3    H163934   5.465   3.202   0.820  1.6122 -1.0848 -0.5781
14173TIP3    H263935   5.403   3.300   0.723 -1.2072 -0.8043  1.4524
14174TIP3   OH263936   5.185   4.800   3.481  0.0209  0.0009  0.7497
14174TIP3    H163937   5.133   4.801   3.400 -0.5623 -0.6274  1.1084
14174TIP3    H263938   5.249   4.730   3.467 -1.0844 -1.1833  1.4337
14175TIP3   OH263939   5.649   3.405  14.359  0.4048 -0.1959  0.0957
14175TIP3    H163940   5.698   3.475  14.317 -0.5301 -0.7408 -1.9608
14175TIP3    H263941   5.715   3.340  14.383  0.9582  0.1271 -0.5571
14176TIP3   OH263942   3.817   2.519   5.219 -0.4987 -0.1908 -0.2716
14176TIP3    H163943   3.910   2.535   5.233 -0.3599 -0.2707 -1.0479
14176TIP3    H263944   3.797   2.565   5.137 -1.1639 -0.0854 -0.0557
14177TIP3   OH263945   1.711   3.451  13.384  0.2241  0.2059  0.1440
14177TIP3    H163946   1.706   3.403  13.466 -0.4736 -0.8632 -0.5159
14177TIP3    H263947   1.638   3.513  13.388 -1.5408 -1.7419 -0.8453
14178TIP3   OH263948   5.279   5.093  13.134  0.5937 -0.7763 -0.1586
14178TIP3    H163949   5.203   5.073  13.079  0.8373 -1.8512 -0.1053
14178TIP3    H263950   5.350   5.041  13.097  1.3573  0.3907 -0.3326
14179TIP3   OH263951   3.574   5.773   2.532  0.1514 -0.7584  0.3050
14179TIP3    H163952   3.526   5.813   2.604 -0.0478 -1.1082  0.3663
14179TIP3    H263953   3.548   5.681   2.534 -0.2706 -0.6619 -0.5430
14180TIP3   OH263954   5.593   2.750  13.986  0.2022 -0.6155  0.4927
14180TIP3    H163955   5.564   2.841  13.978 -0.6937 -0.7398  2.0908
14180TIP3    H263956   5.519   2.698  13.957  0.2364 -0.8608  0.8448
14181TIP3   OH263957   2.927   1.755  16.346  0.0148 -0.0207 -0.4338
14181TIP3    H163958   2.962   1.842  16.368  0.9661 -0.3225 -0.7570
14181TIP3    H263959   2.989   1.719  16.284  0.2634 -1.4323  0.6217
14182TIP3   OH263960   4.215   0.530  11.824  0.3084  0.2630  0.0259
14182TIP3    H163961   4.309   0.545  11.829  0.1996  0.7491  0.7413
14182TIP3    H263962   4.176   0.616  11.842 -0.3311 -0.6473  3.4267
14183TIP3   OH263963   4.159   6.213   5.461  0.1914  0.2858  0.0486
14183TIP3    H163964   4.245   6.221   5.419  0.6760  0.1017  0.9911
14183TIP3    H263965   4.172   6.247   5.549 -0.9252  1.0588 -0.0760
14184TIP3   OH263966   6.076   0.264   4.630 -0.0862  0.0165  0.2852
14184TIP3    H163967   6.102   0.180   4.667 -0.8799 -0.2014  0.3534
14184TIP3    H263968   6.127   0.329   4.678  1.4109 -0.5064 -0.5691
14185TIP3   OH263969   6.565   4.294   3.369 -0.0838  0.5470  0.6217
14185TIP3    H163970   6.549   4.209   3.327 -0.5051  1.8138 -1.8634
14185TIP3    H263971   6.481   4.339   3.364  0.9446  2.3545 -1.0640
14186TIP3   OH263972   4.652   4.096  16.900 -0.1268 -0.1629 -0.2143
14186TIP3    H163973   4.735   4.133  16.869  0.1978 -0.1764  0.6388
14186TIP3    H263974   4.621   4.158  16.966 -0.0052 -0.9752  0.6154
14187TIP3   OH263975   6.439   0.510   5.064 -0.1169  0.2647  0.5463
14187TIP3    H163976   6.419   0.598   5.033 -0.3748 -0.1310 -0.4093
14187TIP3    H263977   6.393   0.503   5.148 -0.9966  0.6484  0.0973
14188TIP3   OH263978   4.529   2.605  12.925  0.0699  0.0183 -0.4808
14188TIP3    H163979   4.547   2.512  12.914  1.2679  0.2335 -0.4612
14188TIP3    H263980   4.573   2.646  12.850  2.0318  0.8304  1.0790
14189TIP3   OH263981   6.139   6.157   6.332 -0.0963  0.1848  0.5242
14189TIP3    H163982   6.078   6.229   6.350  0.2458  0.2419  1.5296
14189TIP3    H263983   6.083   6.080   6.322 -0.2709 -0.1111  3.2466
14190TIP3   OH263984   2.104   3.870  15.908 -0.5503 -0.8077 -0.1440
14190TIP3    H163985   2.067   3.959  15.912  0.4748 -0.4562  2.3687
14190TIP3    H263986   2.041   3.816  15.955 -1.6586 -1.6404 -2.5004
14191TIP3   OH263987   3.563   4.571   4.847  0.6637 -0.3092 -0.2723
14191TIP3    H163988   3.488   4.570   4.907  0.3258  0.9068 -0.6726
14191TIP3    H263989   3.567   4.481   4.813 -0.4202 -0.4619 -0.0182
14192TIP3   OH263990   2.317   6.675  11.108 -0.2718 -0.1148 -0.1466
14192TIP3    H163991   2.392   6.705  11.158  0.3436 -1.6273 -0.1365
14192TIP3    H263992   2.355   6.636  11.029 -1.1935  1.6246 -1.4786
14193TIP3   OH263993   1.840   0.183  13.429  0.3645 -0.4566 -0.2821
14193TIP3    H163994   1.859   0.151  13.517 -0.3601 -0.0900  0.0123
14193TIP3    H263995   1.749   0.213  13.433  0.9712  1.4870 -0.6058
14194TIP3   OH263996   2.761   5.237   4.560 -0.0372  0.6511 -0.3267
14194TIP3    H163997   2.685   5.286   4.528  0.4471  1.1479 -0.7285
14194TIP3    H263998   2.834   5.298   4.549  0.3855  0.2413  0.2362
14195TIP3   OH263999   3.055   5.256  13.474  0.5410  0.4880 -0.7256
14195TIP3    H164000   3.085   5.261  13.565 -0.7688 -0.4722 -0.2202
14195TIP3    H264001   3.058   5.162  13.453 -0.0206  0.6162 -1.3752
14196TIP3   OH264002   3.994   4.166   0.920  0.3665 -0.1870 -0.2719
14196TIP3    H164003   4.089   4.166   0.934  0.5865 -0.3488 -1.6132
14196TIP3    H264004   3.969   4.073   0.925  0.5515 -0.3189 -1.4625
14197TIP3   OH264005   0.816   6.227   3.095  0.3431 -0.1218  0.0546
14197TIP3    H164006   0.800   6.137   3.125  3.3910 -0.8381 -0.2774
14197TIP3    H264007   0.760   6.237   3.018  0.0584 -1.7972  0.0174
14198TIP3   OH264008   2.835   4.502  15.866 -0.0595  0.6734 -1.1266
14198TIP3    H164009   2.914   4.465  15.905 -1.1714  0.5641  1.1200
14198TIP3    H264010   2.781   4.528  15.941 -1.2868  2.6208 -2.6277
14199TIP3   OH264011   5.917   3.482   1.119  0.6771 -0.3916 -0.1097
14199TIP3    H164012   5.929   3.557   1.178 -0.6899  0.8681 -1.3787
14199TIP3    H264013   5.985   3.494   1.052 -0.2421  0.3474 -0.9240
14200TIP3   OH264014   0.596   0.789  11.587 -0.0116  0.3891  0.2113
14200TIP3    H164015   0.589   0.796  11.492 -0.1644  1.0914  0.2691
14200TIP3    H264016   0.642   0.706  11.602  2.0164  1.3769 -0.5314
14201TIP3   OH264017   6.538   4.748   1.950 -0.0139  0.0510 -0.3502
14201TIP3    H164018   6.578   4.663   1.968 -2.2484 -0.7382  1.1649
14201TIP3    H264019   6.474   4.730   1.881 -0.7449  0.4051  0.2258
14202TIP3   OH264020   5.902   3.622  15.513 -0.0542  0.1048 -0.0363
14202TIP3    H164021   5.922   3.630  15.420 -0.2331  1.3456  0.0292
14202TIP3    H264022   5.818   3.576  15.516 -0.6823  1.2132 -0.5226
14203TIP3   OH264023   4.284   3.635   2.853  0.0693 -0.1215  0.1678
14203TIP3    H164024   4.338   3.710   2.878 -0.4023  0.5052 -0.6594
14203TIP3    H264025   4.194   3.664   2.868 -0.0474 -1.1073  1.3975
14204TIP3   OH264026   5.798   1.367  14.177  0.5450 -0.2836  0.2305
14204TIP3    H164027   5.736   1.294  14.173  0.3110 -0.0262 -1.0681
14204TIP3    H264028   5.883   1.325  14.188  0.3126 -0.7170  0.4066
14205TIP3   OH264029   3.240   1.913  13.761 -0.3828  0.1301 -0.6514
14205TIP3    H164030   3.249   1.818  13.776 -0.5316  0.0744 -0.9083
14205TIP3    H264031   3.316   1.951  13.804 -0.5929 -0.0614 -0.1032
14206TIP3   OH264032   1.215   6.361   4.214 -0.1768  0.2052  0.7721
14206TIP3    H164033   1.255   6.384   4.130 -1.7577  1.4779  0.3434
14206TIP3    H264034   1.274   6.397   4.280  1.5700 -1.6114  0.2615
14207TIP3   OH264035   1.445   0.111   1.615 -0.1334 -0.0149  0.2169
14207TIP3    H164036   1.438   0.137   1.523  0.8154 -2.3444 -0.5520
14207TIP3    H264037   1.481   0.188   1.659  1.1316  0.5283 -1.6998
14208TIP3   OH264038   6.479   5.576   3.640 -0.2286 -0.3718 -0.1231
14208TIP3    H164039   6.465   5.654   3.695 -0.8664  0.8996 -2.0087
14208TIP3    H264040   6.390   5.548   3.616  0.0348 -0.9560 -0.4211
14209TIP3   OH264041   3.281   0.651   0.184 -0.3389 -0.3255 -0.0939
14209TIP3    H164042   3.326   0.645   0.268  0.0110 -2.2701 -0.3960
14209TIP3    H264043   3.191   0.625   0.203 -0.8786  1.6634  0.1396
14210TIP3   OH264044   1.929   2.477   0.437  0.0628  0.0338  0.3709
14210TIP3    H164045   1.906   2.406   0.497  0.7636  0.6841  1.4209
14210TIP3    H264046   1.880   2.552   0.469  0.3592  0.3540  0.0742
14211TIP3   OH264047   3.722   4.125  11.002 -0.4288  0.1044 -0.4617
14211TIP3    H164048   3.644   4.119  11.056 -0.2438  1.6156 -0.0095
14211TIP3    H264049   3.710   4.057  10.935 -1.8867 -0.0025 -0.1045
14212TIP3   OH264050   6.465   6.627  13.296  0.1200 -0.3699  0.0472
14212TIP3    H164051   6.400   6.626  13.366 -1.2134 -0.6405 -1.1635
14212TIP3    H264052   6.529   6.560  13.321 -0.2805 -0.3921  1.0445
14213TIP3   OH264053   1.236   4.544   5.865  0.1856  0.3423  0.1940
14213TIP3    H164054   1.308   4.519   5.923 -2.7505 -3.7795  2.3400
14213TIP3    H264055   1.264   4.515   5.779  1.2065 -1.0143  0.9614
14214TIP3   OH264056   3.309   3.294   6.963 -0.2759  0.3098 -0.0250
14214TIP3    H164057   3.320   3.200   6.979  0.7769  0.5142  0.5278
14214TIP3    H264058   3.243   3.321   7.025 -1.6090 -0.3266 -1.1385
14215TIP3   OH264059   6.409   5.580  16.119  0.3826 -0.2464  0.2808
14215TIP3    H164060   6.357   5.661  16.114  1.7636  0.6031 -0.6564
14215TIP3    H264061   6.499   5.610  16.132  1.0275 -1.5939 -0.8852
14216TIP3   OH264062   4.353   3.436  12.491  0.4430  0.6606  0.2522
14216TIP3    H164063   4.333   3.503  12.556  1.1476  0.9833  0.1406
14216TIP3    H264064   4.386   3.362  12.542  0.7198  0.8078  0.2904
14217TIP3   OH264065   0.227   3.145  15.805 -0.0502  0.1358 -0.0048
14217TIP3    H164066   0.137   3.164  15.833 -0.0221  0.8996 -0.4237
14217TIP3    H264067   0.227   3.162  15.711  0.6905  0.7285  0.0999
14218TIP3   OH264068   1.495   3.138   3.303 -0.2400 -0.4232 -0.1228
14218TIP3    H164069   1.532   3.210   3.353  1.9213 -2.6203  1.5355
14218TIP3    H264070   1.408   3.126   3.341  1.1441 -1.6870  2.8213
14219TIP3   OH264071   1.780   4.296   4.355  0.1913  0.7356 -0.0184
14219TIP3    H164072   1.727   4.374   4.371  1.0820  1.8219 -2.2117
14219TIP3    H264073   1.858   4.309   4.409  0.0919  1.0940  0.0388
14220TIP3   OH264074   4.201   0.372  13.885 -0.5227  0.8833 -0.6204
14220TIP3    H164075   4.192   0.285  13.845  1.0844  0.6089 -0.4297
14220TIP3    H264076   4.210   0.432  13.811 -3.6648  1.1963 -0.8315
14221TIP3   OH264077   1.187   6.051   3.047  0.3960 -0.0502  0.2502
14221TIP3    H164078   1.271   6.049   3.092 -1.2500 -1.5818  3.3910
14221TIP3    H264079   1.161   6.143   3.049  0.9418  0.0903  1.2531
14222TIP3   OH264080   1.568   3.359   4.273 -0.3618  0.5531 -0.0837
14222TIP3    H164081   1.475   3.379   4.260 -0.9237 -0.8748  1.5239
14222TIP3    H264082   1.573   3.327   4.363  1.6085  0.1352 -0.3269
14223TIP3   OH264083   6.002   3.034   2.579 -0.5062  0.0706  0.0341
14223TIP3    H164084   6.079   2.995   2.621 -0.5436 -1.0993 -0.9680
14223TIP3    H264085   5.950   3.069   2.652  0.3602 -0.2298  0.8062
14224TIP3   OH264086   5.182   0.474  16.925  0.3442 -0.5488  0.4821
14224TIP3    H164087   5.209   0.382  16.930  2.4766  0.1327  2.5052
14224TIP3    H264088   5.137   0.481  16.841  1.2159 -3.1811 -0.2590
14225TIP3   OH264089   0.771   3.580   3.565  0.0007 -0.3055 -0.0420
14225TIP3    H164090   0.842   3.567   3.628 -0.3895  0.2999  0.5286
14225TIP3    H264091   0.714   3.645   3.605 -0.0978  0.3190 -1.1569
14226TIP3   OH264092   0.849   3.014   1.002 -0.1710  0.0484  0.0612
14226TIP3    H164093   0.832   2.934   1.053 -0.8946  0.7123  0.8964
14226TIP3    H264094   0.814   3.085   1.057 -1.9090  0.7010 -1.8104
14227TIP3   OH264095   2.162   1.785  13.297 -0.2686  0.2189  0.0860
14227TIP3    H164096   2.111   1.804  13.218  0.8601  0.5991 -0.5630
14227TIP3    H264097   2.103   1.733  13.352 -2.0758  2.3137  0.2142
14228TIP3   OH264098   6.757   6.758   2.114 -0.3433 -0.4847 -0.1131
14228TIP3    H164099   6.812   6.781   2.039  0.6676  0.5790  0.9331
14228TIP3    H264100   6.820   6.735   2.183 -1.2720 -2.7566  0.0247
14229TIP3   OH264101   5.005   5.881  12.134 -0.1049  0.0133 -0.4131
14229TIP3    H164102   5.072   5.912  12.194  1.2551  1.0328 -2.3955
14229TIP3    H264103   5.027   5.790  12.116 -0.1811 -0.1193  0.1545
14230TIP3   OH264104   2.976   3.930  11.921 -0.1171 -0.1527 -0.4434
14230TIP3    H164105   2.933   3.845  11.936 -0.4137  0.2697  1.1520
14230TIP3    H264106   3.023   3.918  11.839 -0.3910 -1.7800 -0.3868
14231TIP3   OH264107   4.795   3.173   5.540  0.1821  0.1451  0.0754
14231TIP3    H164108   4.721   3.223   5.506 -1.3021 -1.5835  0.7002
14231TIP3    H264109   4.804   3.099   5.480  0.2631 -0.5971  0.9767
14232TIP3   OH264110   5.455   4.010   0.099 -0.7456  0.2201 -0.4910
14232TIP3    H164111   5.508   4.067   0.155 -2.2259  1.0476  0.0889
14232TIP3    H264112   5.517   3.974   0.036  0.7246  0.2282  0.9247
14233TIP3   OH264113   2.669   4.451   1.113  0.4525  0.1290  0.3647
14233TIP3    H164114   2.703   4.465   1.201  0.5852  1.0923  0.1583
14233TIP3    H264115   2.595   4.512   1.105 -0.7367 -1.2507  0.4675
14234TIP3   OH264116   6.428   2.224   4.660 -0.3750 -0.3801  0.1491
14234TIP3    H164117   6.448   2.200   4.570  0.2310 -0.2806  0.2507
14234TIP3    H264118   6.375   2.152   4.693 -0.2154 -0.6378 -0.1497
14235TIP3   OH264119   6.310   3.343   1.596  0.0934  0.6218 -0.7836
14235TIP3    H164120   6.269   3.258   1.582 -1.4403  0.9903  1.2068
14235TIP3    H264121   6.369   3.330   1.670 -0.0264  1.2463 -0.5715
14236TIP3   OH264122   0.459   2.276  12.057 -0.0491 -0.5047 -0.0564
14236TIP3    H164123   0.442   2.367  12.083 -1.2310 -1.3290  2.2250
14236TIP3    H264124   0.427   2.224  12.131  1.9589 -2.7181 -0.6882
14237TIP3   OH264125   4.107   5.562   0.725  0.0992  0.3569  0.3929
14237TIP3    H164126   4.188   5.550   0.675  0.1480 -0.4189  0.6453
14237TIP3    H264127   4.130   5.624   0.794  0.9918 -1.2647  1.5902
14238TIP3   OH264128   2.225   2.015   2.014  0.0844  0.5110 -0.0521
14238TIP3    H164129   2.136   2.007   2.049 -1.2708 -0.1503 -3.4619
14238TIP3    H264130   2.232   2.106   1.986  0.7343  0.7301  0.8019
14239TIP3   OH264131   4.049   4.984   3.846  0.2645 -0.0696  0.2248
14239TIP3    H164132   3.955   4.969   3.856  0.2818 -0.3551 -0.0178
14239TIP3    H264133   4.089   4.900   3.871  0.4179 -0.1494 -0.2818
14240TIP3   OH264134   4.260   1.123   5.461  0.1099 -0.1301  0.0619
14240TIP3    H164135   4.353   1.099   5.468  0.2503  0.2101 -0.5357
14240TIP3    H264136   4.226   1.114   5.550  0.7875  0.0227  0.3412
14241TIP3   OH264137   1.498   6.409  15.984 -0.2325 -0.1046 -0.2241
14241TIP3    H164138   1.460   6.495  16.003  0.9130  0.9422 -2.6390
14241TIP3    H264139   1.424   6.358  15.949 -1.0449 -0.3339  1.7231
14242TIP3   OH264140   5.088   0.398   5.780  0.0466  0.1490  0.2347
14242TIP3    H164141   5.043   0.461   5.835 -0.2997 -0.3081  0.4797
14242TIP3    H264142   5.020   0.334   5.756  0.2428  0.2205 -0.5324
14243TIP3   OH264143   1.853   5.134  11.082  0.1794  0.0244 -0.4501
14243TIP3    H164144   1.791   5.206  11.076  0.2703  0.2337  0.9783
14243TIP3    H264145   1.803   5.056  11.058 -0.4393  0.2900 -0.0153
14244TIP3   OH264146   0.070   6.742   4.523 -0.6687  0.1926 -0.1781
14244TIP3    H164147   0.105   6.675   4.582 -1.3212 -1.5272 -1.7072
14244TIP3    H264148   0.137   6.751   4.455 -0.6313  1.0356 -0.0362
14245TIP3   OH264149   6.087   1.361  16.706  0.1862  0.0970 -0.7435
14245TIP3    H164150   6.071   1.328  16.795  0.4967  1.7912 -0.0442
14245TIP3    H264151   6.180   1.380  16.703  0.2284 -0.2081 -1.5339
14246TIP3   OH264152   6.282   2.196   5.219 -0.1332  0.3989  0.2970
14246TIP3    H164153   6.216   2.137   5.256  0.5206 -0.9663 -0.6951
14246TIP3    H264154   6.329   2.230   5.296  0.7383 -1.8658  0.8061
14247TIP3   OH264155   2.722   2.524   3.835 -0.2395  0.4448 -0.6776
14247TIP3    H164156   2.761   2.607   3.809  0.7740  0.0564 -0.4044
14247TIP3    H264157   2.717   2.473   3.754 -1.5427  1.0253 -0.9889
14248TIP3   OH264158   5.340   5.483   4.940 -0.2088 -0.0063  0.3512
14248TIP3    H164159   5.425   5.439   4.943 -0.1741  0.0502  0.1989
14248TIP3    H264160   5.337   5.536   5.020 -0.8570 -1.4048  1.2869
14249TIP3   OH264161   4.556   2.476   5.906  0.3129 -0.5629  0.1967
14249TIP3    H164162   4.588   2.425   5.831 -0.5378  0.7294 -1.0849
14249TIP3    H264163   4.610   2.555   5.905 -0.7935  0.2030 -0.0700
14250TIP3   OH264164   1.034   1.890  13.367  0.5982  0.1486 -0.4140
14250TIP3    H164165   1.098   1.961  13.376  0.2066  0.6185 -1.2612
14250TIP3    H264166   0.988   1.910  13.286 -0.5258 -0.2759  0.1165
14251TIP3   OH264167   1.602   0.958  15.710  0.0335  0.8719  0.2817
14251TIP3    H164168   1.689   0.925  15.688 -0.0301  1.4744 -0.9441
14251TIP3    H264169   1.617   1.019  15.782  0.4179 -0.2230  1.1279
14252TIP3   OH264170   1.102   4.923   2.049 -0.2575  0.1862 -0.3756
14252TIP3    H164171   1.152   4.854   2.004 -1.4026  0.5001 -2.1548
14252TIP3    H264172   1.019   4.926   2.003 -0.6681  1.9617  0.4569
14253TIP3   OH264173   3.401   1.853  14.427 -0.5117  0.2801 -0.2671
14253TIP3    H164174   3.320   1.847  14.478  0.5666  0.3074  1.5078
14253TIP3    H264175   3.431   1.943  14.443  0.8595 -0.3406  0.6327
14254TIP3   OH264176   6.076   5.571   2.767  0.1992 -0.5433 -0.0377
14254TIP3    H164177   6.057   5.660   2.738  2.0311 -0.5849 -1.5069
14254TIP3    H264178   6.039   5.515   2.699 -0.8377 -0.9122  0.8166
14255TIP3   OH264179   5.192   6.415   1.562  0.1038 -0.0628  0.2634
14255TIP3    H164180   5.137   6.446   1.490  0.5698 -1.9055 -0.9132
14255TIP3    H264181   5.137   6.355   1.611 -0.0870  0.8926  1.2294
14256TIP3   OH264182   3.973   3.775  14.330  0.2644 -0.2824 -0.3335
14256TIP3    H164183   3.892   3.804  14.287 -2.1944 -2.0185  2.8857
14256TIP3    H264184   4.014   3.856  14.361  0.4033  0.7161 -2.9651
14257TIP3   OH264185   4.592   6.116  15.605  0.0628 -0.3431 -0.0765
14257TIP3    H164186   4.643   6.038  15.626 -0.3922 -0.3382  1.0969
14257TIP3    H264187   4.528   6.087  15.540 -0.3142 -1.0392  0.5949
14258TIP3   OH264188   6.702   0.474  12.481 -0.1608 -0.8018  0.4056
14258TIP3    H164189   6.783   0.440  12.443 -0.4591  0.5338 -1.4987
14258TIP3    H264190   6.646   0.494  12.406 -0.7871  1.9028  1.5157
14259TIP3   OH264191   4.545   6.100   6.317 -0.1675 -0.1232  0.2145
14259TIP3    H164192   4.457   6.137   6.322 -0.4230 -0.6517 -0.2061
14259TIP3    H264193   4.597   6.152   6.378 -0.7189  0.3419  0.2948
14260TIP3   OH264194   3.494   5.847   0.366 -0.1209 -0.1749 -0.0828
14260TIP3    H164195   3.561   5.916   0.369 -0.1061 -0.0774 -2.0079
14260TIP3    H264196   3.433   5.869   0.436  0.4363  1.2261 -0.0261
14261TIP3   OH264197   1.835   3.335   1.343  0.1367 -0.7392  0.0992
14261TIP3    H164198   1.920   3.320   1.303  0.5454 -2.0861  1.4090
14261TIP3    H264199   1.810   3.423   1.314  1.4300 -0.7885 -1.2299
14262TIP3   OH264200   4.964   1.657  15.872  0.4320 -0.3545  0.0278
14262TIP3    H164201   4.928   1.737  15.911 -1.4656 -1.4037  0.4968
14262TIP3    H264202   5.053   1.652  15.906  1.6500  3.1574 -2.4165
14263TIP3   OH264203   0.418   4.214   4.912  0.3360  0.1203  0.2670
14263TIP3    H164204   0.355   4.255   4.970  0.1113 -0.8462  0.7120
14263TIP3    H264205   0.479   4.169   4.971 -0.3111 -1.4664 -0.2690
14264TIP3   OH264206   0.399   3.004   6.271  0.9306 -0.2329 -0.1764
14264TIP3    H164207   0.326   2.946   6.251  0.2892  0.8943 -1.1367
14264TIP3    H264208   0.371   3.090   6.240  1.0005  1.0584  3.0894
14265TIP3   OH264209   5.360   3.563  16.328 -0.2657 -0.4779 -0.1643
14265TIP3    H164210   5.403   3.645  16.304  0.0697  0.0180  1.9409
14265TIP3    H264211   5.383   3.502  16.258 -0.7082  1.2722 -1.8781
14266TIP3   OH264212   3.512   0.937  11.398  0.6149  0.1452  0.6271
14266TIP3    H164213   3.462   0.974  11.470  2.6849 -0.3459  2.3559
14266TIP3    H264214   3.451   0.935  11.325 -0.7509  3.1657  1.6026
14267TIP3   OH264215   2.862   2.941  11.365 -0.1279  0.4048 -0.5211
14267TIP3    H164216   2.784   2.889  11.342 -1.1868  1.6855  0.1075
14267TIP3    H264217   2.888   2.908  11.451 -0.2800  0.3231 -0.5047
14268TIP3   OH264218   0.906   5.178   2.448  0.1870 -0.5322 -0.5830
14268TIP3    H164219   0.968   5.109   2.423 -1.4093 -1.6338 -1.5802
14268TIP3    H264220   0.820   5.141   2.428 -0.6851  1.8959 -1.4724
14269TIP3   OH264221   5.386   1.916  12.819  0.1797  0.4767 -0.6611
14269TIP3    H164222   5.398   1.824  12.842  0.7735  0.9700  1.1277
14269TIP3    H264223   5.305   1.942  12.863  0.6293  1.1033 -0.1853
14270TIP3   OH264224   5.127   2.016   1.469  0.4745 -0.0031  0.0702
14270TIP3    H164225   5.108   2.089   1.527 -1.9692 -0.5496  0.0285
14270TIP3    H264226   5.092   2.044   1.384  2.2552 -0.0039 -0.6848
14271TIP3   OH264227   3.403   3.438   0.408  0.0467 -0.3030 -0.1531
14271TIP3    H164228   3.421   3.428   0.315 -0.1738  0.3074 -0.2580
14271TIP3    H264229   3.359   3.522   0.416  2.5077  0.9576  0.8293
14272TIP3   OH264230   2.027   1.289  11.954 -0.4363  0.0045 -0.1803
14272TIP3    H164231   2.079   1.240  11.890 -0.7793  0.7861 -1.0776
14272TIP3    H264232   1.939   1.292  11.915 -1.3264 -1.8714  1.6270
14273TIP3   OH264233   0.352   3.438   0.453  0.3244  0.1978 -0.1996
14273TIP3    H164234   0.342   3.344   0.435  0.3451 -0.0321  0.9800
14273TIP3    H264235   0.356   3.478   0.366  3.7397 -1.2449 -0.7691
14274TIP3   OH264236   1.353   0.803  14.637  0.7884  0.5178  0.0285
14274TIP3    H164237   1.432   0.761  14.670 -0.9005 -2.7255  0.2188
14274TIP3    H264238   1.288   0.789  14.706 -1.0158 -0.5285 -1.8254
14275TIP3   OH264239   0.092   0.782  13.879  0.0073 -0.5979  0.3684
14275TIP3    H164240   0.003   0.814  13.862 -0.8249 -3.5889 -1.3957
14275TIP3    H264241   0.147   0.830  13.817 -0.4952  0.6681  0.8906
14276TIP3   OH264242   5.092   1.353  14.501 -0.7052 -0.4021 -0.0091
14276TIP3    H164243   5.168   1.316  14.546  0.6173  0.9661 -1.0793
14276TIP3    H264244   5.068   1.287  14.436  0.3973 -0.2729 -0.5532
14277TIP3   OH264245   5.653   4.940   3.886  0.0972  0.6920 -0.1395
14277TIP3    H164246   5.679   4.917   3.976 -1.6154  1.9878  0.7081
14277TIP3    H264247   5.614   4.859   3.852  0.1133  0.3898  0.5419
14278TIP3   OH264248   6.595   3.954  15.610 -0.3518  0.1162 -0.1429
14278TIP3    H164249   6.624   4.000  15.688 -1.5292  0.7834 -0.0794
14278TIP3    H264250   6.675   3.933  15.563  0.2868  0.9644  0.5445
14279TIP3   OH264251   6.296   4.335  13.324 -0.4220  0.0729 -0.0443
14279TIP3    H164252   6.382   4.321  13.283 -0.7725 -0.1030 -0.7382
14279TIP3    H264253   6.241   4.368  13.253 -1.6864 -2.4658 -0.3400
14280TIP3   OH264254   0.504   4.441  12.099 -0.0618 -0.5433 -0.2607
14280TIP3    H164255   0.474   4.365  12.049  0.9684  0.4116 -2.3824
14280TIP3    H264256   0.466   4.516  12.055 -0.2282  0.2643  1.2102
14281TIP3   OH264257   1.564   6.581   0.168  0.7207  0.4830  0.4873
14281TIP3    H164258   1.504   6.543   0.233 -1.2005  1.6480 -0.5603
14281TIP3    H264259   1.602   6.505   0.123 -0.6597 -0.2645  0.5647
14282TIP3   OH264260   1.652   2.685  11.763 -0.1490 -0.4602  0.2462
14282TIP3    H164261   1.697   2.683  11.679 -0.2742 -1.3642  0.1900
14282TIP3    H264262   1.707   2.740  11.819 -0.9118  1.4889 -0.8713
14283TIP3   OH264263   1.189   1.392   1.580  0.6121  0.1640 -0.1507
14283TIP3    H164264   1.141   1.320   1.538  0.1401 -0.2471  1.0900
14283TIP3    H264265   1.231   1.438   1.507  0.3268 -0.9349 -1.0227
14284TIP3   OH264266   2.425   5.769   1.047 -0.2446  0.6166 -0.2825
14284TIP3    H164267   2.498   5.783   1.107 -0.3187  1.6574 -0.4296
14284TIP3    H264268   2.394   5.681   1.067  1.0297  0.1805 -0.2028
14285TIP3   OH264269   3.533   1.046   5.648  0.9212 -0.3783 -0.3549
14285TIP3    H164270   3.543   1.108   5.576 -1.1237 -0.8020 -1.0401
14285TIP3    H264271   3.489   1.096   5.717 -0.5042 -0.9600 -0.8143
14286TIP3   OH264272   3.008   1.320   3.199  0.4592 -0.4705  0.3423
14286TIP3    H164273   3.003   1.416   3.202 -0.9128 -0.5464  0.5451
14286TIP3    H264274   2.948   1.291   3.267 -0.0712 -1.4978 -0.5569
14287TIP3   OH264275   1.433   5.316  15.981  0.2590 -0.5677  0.1126
14287TIP3    H164276   1.497   5.245  15.971 -0.8314 -1.4745 -0.5487
14287TIP3    H264277   1.351   5.278  15.952 -0.3253  1.0227 -0.3471
14288TIP3   OH264278   1.836   1.105   6.520  0.4079  0.0247 -0.0072
14288TIP3    H164279   1.853   1.013   6.537  0.7000  0.0495 -0.1494
14288TIP3    H264280   1.868   1.119   6.430 -0.1602  0.1287 -0.1975
14289TIP3   OH264281   3.644   1.678  13.222 -0.1892  0.1797 -0.0398
14289TIP3    H164282   3.716   1.645  13.276  1.8706  2.1346 -1.4753
14289TIP3    H264283   3.575   1.700  13.284  0.7420 -1.0192  1.4509
14290TIP3   OH264284   5.691   5.940  12.641 -0.1343 -0.0130  0.0675
14290TIP3    H164285   5.628   6.009  12.618  0.7663  0.1422 -1.9770
14290TIP3    H264286   5.689   5.938  12.737 -2.9738  0.2365  0.0686
14291TIP3   OH264287   0.205   4.158  10.625 -0.2884 -0.3109 -0.3773
14291TIP3    H164288   0.273   4.136  10.561 -0.0090 -1.7692  0.4152
14291TIP3    H264289   0.252   4.193  10.700 -0.3556 -1.8964  0.4138
14292TIP3   OH264290   1.244   1.157  13.356  0.1286  0.3778  0.3506
14292TIP3    H164291   1.287   1.240  13.333  0.1407 -0.4832 -2.9848
14292TIP3    H264292   1.306   1.090  13.329 -0.5107 -0.7862  1.7065
14293TIP3   OH264293   0.957   2.660   6.314 -0.1487 -0.2216 -0.2821
14293TIP3    H164294   0.990   2.584   6.361 -0.2897  1.1837  2.1533
14293TIP3    H264295   0.862   2.651   6.317 -0.1367 -1.2609 -2.2543
14294TIP3   OH264296   1.182   0.273   1.304 -0.0169  0.4843  0.3286
14294TIP3    H164297   1.147   0.196   1.259  0.3425  0.4893  0.0426
14294TIP3    H264298   1.236   0.317   1.239  3.5790 -1.5104  1.8335
14295TIP3   OH264299   0.000   2.901   0.673  0.0501 -0.3376  0.5634
14295TIP3    H164300  -0.020   2.993   0.693  1.1377 -0.0882  0.5713
14295TIP3    H264301  -0.081   2.854   0.689 -1.6646  1.1923 -3.2134
14296TIP3   OH264302   6.238   5.377   0.365  0.2001 -0.1578 -0.1678
14296TIP3    H164303   6.170   5.364   0.431 -0.5396  2.2764 -0.3780
14296TIP3    H264304   6.235   5.471   0.346  3.4467 -0.0453 -0.4043
14297TIP3   OH264305   2.818   5.511   3.210 -0.4935  0.4600  0.0881
14297TIP3    H164306   2.882   5.513   3.281 -0.6311  2.7010  0.1940
14297TIP3    H264307   2.741   5.469   3.247  0.0395  0.0724  0.7503
14298TIP3   OH264308   3.718   3.917  11.359  0.1089  0.0256 -0.5750
14298TIP3    H164309   3.792   3.969  11.328  0.5046  0.3525  0.8861
14298TIP3    H264310   3.740   3.827  11.333  0.4350  0.2887 -1.2211
14299TIP3   OH264311   2.437   5.547  11.162  0.5312 -1.1105  0.3581
14299TIP3    H164312   2.368   5.605  11.194  1.0390 -1.1525  1.5738
14299TIP3    H264313   2.397   5.460  11.160 -0.0416 -0.8160 -0.8484
14300TIP3   OH264314   4.717   2.433   1.748 -0.3619  0.3460  0.1309
14300TIP3    H164315   4.668   2.512   1.767 -0.0923  0.0850  1.9966
14300TIP3    H264316   4.801   2.445   1.792  0.1931 -0.3962 -0.6961
14301TIP3   OH264317   1.356   3.790   5.523 -0.4046 -0.3878  0.1727
14301TIP3    H164318   1.411   3.723   5.484  0.0977 -0.1263  0.4264
14301TIP3    H264319   1.301   3.743   5.585  0.1448 -0.5226  0.5557
14302TIP3   OH264320   0.894   5.098  17.091  0.1996  0.2598 -0.0061
14302TIP3    H164321   0.848   5.044  17.155  1.2488  0.6882  1.1224
14302TIP3    H264322   0.946   5.036  17.039 -1.5290 -0.2201 -1.2276
14303TIP3   OH264323   5.734   0.621  12.220 -0.0610 -0.1584 -0.6346
14303TIP3    H164324   5.665   0.616  12.154 -0.6929 -0.0944  0.0255
14303TIP3    H264325   5.815   0.628  12.169 -0.5159 -0.5295 -1.4069
14304TIP3   OH264326   5.444   0.415   4.584 -0.1814  0.0748  0.6069
14304TIP3    H164327   5.417   0.398   4.675 -2.8617 -2.1559 -0.5163
14304TIP3    H264328   5.525   0.365   4.573  0.5102  0.8861  1.9622
14305TIP3   OH264329   1.894   5.701  13.027 -0.2191 -0.3580 -0.2313
14305TIP3    H164330   1.964   5.693  12.963  0.2754  0.6185  0.1723
14305TIP3    H264331   1.939   5.711  13.111 -0.8652 -2.2367  0.3528
14306TIP3   OH264332   1.887   4.872  11.695 -0.0399 -0.5187 -0.0802
14306TIP3    H164333   1.923   4.961  11.701 -1.2252 -0.1629  2.4347
14306TIP3    H264334   1.799   4.885  11.658  0.1667 -0.7466 -0.6454
14307TIP3   OH264335   1.918   5.988   3.943  0.3296  0.5795  0.0048
14307TIP3    H164336   2.004   5.957   3.968 -0.3905 -0.9638  0.6255
14307TIP3    H264337   1.908   6.072   3.989  0.9902  0.1499  0.9498
14308TIP3   OH264338   6.084   4.151   5.954 -0.2427  0.4175 -0.5962
14308TIP3    H164339   6.152   4.210   5.987  0.8189 -0.4449 -1.2167
14308TIP3    H264340   6.004   4.181   5.998  0.8295  0.3593  1.5001
14309TIP3   OH264341   0.989   5.754  12.632 -0.2239  0.1579 -0.4502
14309TIP3    H164342   0.990   5.660  12.613  1.5804 -0.5897  2.8255
14309TIP3    H264343   1.045   5.793  12.566  2.1543 -1.6469  0.4200
14310TIP3   OH264344   6.204   0.726   6.094 -0.5828 -0.6335  0.3192
14310TIP3    H164345   6.286   0.759   6.057 -0.9855  0.2204  0.1848
14310TIP3    H264346   6.138   0.749   6.029 -0.8139 -2.1007  0.0096
14311TIP3   OH264347   4.162   1.836   5.097 -0.1511 -0.4383 -0.2237
14311TIP3    H164348   4.218   1.895   5.046 -1.5270  0.8357 -0.2764
14311TIP3    H264349   4.223   1.772   5.134  1.8244  2.6419  2.1755
14312TIP3   OH264350   3.543   2.463   6.597  0.0773  0.2797 -0.2414
14312TIP3    H164351   3.584   2.446   6.682 -0.9733 -0.6021  0.0857
14312TIP3    H264352   3.586   2.403   6.537 -0.2438 -0.1584 -0.0338
14313TIP3   OH264353   0.673   2.861  13.423 -0.0136  0.0919  0.5677
14313TIP3    H164354   0.612   2.814  13.365 -0.0600  1.3947 -0.4785
14313TIP3    H264355   0.705   2.934  13.369  0.5825  0.8489  1.9279
14314TIP3   OH264356   0.610   0.224   3.094 -0.6091  0.2175  0.0864
14314TIP3    H164357   0.620   0.130   3.109 -1.0753  0.2682  0.7471
14314TIP3    H264358   0.658   0.265   3.166  2.3288  0.5223 -1.9554
14315TIP3   OH264359   1.236   3.459  12.507  0.1232 -0.3022  0.0495
14315TIP3    H164360   1.147   3.484  12.482 -0.2018 -1.0762  0.4254
14315TIP3    H264361   1.257   3.386  12.449 -0.5409 -1.9435  1.8159
14316TIP3   OH264362   3.752   0.447  15.360 -0.2643 -0.2221  0.0502
14316TIP3    H164363   3.696   0.438  15.283  0.1452 -1.1775 -0.1401
14316TIP3    H264364   3.712   0.518  15.410 -0.5709  0.3654 -1.0106
14317TIP3   OH264365   3.880   6.401   1.765  0.4335  0.1151 -0.2091
14317TIP3    H164366   3.791   6.375   1.790  0.3352 -1.3092 -1.9531
14317TIP3    H264367   3.868   6.464   1.695  0.7904 -2.0649 -2.3000
14318TIP3   OH264368   0.752   4.219   6.161  0.1362  0.3536 -0.1047
14318TIP3    H164369   0.697   4.270   6.221 -1.2411  1.1490 -2.0030
14318TIP3    H264370   0.690   4.168   6.109  1.4840 -3.2131  1.6241
14319TIP3   OH264371   4.383   3.614   3.188 -0.1854 -0.0396 -0.0327
14319TIP3    H164372   4.317   3.609   3.257 -0.3166 -0.3202 -0.1752
14319TIP3    H264373   4.367   3.698   3.146  1.0605  0.9524  1.4387
14320TIP3   OH264374   3.684   2.408   4.449  0.4760 -0.1018 -0.1434
14320TIP3    H164375   3.685   2.363   4.533  0.0686 -1.2964 -0.7726
14320TIP3    H264376   3.744   2.483   4.462 -0.2156  0.2036  1.4408
14321TIP3   OH264377   2.952   2.790   4.475  0.0327  0.3095 -0.1052
14321TIP3    H164378   2.923   2.844   4.401 -0.4123  0.9310  0.5118
14321TIP3    H264379   2.876   2.784   4.531  0.4394  0.0352  0.4176
14322TIP3   OH264380   1.508   5.290  14.403  0.0215 -0.4180  0.2741
14322TIP3    H164381   1.446   5.329  14.341 -0.7967 -0.5157  1.0271
14322TIP3    H264382   1.519   5.357  14.470  0.5787 -0.4815  0.2440
14323TIP3   OH264383   2.214   4.834  13.518 -0.3364 -0.1202  0.5497
14323TIP3    H164384   2.200   4.756  13.571 -1.0859 -0.2620  0.1523
14323TIP3    H264385   2.283   4.810  13.456 -1.4567 -0.8902 -0.4136
14324TIP3   OH264386   0.742   4.635   1.472  0.4157 -0.2011  0.1371
14324TIP3    H164387   0.675   4.626   1.404  0.7387 -0.9586 -0.0875
14324TIP3    H264388   0.823   4.609   1.429  1.0239  1.7076  0.1171
14325TIP3   OH264389   1.538   3.864   5.173  0.6141  0.2242  0.0062
14325TIP3    H164390   1.532   3.916   5.092  0.8842  1.5885  0.8363
14325TIP3    H264391   1.606   3.909   5.224 -1.0699  0.6610  1.9041
14326TIP3   OH264392   5.330   2.560   1.917 -0.1132  0.2927  0.4543
14326TIP3    H164393   5.366   2.649   1.922  0.2093  0.0899  2.1172
14326TIP3    H264394   5.263   2.558   1.986 -0.8622 -0.4302 -0.2825
14327TIP3   OH264395   6.739   1.974  16.520  0.6763 -0.1831  0.2229
14327TIP3    H164396   6.710   2.012  16.437  3.0183 -1.7346 -1.3752
14327TIP3    H264397   6.765   1.884  16.498  1.4855 -0.5772  2.5994
14328TIP3   OH264398   2.378   0.035  12.984  0.3363 -0.1153 -0.5422
14328TIP3    H164399   2.400   0.100  13.050 -0.5108  0.8661 -1.2092
14328TIP3    H264400   2.354   0.087  12.907 -3.3126 -1.1203 -0.1758
14329TIP3   OH264401   4.550   1.548   4.721  0.2366  0.0976  0.8546
14329TIP3    H164402   4.457   1.523   4.719  0.4175 -0.6376  1.2927
14329TIP3    H264403   4.559   1.600   4.800  0.3589 -0.4759  1.2157
14330TIP3   OH264404   3.430   5.655  11.521 -0.0415 -0.5194 -0.6065
14330TIP3    H164405   3.390   5.572  11.546 -0.1338 -0.2902  0.0351
14330TIP3    H264406   3.424   5.658  11.426 -0.4421 -1.0440 -0.5972
14331TIP3   OH264407   1.513   0.219   3.362 -0.2781 -0.6718  0.0790
14331TIP3    H164408   1.508   0.232   3.457  1.1822 -0.8765  0.1886
14331TIP3    H264409   1.596   0.258   3.337  0.5983 -2.9921 -0.7120
14332TIP3   OH264410   0.595   5.975  12.787  0.0560  0.5589  0.1326
14332TIP3    H164411   0.616   5.882  12.783  2.4341  1.0720 -0.1359
14332TIP3    H264412   0.549   5.993  12.705  1.8946  0.1292 -1.0246
14333TIP3   OH264413   1.188   3.188  14.476 -0.2418 -0.1521  0.1220
14333TIP3    H164414   1.248   3.192  14.550 -0.9190  1.6052  0.6079
14333TIP3    H264415   1.124   3.258  14.492 -1.0623 -0.4754 -1.5372
14334TIP3   OH264416   1.280   5.311  14.612 -0.1440 -0.2981 -0.6604
14334TIP3    H164417   1.311   5.401  14.607 -2.0617  0.5632  1.7121
14334TIP3    H264418   1.192   5.313  14.574  0.5332 -1.5760 -2.3464
14335TIP3   OH264419   6.582   2.932   6.543  0.4398  0.7039 -0.1713
14335TIP3    H164420   6.632   2.852   6.561  0.6173  0.3797 -2.0640
14335TIP3    H264421   6.515   2.934   6.612 -1.4975 -2.6937 -1.8361
14336TIP3   OH264422   1.323   0.659  12.009  0.0304 -0.1607 -0.2382
14336TIP3    H164423   1.289   0.688  11.924 -1.3761 -0.9438  0.0422
14336TIP3    H264424   1.388   0.592  11.986  0.5008  0.4617 -0.7378
14337TIP3   OH264425   6.253   5.656   4.326 -0.7344  0.1389 -0.4509
14337TIP3    H164426   6.183   5.620   4.272  0.6473 -0.5695 -1.8173
14337TIP3    H264427   6.219   5.652   4.416 -2.0211 -1.1699 -0.9733
14338TIP3   OH264428   0.433   6.395   1.949 -0.2240  0.7224  0.1493
14338TIP3    H164429   0.525   6.417   1.967 -0.6330  1.5017  1.3118
14338TIP3    H264430   0.395   6.475   1.914 -1.1640  1.2724  2.3461
14339TIP3   OH264431   6.216   5.019   1.623  0.0555 -0.1405 -0.2048
14339TIP3    H164432   6.208   5.078   1.698 -0.9125 -0.7987  0.2209
14339TIP3    H264433   6.169   4.940   1.649 -1.4305  0.1059 -2.0073
14340TIP3   OH264434   5.902   1.339  16.985 -0.1071 -0.3996 -0.6242
14340TIP3    H164435   5.940   1.288  17.056 -2.2470 -0.9762  0.1462
14340TIP3    H264436   5.860   1.414  17.028 -0.9271 -0.4499 -1.3182
14341TIP3   OH264437   2.880   2.763  12.755  0.8887  0.1926 -0.0794
14341TIP3    H164438   2.858   2.822  12.827 -1.1263 -0.1749 -0.3528
14341TIP3    H264439   2.845   2.678  12.782  1.1717 -0.2156 -0.9701
14342TIP3   OH264440   6.181   0.844  15.788 -0.1200  0.9591  0.3753
14342TIP3    H164441   6.112   0.832  15.854  0.5505 -3.7447  0.3834
14342TIP3    H264442   6.263   0.827  15.835  0.4507 -1.1115 -1.2799
14343TIP3   OH264443   3.468   4.426  17.228 -0.9707  0.2615  0.0774
14343TIP3    H164444   3.439   4.396  17.314  1.1656 -0.4469  0.5868
14343TIP3    H264445   3.465   4.521  17.233  1.2873  0.2856  1.7581
14344TIP3   OH264446   2.802   3.261   6.942 -0.6079 -0.3100 -0.0671
14344TIP3    H164447   2.888   3.220   6.934 -0.4751 -0.5001  2.0155
14344TIP3    H264448   2.740   3.192   6.919 -0.2234 -0.1474 -1.6556
14345TIP3   OH264449   3.887   6.468   1.448 -0.1306  0.1511 -0.3773
14345TIP3    H164450   3.919   6.411   1.378 -2.7025 -1.1419 -0.5697
14345TIP3    H264451   3.872   6.552   1.405 -0.1468 -0.1651 -1.0020
14346TIP3   OH264452   3.394   1.527  16.698  0.1000 -0.1746 -0.2969
14346TIP3    H164453   3.301   1.511  16.715  0.2495 -0.6583  0.0633
14346TIP3    H264454   3.403   1.514  16.604 -0.0977 -0.6397 -0.2542
14347TIP3   OH264455   2.273   3.152   1.875 -0.1019 -0.6744 -0.1562
14347TIP3    H164456   2.280   3.243   1.903  0.4315  0.1311 -2.7552
14347TIP3    H264457   2.178   3.138   1.865 -0.1128  0.1821 -1.4566
14348TIP3   OH264458   0.937   4.198  16.763 -0.3742 -0.6727  0.1452
14348TIP3    H164459   0.926   4.122  16.821 -1.4622 -0.0711  0.7348
14348TIP3    H264460   0.879   4.180  16.689 -0.5855 -0.4522  0.2566
14349TIP3   OH264461   5.776   3.191   0.902  0.4551 -0.1711  0.6746
14349TIP3    H164462   5.863   3.202   0.939  1.0276 -0.5676 -0.5270
14349TIP3    H264463   5.792   3.168   0.810 -0.9123 -0.1216  0.4184
14350TIP3   OH264464   2.960   0.469   4.766 -0.1795 -0.5919 -0.2853
14350TIP3    H164465   2.968   0.392   4.711 -0.2556 -0.2676 -0.7540
14350TIP3    H264466   2.870   0.499   4.754 -0.5677 -1.2056  0.9433
14351TIP3   OH264467   5.911   2.470  16.123 -0.4653  0.9083 -0.1479
14351TIP3    H164468   5.836   2.472  16.183  0.2180  2.2176  0.6884
14351TIP3    H264469   5.987   2.458  16.181 -0.0574 -0.9051 -1.0247
14352TIP3   OH264470   3.490   2.579   2.940 -0.2121 -0.2093  0.4033
14352TIP3    H164471   3.577   2.619   2.945  0.3583 -1.5892  1.9638
14352TIP3    H264472   3.450   2.617   2.862  1.7347  0.5399 -0.2429
14353TIP3   OH264473   2.637   5.622   5.312 -0.3054 -0.2147 -0.3511
14353TIP3    H164474   2.681   5.645   5.230 -0.6463  1.3967 -0.1055
14353TIP3    H264475   2.684   5.546   5.344  1.3301  0.5514 -0.8642
14354TIP3   OH264476   2.964   1.895   2.682  0.1729 -0.4903  0.1007
14354TIP3    H164477   2.933   1.879   2.771 -0.3243 -0.7341 -0.1165
14354TIP3    H264478   3.028   1.966   2.691  1.5772 -1.8441  0.9177
14355TIP3   OH264479   0.772   0.017  15.550  0.0001 -0.7476  0.1177
14355TIP3    H164480   0.761  -0.023  15.636  0.6756 -0.9382  0.1167
14355TIP3    H264481   0.863  -0.003  15.525  0.4980  1.1601  0.3214
14356TIP3   OH264482   0.832   6.073   4.026 -0.3904 -0.3492  0.2697
14356TIP3    H164483   0.897   6.118   4.080 -0.9179 -0.9490  1.4196
14356TIP3    H264484   0.782   6.143   3.985 -0.1177  0.1148  0.7249
14357TIP3   OH264485   3.401   1.256  12.600 -0.9185  0.1675  0.2068
14357TIP3    H164486   3.468   1.245  12.668 -1.1445  0.3545  0.4591
14357TIP3    H264487   3.337   1.187  12.619 -0.2591 -0.7155 -0.6836
14358TIP3   OH264488   2.448   0.935  13.256 -0.3598  0.2211 -0.1254
14358TIP3    H164489   2.368   0.942  13.203  0.3261  1.5625 -1.0181
14358TIP3    H264490   2.488   0.853  13.227 -2.1393 -1.2141  1.3805
14359TIP3   OH264491   6.636   5.000   2.058 -0.2492  0.1461 -0.0571
14359TIP3    H164492   6.627   4.906   2.048  0.3238  0.2063 -1.2158
14359TIP3    H264493   6.705   5.011   2.124  1.8216 -0.2398 -2.1194
14360TIP3   OH264494   6.365   2.690   6.430 -0.4878 -0.9707 -0.0121
14360TIP3    H164495   6.371   2.775   6.475  0.8687  0.0531 -2.0288
14360TIP3    H264496   6.286   2.697   6.376 -0.4443 -1.0424 -0.0857
14361TIP3   OH264497   2.219   6.336   2.978  0.4541 -0.2053  0.1460
14361TIP3    H164498   2.231   6.326   2.883 -2.2440  1.2848 -0.4213
14361TIP3    H264499   2.187   6.251   3.007 -2.6688  0.4806 -1.0557
14362TIP3   OH264500   5.203   0.738  16.203  0.0488 -0.0510 -0.3632
14362TIP3    H164501   5.138   0.799  16.238 -1.8770 -3.4265  2.3270
14362TIP3    H264502   5.274   0.739  16.268 -0.5868 -1.5706  0.3750
14363TIP3   OH264503   1.414   5.607   6.001  0.5143  0.1219  0.4270
14363TIP3    H164504   1.356   5.678   6.029  0.1082 -0.1590  0.3014
14363TIP3    H264505   1.385   5.531   6.051 -1.9304 -1.0398 -2.5772
14364TIP3   OH264506   0.609   0.453  13.599  0.6465 -0.4671  0.0421
14364TIP3    H164507   0.589   0.542  13.569  0.0253 -0.8505 -0.7351
14364TIP3    H264508   0.678   0.463  13.663 -0.5478  0.7301  1.1588
14365TIP3   OH264509   4.891   3.405   1.208 -0.2561 -0.3078  0.0507
14365TIP3    H164510   4.826   3.349   1.250 -0.1833 -0.1455  0.3806
14365TIP3    H264511   4.845   3.444   1.134 -1.1156  1.2816  1.3609
14366TIP3   OH264512   0.583   6.076  14.165  0.1228 -0.4656 -0.5312
14366TIP3    H164513   0.495   6.047  14.190 -0.3779  1.6408  0.3154
14366TIP3    H264514   0.637   6.060  14.242  0.8643 -3.1282 -1.5464
14367TIP3   OH264515   6.749   3.287  12.302 -0.2467 -0.2597 -0.3803
14367TIP3    H164516   6.771   3.273  12.394 -0.5474 -0.1189 -0.2852
14367TIP3    H264517   6.789   3.213  12.256  2.5856  1.2806 -0.5423
14368TIP3   OH264518   6.372   1.508  12.598  0.1458  0.0864  0.0043
14368TIP3    H164519   6.337   1.586  12.556  0.0968 -0.5815 -1.2265
14368TIP3    H264520   6.303   1.442  12.585  0.9405 -0.6454 -0.5537
14369TIP3   OH264521   1.404   0.017  17.121  0.2525 -0.1517 -0.1450
14369TIP3    H164522   1.383   0.109  17.134 -0.8084 -0.4517  0.3715
14369TIP3    H264523   1.497   0.010  17.142  0.0663  0.5878  0.9692
14370TIP3   OH264524   3.380   0.607  10.556 -0.0935  0.1777  0.1086
14370TIP3    H164525   3.358   0.544  10.487 -1.5429  0.3831  0.3784
14370TIP3    H264526   3.371   0.558  10.638 -0.0522  0.4100  0.2525
14371TIP3   OH264527   3.752   4.341   2.450  0.1463 -0.0272  0.0191
14371TIP3    H164528   3.814   4.341   2.523 -0.1215  0.5167  0.2513
14371TIP3    H264529   3.699   4.263   2.463  1.8219 -1.3814 -1.0776
14372TIP3   OH264530   6.443   1.245  16.838 -0.8744  0.2297 -0.0479
14372TIP3    H164531   6.404   1.167  16.797  0.3851  0.0128 -0.8445
14372TIP3    H264532   6.413   1.241  16.929  0.4957 -2.1091  0.3592
14373TIP3   OH264533   3.654   1.962   1.263 -0.3625 -0.6495  0.4002
14373TIP3    H164534   3.722   2.008   1.214  1.1569 -1.9506  1.2512
14373TIP3    H264535   3.576   2.015   1.250  0.5845  0.3615 -1.3811
14374TIP3   OH264536   4.002   0.852  13.487  0.0216  0.9395  0.0535
14374TIP3    H164537   3.917   0.896  13.487 -0.5817 -0.2091  0.2638
14374TIP3    H264538   4.003   0.802  13.569 -0.9354 -2.5098 -1.9488
14375TIP3   OH264539   1.596   3.794  11.091  0.2331  0.1480 -0.0098
14375TIP3    H164540   1.651   3.857  11.138  2.0853  0.0969 -2.0199
14375TIP3    H264541   1.650   3.715  11.086 -0.8400 -0.5771 -0.2498
14376TIP3   OH264542   6.540   4.588   4.453  0.2591 -0.0152  0.0448
14376TIP3    H164543   6.540   4.673   4.497  0.2307 -0.4268  0.8494
14376TIP3    H264544   6.604   4.536   4.502  0.2737 -0.4551 -0.4451
14377TIP3   OH264545   5.828   4.497   4.226 -0.4416  0.1842 -0.0082
14377TIP3    H164546   5.842   4.410   4.190 -0.6650  0.0176  0.2981
14377TIP3    H264547   5.734   4.512   4.215 -0.3781  0.4489 -0.1973
14378TIP3   OH264548   0.693   1.344   1.782 -0.3651 -0.1445 -0.3094
14378TIP3    H164549   0.711   1.253   1.804  2.6442  0.6098  0.6359
14378TIP3    H264550   0.718   1.352   1.690 -0.6562 -0.2767 -0.4003
14379TIP3   OH264551   6.499   1.766   5.784  0.1203  0.3343 -0.4623
14379TIP3    H164552   6.557   1.795   5.854  0.5573  0.1038 -0.7324
14379TIP3    H264553   6.547   1.783   5.703 -0.3548  0.5348 -0.7072
14380TIP3   OH264554   5.721   2.638  14.961  0.1236 -0.4179  0.3467
14380TIP3    H164555   5.645   2.695  14.953  0.3413  0.5017  3.9214
14380TIP3    H264556   5.791   2.683  14.915 -0.4829  0.7605  0.5674
14381TIP3   OH264557   0.859   4.746   4.177  0.2521 -0.1801  0.2043
14381TIP3    H164558   0.817   4.691   4.244  0.0671 -0.3175 -0.0202
14381TIP3    H264559   0.786   4.794   4.137  0.6620  1.9568  1.9343
14382TIP3   OH264560   5.827   4.963  12.314 -0.2694  0.3783  0.1345
14382TIP3    H164561   5.852   4.979  12.405  1.4605 -1.4942  0.0442
14382TIP3    H264562   5.800   4.871  12.313  1.7144 -0.2265 -1.6212
14383TIP3   OH264563   5.102   2.950   2.636  0.1884 -0.0671  0.1308
14383TIP3    H164564   5.143   2.916   2.716 -0.6639 -1.2736  0.0591
14383TIP3    H264565   5.008   2.946   2.653  0.0227  0.3150 -0.6794
14384TIP3   OH264566   4.850   0.628   2.707  0.2418  0.0970 -0.2010
14384TIP3    H164567   4.911   0.555   2.696  0.3524 -0.5341  3.8706
14384TIP3    H264568   4.765   0.586   2.717  0.2520  0.5194  1.7526
14385TIP3   OH264569   1.994   2.837   5.190 -0.5074 -0.0809  0.1328
14385TIP3    H164570   2.028   2.893   5.121 -0.2737  0.3316  0.5763
14385TIP3    H264571   1.913   2.801   5.155  0.4569 -1.1919 -0.9942
14386TIP3   OH264572   1.271   2.580  13.881  0.0402 -0.4118  0.2610
14386TIP3    H164573   1.231   2.597  13.966 -0.4598 -0.2066 -0.0108
14386TIP3    H264574   1.233   2.497  13.852  1.0716 -1.0676  0.7457
14387TIP3   OH264575   2.909   1.348   0.857 -0.0859  0.1148 -0.0858
14387TIP3    H164576   2.858   1.300   0.792 -3.0322  0.3072  1.9701
14387TIP3    H264577   2.919   1.286   0.929  0.4326  0.9317  0.5506
14388TIP3   OH264578   3.929   1.790   4.463  0.5423  0.7962 -0.2949
14388TIP3    H164579   3.878   1.739   4.525  0.9723 -0.3877 -0.9019
14388TIP3    H264580   3.980   1.850   4.518  0.4642  0.1859  0.4569
14389TIP3   OH264581   6.263   0.884   3.238 -0.1511 -0.6269 -0.0066
14389TIP3    H164582   6.326   0.914   3.172 -0.4104  0.6647  0.3111
14389TIP3    H264583   6.247   0.962   3.292 -0.1439 -1.6025  1.4200
14390TIP3   OH264584   3.808   2.603  13.597 -0.0307  0.3512 -0.3742
14390TIP3    H164585   3.779   2.543  13.528  0.2925  0.6078 -0.7336
14390TIP3    H264586   3.729   2.652  13.620 -0.6215 -1.1787  0.9007
14391TIP3   OH264587   6.001   1.314  13.862  0.0459  0.4242  0.3721
14391TIP3    H164588   5.926   1.363  13.829  1.2062  2.2820  0.4245
14391TIP3    H264589   6.014   1.244  13.798 -0.5945  1.2166 -0.6418
14392TIP3   OH264590   0.280   6.109   4.454 -0.2161  0.1922 -0.0868
14392TIP3    H164591   0.196   6.151   4.436 -1.2268 -0.4774  2.8801
14392TIP3    H264592   0.323   6.165   4.518  1.8758  0.7824 -1.9210
14393TIP3   OH264593   3.210   0.430   3.196  0.4830 -0.3583 -0.0919
14393TIP3    H164594   3.246   0.384   3.120  1.8018  0.9812 -0.3168
14393TIP3    H264595   3.160   0.502   3.157  0.3025 -0.2787  0.2928
14394TIP3   OH264596   2.751   6.403   5.363 -0.1649 -0.3748  0.4443
14394TIP3    H164597   2.738   6.413   5.458 -0.5047  0.5928  0.3032
14394TIP3    H264598   2.752   6.308   5.349  0.1533 -0.5283  1.4514
14395TIP3   OH264599   2.675   3.785   5.684 -0.4060 -0.0738  0.4811
14395TIP3    H164600   2.662   3.864   5.737 -1.4998  0.0084  0.0886
14395TIP3    H264601   2.593   3.774   5.636  0.0628 -0.9601 -0.1228
14396TIP3   OH264602   3.534   5.993   3.703 -0.8892  0.1003 -0.7957
14396TIP3    H164603   3.499   6.071   3.660 -0.0175  0.1864 -1.3502
14396TIP3    H264604   3.544   5.929   3.633 -0.8598 -0.2546 -0.4697
14397TIP3   OH264605   6.306   4.093  13.765 -0.3003 -0.3409 -0.6006
14397TIP3    H164606   6.247   4.058  13.698  0.9585 -2.6583 -0.5533
14397TIP3    H264607   6.390   4.102  13.720 -0.2911  1.4670 -0.2555
14398TIP3   OH264608   3.748   3.324   0.113  0.0106 -0.1234 -0.0976
14398TIP3    H164609   3.734   3.379   0.189 -0.8956 -0.4205 -0.0378
14398TIP3    H264610   3.830   3.355   0.075 -0.5071  1.2808 -0.0819
14399TIP3   OH264611   5.883   5.220  15.801  0.1204 -0.0629 -0.1013
14399TIP3    H164612   5.899   5.203  15.894 -2.1827  1.9137  0.6995
14399TIP3    H264613   5.866   5.314  15.796  0.5215 -0.0936 -2.5738
14400TIP3   OH264614   3.470   6.359  10.670  0.2590 -0.2119 -0.7208
14400TIP3    H164615   3.535   6.332  10.604 -1.1642 -0.9316 -1.8681
14400TIP3    H264616   3.390   6.374  10.620 -0.3940  0.9366  0.6423
14401TIP3   OH264617   0.689   2.855  16.828 -0.3086  0.3589  0.4410
14401TIP3    H164618   0.702   2.940  16.870  0.2037  0.6034 -0.1909
14401TIP3    H264619   0.759   2.850  16.763  0.1413 -0.8785  0.9915
14402TIP3   OH264620   2.385   3.915  15.806  0.2981  0.1117 -0.5300
14402TIP3    H164621   2.327   3.902  15.881  0.6739  0.2986 -0.2059
14402TIP3    H264622   2.473   3.913  15.843  0.5565 -1.2740 -1.1773
14403TIP3   OH264623   4.072   0.061   4.437 -0.1546 -0.4933 -0.0285
14403TIP3    H164624   3.988   0.106   4.440 -0.3375 -0.6359 -1.9281
14403TIP3    H264625   4.053  -0.029   4.465 -1.2346 -1.2848 -3.0159
14404TIP3   OH264626   4.031   5.055  13.759 -0.2127  0.3125  0.0666
14404TIP3    H164627   4.061   4.969  13.786 -3.2566 -1.1603 -1.0296
14404TIP3    H264628   3.996   5.042  13.671 -3.7648  1.9005  1.1438
14405TIP3   OH264629   5.420   2.247  14.888 -0.1612  0.3155  0.5492
14405TIP3    H164630   5.391   2.168  14.934  0.0549  0.1388  0.3824
14405TIP3    H264631   5.389   2.319  14.943  0.7343  0.0940  1.3654
14406TIP3   OH264632   4.122   6.044  13.410  0.1775  0.3687  0.3415
14406TIP3    H164633   4.057   6.035  13.480 -0.1538  0.8503  0.0981
14406TIP3    H264634   4.124   5.958  13.368  0.2393  0.1316  0.8163
14407TIP3   OH264635   5.762   5.400   3.779  0.0278 -0.0010 -0.0930
14407TIP3    H164636   5.788   5.394   3.687  0.5036 -0.9024  0.0959
14407TIP3    H264637   5.751   5.309   3.807  1.4327  0.1926  1.1667
14408TIP3   OH264638   3.001   4.262  15.355 -0.0138 -0.6089 -0.2406
14408TIP3    H164639   2.926   4.261  15.414 -1.1795 -0.5621 -1.7007
14408TIP3    H264640   3.044   4.346  15.374 -0.6054 -0.4103  0.2561
14409TIP3   OH264641   0.885   4.093  15.222 -0.0412  0.1973  0.7212
14409TIP3    H164642   0.929   4.065  15.302  1.0597  0.3670  0.1837
14409TIP3    H264643   0.792   4.077  15.239  0.4976 -3.5041  0.5427
14410TIP3   OH264644   5.729   2.526   1.730  0.7396 -0.6517 -0.7931
14410TIP3    H164645   5.738   2.491   1.641  1.0359 -3.0160  0.1319
14410TIP3    H264646   5.809   2.501   1.774  0.4888  0.3110  0.2161
14411TIP3   OH264647   6.159   1.939   4.990 -0.0136  0.1022  0.0742
14411TIP3    H164648   6.095   2.001   5.022  0.1729  0.7733 -0.8397
14411TIP3    H264649   6.196   1.899   5.069  1.5546  2.8492  0.7801
14412TIP3   OH264650   6.712   1.719  15.883  0.6577 -0.6734  0.1005
14412TIP3    H164651   6.689   1.627  15.870  0.7610 -0.4767 -1.5430
14412TIP3    H264652   6.792   1.717  15.935  1.7241 -1.5685 -1.5373
14413TIP3   OH264653   1.596   4.480   4.461 -0.1116 -0.2014  0.2717
14413TIP3    H164654   1.564   4.475   4.371  1.1877  0.6190 -0.2490
14413TIP3    H264655   1.547   4.552   4.500 -0.0298  0.0304 -0.0537
14414TIP3   OH264656   1.472   5.939   4.368 -0.1566 -0.5589  0.3413
14414TIP3    H164657   1.492   5.997   4.441  0.2700 -0.1563 -0.0864
14414TIP3    H264658   1.556   5.898   4.346 -0.2537 -0.5797 -0.0019
14415TIP3   OH264659   5.830   2.428  13.998 -0.5060  0.6121  0.0007
14415TIP3    H164660   5.920   2.428  13.966  0.0502  0.8194  1.5227
14415TIP3    H264661   5.802   2.336  13.993 -0.7695  0.7925 -1.9829
14416TIP3   OH264662   5.247   4.157  12.428  0.1898 -0.0854 -0.5692
14416TIP3    H164663   5.335   4.185  12.405  0.7229 -1.8305 -0.7093
14416TIP3    H264664   5.190   4.221  12.384  1.3683  1.5596  0.2240
14417TIP3   OH264665   3.849   0.782  14.066 -0.1098  0.1675  0.0239
14417TIP3    H164666   3.832   0.825  13.982 -0.4095 -0.3316 -0.1735
14417TIP3    H264667   3.770   0.799  14.118 -0.1642 -0.0075  0.0006
14418TIP3   OH264668   3.740   6.767  17.198 -0.0134 -0.5555 -1.4588
14418TIP3    H164669   3.755   6.681  17.159  0.0228 -1.2645  0.0858
14418TIP3    H264670   3.826   6.809  17.200 -0.1755 -0.1457 -2.9966
14419TIP3   OH264671   1.398   6.434  15.655  0.6239  0.3058  0.5065
14419TIP3    H164672   1.452   6.356  15.650  1.9401  1.1164  1.6124
14419TIP3    H264673   1.366   6.436  15.745 -0.1134  0.5660  0.2434
14420TIP3   OH264674   2.234   4.361   0.516  0.8329  0.5997  0.6855
14420TIP3    H164675   2.146   4.324   0.507  1.2071 -0.1162 -0.1129
14420TIP3    H264676   2.222   4.439   0.570 -1.0119  3.1456 -3.1565
14421TIP3   OH264677   4.333   6.383   5.766  0.2827  0.6333  0.4048
14421TIP3    H164678   4.306   6.292   5.767 -1.2197  1.0738  0.2779
14421TIP3    H264679   4.413   6.385   5.820 -0.9015 -0.3697  2.2623
14422TIP3   OH264680   3.277   6.371  14.438 -0.4451  0.8061 -0.4028
14422TIP3    H164681   3.341   6.421  14.387 -0.2440  0.5792 -0.3767
14422TIP3    H264682   3.318   6.361  14.524 -0.7166  1.0529 -0.2472
14423TIP3   OH264683   0.827   0.315   4.922 -0.1480  0.3528 -0.3593
14423TIP3    H164684   0.908   0.331   4.970 -2.0795  1.3173  2.8115
14423TIP3    H264685   0.780   0.251   4.975 -1.4918 -0.1298 -2.0889
14424TIP3   OH264686   0.664   1.593   0.342  0.1471 -0.0845 -0.3527
14424TIP3    H164687   0.661   1.560   0.432 -1.4670  0.4490 -0.1889
14424TIP3    H264688   0.576   1.577   0.307  1.4988 -2.7193 -2.7481
14425TIP3   OH264689   2.664   6.598   3.029  0.3632 -0.6318 -0.1968
14425TIP3    H164690   2.582   6.571   2.988  0.2444 -2.8402  1.4457
14425TIP3    H264691   2.707   6.516   3.053  1.9234  0.5703  1.1819
14426TIP3   OH264692   1.667   1.806   5.484 -0.1448 -0.2560  0.0802
14426TIP3    H164693   1.743   1.847   5.524  0.8462 -2.0625  0.0882
14426TIP3    H264694   1.701   1.725   5.445 -2.0460 -1.0632  0.0549
14427TIP3   OH264695   0.601   2.221   2.301  0.4160 -0.3912 -0.0106
14427TIP3    H164696   0.686   2.255   2.328  0.6216 -0.9721  0.0643
14427TIP3    H264697   0.556   2.297   2.263  1.3346 -0.3120 -0.9621
14428TIP3   OH264698   5.092   0.072  10.786  0.8054  0.3368  0.6735
14428TIP3    H164699   5.161   0.047  10.846  0.7097 -0.8605  0.2951
14428TIP3    H264700   5.138   0.105  10.709  0.9353  0.8846  0.9823
14429TIP3   OH264701   0.521   0.883   4.082 -0.1147 -0.2376  0.1624
14429TIP3    H164702   0.550   0.795   4.057  1.2215 -0.5383  2.6060
14429TIP3    H264703   0.593   0.941   4.056 -1.0908  0.1784 -1.6503
14430TIP3   OH264704   2.543   3.291   0.527 -0.6927 -0.2707 -0.1922
14430TIP3    H164705   2.566   3.204   0.560  2.1681  0.5912  0.2542
14430TIP3    H264706   2.618   3.316   0.473 -1.8581  1.5998 -0.9780
14431TIP3   OH264707   5.443   0.420  17.236 -0.5772  0.0719 -0.2300
14431TIP3    H164708   5.440   0.388  17.145  0.4068  0.0726 -0.2735
14431TIP3    H264709   5.452   0.515  17.227 -1.6744  0.1963 -0.1175
14432TIP3   OH264710   3.004   4.473  14.414  0.0225 -0.0702  0.4718
14432TIP3    H164711   2.985   4.478  14.507  4.0258 -0.5124  1.4196
14432TIP3    H264712   2.977   4.385  14.388 -0.5192 -0.1655  1.3812
14433TIP3   OH264713   6.188   2.146   1.672 -0.1405  0.0842 -0.0534
14433TIP3    H164714   6.102   2.111   1.651  0.2542  0.2801 -2.0295
14433TIP3    H264715   6.239   2.069   1.697 -0.3077 -0.2997 -0.8810
14434TIP3   OH264716   6.167   2.049   2.146  0.0764  0.3892  0.4771
14434TIP3    H164717   6.121   2.133   2.148 -0.5785  0.1638 -2.8512
14434TIP3    H264718   6.242   2.061   2.205 -0.5180  2.9919  0.7454
14435TIP3   OH264719   4.271   4.467   4.699 -0.4698  0.1493 -0.4913
14435TIP3    H164720   4.179   4.479   4.720 -0.2306 -0.6023  1.0970
14435TIP3    H264721   4.301   4.555   4.672 -1.9687  0.0703 -2.4947
14436TIP3   OH264722   2.613   3.891   2.372 -0.3325  0.4403  0.6477
14436TIP3    H164723   2.662   3.809   2.370  1.7179  1.6303 -0.1109
14436TIP3    H264724   2.574   3.898   2.285 -0.8893  0.0527  0.8656
14437TIP3   OH264725   5.003   0.590   2.178 -0.0401 -0.1782 -0.6118
14437TIP3    H164726   5.082   0.639   2.201 -0.6102  0.7181 -0.5471
14437TIP3    H264727   5.035   0.512   2.134  0.9787 -0.8083  1.1808
14438TIP3   OH264728   4.238   0.591  15.348 -0.1164 -0.6264  0.1298
14438TIP3    H164729   4.304   0.549  15.404  0.6314  1.1595  0.6249
14438TIP3    H264730   4.211   0.668  15.398  0.2841  0.7943 -1.7919
14439TIP3   OH264731   2.895   1.261  16.732  0.2516  0.5058  0.2612
14439TIP3    H164732   2.896   1.196  16.802  2.3875  1.8850  1.5492
14439TIP3    H264733   2.972   1.241  16.678 -1.7719 -1.0107 -2.2199
14440TIP3   OH264734   6.350   4.226   5.565 -0.4383 -0.0669  0.1568
14440TIP3    H164735   6.327   4.266   5.482  1.4670  0.0204 -0.3648
14440TIP3    H264736   6.357   4.299   5.626  1.7165  0.3046 -0.4808
14441TIP3   OH264737   3.586   4.472  12.918  0.4669 -0.1942  0.1825
14441TIP3    H164738   3.657   4.424  12.875  0.1084 -2.9585  2.5454
14441TIP3    H264739   3.631   4.539  12.970  1.1647 -0.2742 -0.3086
14442TIP3   OH264740   4.996   0.615   4.770 -0.5535  0.1304  0.5763
14442TIP3    H164741   5.091   0.605   4.759 -0.9134 -2.1628 -0.7372
14442TIP3    H264742   4.966   0.653   4.687 -0.7723  1.1432  1.1035
14443TIP3   OH264743   2.227   3.171   2.936 -0.1096 -0.9266  0.2144
14443TIP3    H164744   2.269   3.256   2.946 -1.4148 -0.1586 -0.6733
14443TIP3    H264745   2.245   3.146   2.845 -1.8302 -0.4309 -0.2766
14444TIP3   OH264746   6.407   5.399   1.760 -0.3344 -0.0949 -0.2313
14444TIP3    H164747   6.411   5.445   1.843 -2.4965  0.5102 -0.4491
14444TIP3    H264748   6.329   5.344   1.766  0.2393 -1.0574 -1.3390
14445TIP3   OH264749   5.046   6.509   4.225 -1.0178 -0.6281  0.4071
14445TIP3    H164750   5.033   6.576   4.292 -1.1848  0.4282 -0.6443
14445TIP3    H264751   5.106   6.550   4.162 -2.6520 -0.6851 -1.2518
14446TIP3   OH264752   0.343   2.941  14.908 -0.0081 -0.0664 -0.2548
14446TIP3    H164753   0.387   2.857  14.922 -0.0554  0.2594  2.1343
14446TIP3    H264754   0.263   2.919  14.861  0.8386 -1.1233 -1.2491
14447TIP3   OH264755   5.381   5.788  15.735 -0.1015  0.0987 -0.1629
14447TIP3    H164756   5.385   5.781  15.640  2.8522 -1.5930  0.0269
14447TIP3    H264757   5.332   5.711  15.764 -1.2727  0.7779 -0.3113
14448TIP3   OH264758   1.143   2.265  16.805  0.5443 -0.0623 -0.7451
14448TIP3    H164759   1.141   2.347  16.854  1.5341 -1.7406  2.2337
14448TIP3    H264760   1.189   2.287  16.724 -0.5674  2.6352 -0.7064
14449TIP3   OH264761   5.108   2.632   3.579 -0.5938 -0.1504  0.4445
14449TIP3    H164762   5.041   2.680   3.530 -1.2478 -0.5111  0.9715
14449TIP3    H264763   5.160   2.700   3.622 -0.3229  0.1488 -0.3508
14450TIP3   OH264764   1.212   2.725   4.884 -0.2978  0.4708  0.8135
14450TIP3    H164765   1.139   2.664   4.892 -0.5377  0.7598  0.8315
14450TIP3    H264766   1.174   2.803   4.843  0.2116  0.2381 -0.1270
14451TIP3   OH264767   6.115   0.994  16.358 -0.0028 -0.0104 -0.2432
14451TIP3    H164768   6.026   0.984  16.392 -0.4905  1.0464 -1.1814
14451TIP3    H264769   6.166   1.026  16.432 -0.6680  0.5425 -0.0204
14452TIP3   OH264770   5.659   4.362  11.455 -0.6535 -0.2061  0.3362
14452TIP3    H164771   5.730   4.414  11.418  0.2760 -1.4220  0.3858
14452TIP3    H264772   5.647   4.397  11.544  1.7381 -1.7601  1.3174
14453TIP3   OH264773   6.294   2.965  13.850 -0.1448 -0.7012 -0.3879
14453TIP3    H164774   6.379   2.989  13.888 -0.5945  1.1989 -0.5456
14453TIP3    H264775   6.307   2.972  13.756 -1.0904  1.8197 -0.3582
14454TIP3   OH264776   3.347   5.629   4.032 -0.4203  0.3200 -0.0455
14454TIP3    H164777   3.342   5.700   3.968  1.9390  1.1483  0.6209
14454TIP3    H264778   3.391   5.668   4.108  1.4935 -1.9761  0.1049
14455TIP3   OH264779   1.312   1.101  12.234 -0.0641 -0.0628  0.2305
14455TIP3    H164780   1.218   1.084  12.245 -0.0144 -1.1671 -0.8482
14455TIP3    H264781   1.348   1.098  12.322 -0.5469 -2.8835  0.3812
14456TIP3   OH264782   2.016   0.861  11.427 -0.3412  0.0302 -0.6118
14456TIP3    H164783   1.921   0.866  11.440 -0.3169 -0.8175 -0.0881
14456TIP3    H264784   2.031   0.907  11.344 -0.8480  2.7867  0.7643
14457TIP3   OH264785   1.728   2.614  12.818 -1.0478  0.0174 -0.0660
14457TIP3    H164786   1.793   2.682  12.798 -1.1270  1.0823  3.0224
14457TIP3    H264787   1.648   2.662  12.837 -1.1230 -0.8801  2.0668
14458TIP3   OH264788   0.929   2.227   5.740 -0.0402 -0.4326  0.0143
14458TIP3    H164789   0.968   2.141   5.757 -0.4583 -0.6575 -0.1584
14458TIP3    H264790   0.990   2.270   5.681 -0.0043 -0.7483 -0.1812
14459TIP3   OH264791   4.147   2.539   0.027  0.2044 -0.4188 -0.2203
14459TIP3    H164792   4.087   2.490  -0.030  0.1799  0.3501 -0.8637
14459TIP3    H264793   4.090   2.594   0.081  0.3266  0.5231 -1.0296
14460TIP3   OH264794   4.446   4.919  16.769 -0.0286 -0.5423 -0.3920
14460TIP3    H164795   4.482   4.892  16.853  0.3239 -0.0604 -0.3890
14460TIP3    H264796   4.509   4.888  16.704  0.0907 -0.2272 -0.4272
14461TIP3   OH264797   4.319   3.962   6.757 -0.1831 -0.0220 -0.4824
14461TIP3    H164798   4.251   4.012   6.712  0.4917  0.4734 -0.9498
14461TIP3    H264799   4.396   3.972   6.702  0.7580  0.9262  0.9798
14462TIP3   OH264800   2.710   6.590  16.049 -0.4591  0.5054 -0.0515
14462TIP3    H164801   2.682   6.601  16.140  0.1718 -0.4276  0.2652
14462TIP3    H264802   2.790   6.643  16.043  0.4949 -0.8422  0.4425
14463TIP3   OH264803   4.307   3.964   4.658 -0.3483  0.4851  0.0063
14463TIP3    H164804   4.286   3.931   4.570  1.7427 -2.0119  0.3672
14463TIP3    H264805   4.245   3.919   4.715 -0.1016  0.2181  0.0656
14464TIP3   OH264806   0.764   4.490   0.612  0.0062  0.7022  0.3688
14464TIP3    H164807   0.791   4.555   0.548  2.8431 -1.0396 -0.3059
14464TIP3    H264808   0.774   4.533   0.696  1.0971  1.4078 -0.1128
14465TIP3   OH264809   0.750   4.694   1.961 -0.6678 -0.1977 -0.0020
14465TIP3    H164810   0.687   4.701   1.889 -0.0522 -1.2772 -0.6692
14465TIP3    H264811   0.832   4.726   1.924 -0.6046  0.3105  0.5717
14466TIP3   OH264812   3.856   2.433  12.243  0.0047 -0.1162 -0.1103
14466TIP3    H164813   3.864   2.525  12.218 -0.4810 -0.6523 -2.2940
14466TIP3    H264814   3.939   2.393  12.215 -0.1536 -0.5353  0.0115
14467TIP3   OH264815   6.022   3.932   3.871 -0.2281 -0.1823 -0.1553
14467TIP3    H164816   6.014   3.842   3.839  2.8792 -1.2183  1.7409
14467TIP3    H264817   6.097   3.968   3.824  1.7169 -0.3270  2.6835
14468TIP3   OH264818   4.601   3.014  11.960 -0.8532  0.0981 -0.7648
14468TIP3    H164819   4.656   3.086  11.927 -0.6086 -0.3953 -1.4578
14468TIP3    H264820   4.572   2.970  11.881 -1.5175 -0.1869 -0.3558
14469TIP3   OH264821   0.433   0.064   3.854 -0.6178  0.4974  0.0764
14469TIP3    H164822   0.472  -0.019   3.827 -0.6518  0.2870  0.6590
14469TIP3    H264823   0.503   0.128   3.844 -0.6783  0.4472 -0.6506
14470TIP3   OH264824   4.446   0.578  12.968 -0.4857 -0.0570  0.3884
14470TIP3    H164825   4.465   0.544  13.056 -0.4628  1.4604  0.9918
14470TIP3    H264826   4.453   0.673  12.978  0.5947  0.0763 -1.5080
14471TIP3   OH264827   5.115   5.292   5.235 -0.5221  0.4027  0.4371
14471TIP3    H164828   5.037   5.324   5.282 -0.5402  0.7607  0.1602
14471TIP3    H264829   5.188   5.311   5.294 -0.5138  1.1016  0.2059
14472TIP3   OH264830   2.563   5.905   2.174 -0.3823  0.1358  0.7211
14472TIP3    H164831   2.557   6.001   2.178 -0.4213  0.1570  0.1171
14472TIP3    H264832   2.531   5.882   2.087  0.7578 -0.3505  0.4245
14473TIP3   OH264833   4.415   0.222   6.043  0.0687 -0.0288 -0.2618
14473TIP3    H164834   4.345   0.197   6.102  0.6133 -0.0035  0.4062
14473TIP3    H264835   4.385   0.303   6.002  0.1986  0.5999  0.8724
14474TIP3   OH264836   3.981   1.144   0.690 -0.4358 -0.4437 -0.1737
14474TIP3    H164837   3.894   1.106   0.689  0.0578 -1.6338  0.7269
14474TIP3    H264838   4.025   1.105   0.613 -0.6866  0.1231 -0.6030
14475TIP3   OH264839   3.730   5.172   5.694  0.0467 -0.4092  0.0524
14475TIP3    H164840   3.660   5.175   5.758  1.9311  0.6152  2.1297
14475TIP3    H264841   3.776   5.255   5.704  1.2395 -0.8231 -1.6457
14476TIP3   OH264842   5.514   0.529   3.702 -0.3462  0.5855 -0.5131
14476TIP3    H164843   5.538   0.479   3.780 -1.3810  0.7856 -0.0463
14476TIP3    H264844   5.516   0.466   3.631 -0.3932  0.1675 -0.1456
14477TIP3   OH264845   5.883   4.031  11.030  0.3431 -0.1484 -0.0315
14477TIP3    H164846   5.843   3.963  10.975 -0.7470  1.5190 -1.3605
14477TIP3    H264847   5.973   4.002  11.043  1.0764  0.0497 -3.9315
14478TIP3   OH264848   4.956   4.870  11.302  0.4315 -0.3376  0.3199
14478TIP3    H164849   4.948   4.932  11.229  0.6604  0.0774  0.6488
14478TIP3    H264850   5.045   4.836  11.294  0.8095  0.4870  1.0317
14479TIP3   OH264851   2.686   0.055  16.986  0.0829  0.0705  0.0290
14479TIP3    H164852   2.776   0.079  17.011  0.2773  1.5931 -1.9597
14479TIP3    H264853   2.680  -0.038  17.005  1.3701  0.4079  2.2497
14480TIP3   OH264854   3.110   4.088   3.274 -0.0935 -0.3693 -0.2576
14480TIP3    H164855   3.151   4.142   3.342 -0.8422  0.8533 -0.7516
14480TIP3    H264856   3.066   4.152   3.217 -0.5028 -1.4736 -1.1842
14481TIP3   OH264857   3.339   0.826   1.933 -0.0389  0.1173  0.5018
14481TIP3    H164858   3.357   0.888   2.004 -1.0341  1.1848 -0.1623
14481TIP3    H264859   3.412   0.838   1.872 -1.2309  2.0465 -0.5697
14482TIP3   OH264860   2.708   6.498   0.557 -0.4228  0.0405 -0.2970
14482TIP3    H164861   2.659   6.416   0.547  0.4052 -0.5906  0.7638
14482TIP3    H264862   2.769   6.499   0.484  0.5426 -0.9842  0.4858
14483TIP3   OH264863   1.074   4.556  14.624  0.4947  0.3023  0.1746
14483TIP3    H164864   1.002   4.599  14.672 -1.4713  0.5270 -2.8286
14483TIP3    H264865   1.033   4.525  14.543  3.5050 -0.8631 -0.9556
14484TIP3   OH264866   6.323   1.597   4.756 -0.0099 -0.3319  0.1349
14484TIP3    H164867   6.397   1.555   4.800  0.8586 -1.3379 -2.2057
14484TIP3    H264868   6.355   1.684   4.733  0.2369 -0.5333 -0.2938
14485TIP3   OH264869   5.434   0.898   1.312 -0.5093 -0.1178 -0.3473
14485TIP3    H164870   5.423   0.852   1.229 -0.0997 -1.3579  0.2797
14485TIP3    H264871   5.528   0.916   1.317 -0.8018  1.8413 -1.1224
14486TIP3   OH264872   5.582   1.880  16.912 -0.1789 -0.0670 -0.5768
14486TIP3    H164873   5.657   1.910  16.860  1.0647  0.0308  1.2363
14486TIP3    H264874   5.621   1.831  16.984 -1.8822 -0.1943  0.2839
14487TIP3   OH264875   3.400   0.640  15.576 -0.0262  0.0915 -0.4650
14487TIP3    H164876   3.352   0.624  15.494  2.1976 -1.4776 -1.5159
14487TIP3    H264877   3.488   0.664  15.548  0.3641  0.9897  1.4600
14488TIP3   OH264878   1.631   1.640  15.250  0.0680  0.0678 -0.0727
14488TIP3    H164879   1.709   1.676  15.293  1.2601 -1.6789 -0.7004
14488TIP3    H264880   1.664   1.604  15.168 -1.4531 -0.4929 -0.4533
14489TIP3   OH264881   4.014   4.270   2.972  0.0331  0.2453  0.0759
14489TIP3    H164882   3.966   4.239   2.896  1.2193 -1.0722 -0.1511
14489TIP3    H264883   4.059   4.349   2.943 -0.8370  0.6657 -0.1172
14490TIP3   OH264884   1.448   5.692   1.830  0.6516 -0.5646  0.0296
14490TIP3    H164885   1.481   5.607   1.799  1.6043 -0.7076  1.3803
14490TIP3    H264886   1.526   5.747   1.835 -0.2920  1.2127 -3.2564
14491TIP3   OH264887   3.065   6.653   4.229  0.5768  0.6675  0.4698
14491TIP3    H164888   3.144   6.610   4.195  0.8836  1.6809 -0.1378
14491TIP3    H264889   3.047   6.722   4.165  0.9210  2.3586  2.1524
14492TIP3   OH264890   3.912   5.065  15.547 -0.1724 -0.0002 -0.0344
14492TIP3    H164891   3.837   5.014  15.576 -0.4744  0.9781  0.9230
14492TIP3    H264892   3.912   5.054  15.451 -1.1335 -0.5355  0.0179
14493TIP3   OH264893   6.759   4.465   1.410  0.3659  0.4515  0.3554
14493TIP3    H164894   6.742   4.555   1.437 -1.9134  0.3851 -0.6958
14493TIP3    H264895   6.734   4.412   1.486  0.4514  0.6412  0.5145
14494TIP3   OH264896   5.669   0.275   3.226  0.3039  0.4291  0.1436
14494TIP3    H164897   5.721   0.314   3.297 -0.7154  1.0914  0.5338
14494TIP3    H264898   5.639   0.349   3.174 -0.6635  0.0825  0.2016
14495TIP3   OH264899   2.529   4.496  16.866  0.5314  0.4358  0.6311
14495TIP3    H164900   2.484   4.471  16.947  1.9353 -3.4386  0.3179
14495TIP3    H264901   2.622   4.497  16.889  0.9105 -0.2226 -0.8189
14496TIP3   OH264902   1.038   2.991  14.698  0.7304 -0.2845 -0.3382
14496TIP3    H164903   1.048   2.937  14.776  2.8049 -0.5944 -0.7880
14496TIP3    H264904   1.126   3.025  14.681 -0.4013  2.7607 -0.4190
14497TIP3   OH264905   5.485   5.681   3.037  0.6411 -0.2024 -0.9341
14497TIP3    H164906   5.492   5.587   3.022 -1.9307 -0.4389 -0.9394
14497TIP3    H264907   5.486   5.690   3.132 -0.5377 -0.3984 -0.8916
14498TIP3   OH264908   4.274   1.227   2.230  0.0101 -0.5363 -0.1176
14498TIP3    H164909   4.249   1.199   2.142  0.3389  2.0157 -1.0387
14498TIP3    H264910   4.370   1.228   2.229  0.0214 -0.8913  0.3989
14499TIP3   OH264911   3.730   6.472  11.710  1.0901  0.3992  0.6675
14499TIP3    H164912   3.773   6.401  11.759 -0.5131 -1.7144 -0.8766
14499TIP3    H264913   3.678   6.518  11.776 -1.7835 -2.9976  0.9205
14500TIP3   OH264914   4.133   3.529  15.968 -0.1285 -0.7290  0.1151
14500TIP3    H164915   4.215   3.572  15.992  0.6533 -1.8055 -0.5590
14500TIP3    H264916   4.124   3.547  15.874 -0.5454 -0.8319  0.1358
14501TIP3   OH264917   2.232   5.950  13.580  0.4525 -0.1419  0.5739
14501TIP3    H164918   2.150   5.933  13.532  0.4619 -1.4186  0.9829
14501TIP3    H264919   2.203   5.966  13.670  0.6475 -0.5160  0.7032
14502TIP3   OH264920   1.072   2.282   4.268 -0.4093  0.0426  0.0648
14502TIP3    H164921   1.159   2.317   4.249 -0.8890 -0.7098 -3.9928
14502TIP3    H264922   1.019   2.359   4.288  0.4184  0.8226 -0.7053
14503TIP3   OH264923   5.300   2.993  11.850 -0.2197  0.4801 -0.1192
14503TIP3    H164924   5.324   3.042  11.929 -1.9466  0.3758  0.4967
14503TIP3    H264925   5.383   2.957  11.817  0.5669  0.8766  1.4015
14504TIP3   OH264926   6.344   1.897   0.613  0.1548  0.3410  0.4156
14504TIP3    H164927   6.362   1.906   0.520  0.1054 -0.3328  0.3387
14504TIP3    H264928   6.422   1.932   0.656  0.7232 -0.5388  0.1061
14505TIP3   OH264929   0.525   5.524  14.533  0.6218 -0.2488  0.0893
14505TIP3    H164930   0.535   5.523  14.628  1.8337 -2.6242 -0.0463
14505TIP3    H264931   0.436   5.491  14.518 -0.2726  1.9002  0.4384
14506TIP3   OH264932   5.484   2.548   4.237 -0.1218 -0.5121  0.2484
14506TIP3    H164933   5.573   2.533   4.207  0.4101  0.3804  1.3209
14506TIP3    H264934   5.464   2.638   4.211  0.2338  0.1671  2.1695
14507TIP3   OH264935   2.949   5.178   0.142  0.2931 -0.5624 -0.1222
14507TIP3    H164936   2.902   5.227   0.075  0.9039  0.0668 -0.0890
14507TIP3    H264937   2.896   5.188   0.221 -1.8264 -3.4571 -1.0892
14508TIP3   OH264938   1.876   3.450   3.911 -0.2367 -0.1231  0.0743
14508TIP3    H164939   1.950   3.459   3.852 -0.2321  0.3937  0.1528
14508TIP3    H264940   1.882   3.527   3.969 -0.0702 -0.7711  0.9297
14509TIP3   OH264941   2.227   3.675  15.084  0.0174 -0.4679  0.4117
14509TIP3    H164942   2.308   3.628  15.067 -0.1893 -0.4604 -0.6282
14509TIP3    H264943   2.162   3.607  15.098 -0.1113 -0.4857 -0.2709
14510TIP3   OH264944   2.304   0.450  15.081  0.2211 -0.1973 -0.3700
14510TIP3    H164945   2.331   0.366  15.044 -1.1630 -0.8022 -0.0325
14510TIP3    H264946   2.367   0.466  15.151  0.9489 -0.5868 -0.9260
14511TIP3   OH264947   0.412   3.687  13.174 -0.2504 -0.5429 -0.3152
14511TIP3    H164948   0.431   3.640  13.255 -0.6584 -0.5891 -0.2427
14511TIP3    H264949   0.428   3.623  13.105  1.3252 -0.1234 -0.3556
14512TIP3   OH264950   5.896   5.869   2.332 -0.3264 -0.6087  0.2008
14512TIP3    H164951   5.991   5.874   2.319 -0.2623 -0.7419  0.6084
14512TIP3    H264952   5.878   5.933   2.401 -0.6224 -0.1158 -0.3331
14513TIP3   OH264953   1.757   0.407   4.046 -0.2484 -0.0249 -0.5535
14513TIP3    H164954   1.818   0.472   4.012  1.7252 -1.2008  0.6210
14513TIP3    H264955   1.696   0.390   3.974  0.6426  1.3762 -1.6439
14514TIP3   OH264956   4.323   1.427   6.122  0.0600  0.0016 -0.4052
14514TIP3    H164957   4.392   1.442   6.058 -0.8821  1.4862 -1.1056
14514TIP3    H264958   4.333   1.335   6.147  1.4200 -0.1700 -1.5091
14515TIP3   OH264959   5.017   5.069  12.843  0.3548 -0.5222 -0.5516
14515TIP3    H164960   4.969   5.075  12.925  2.9115 -1.2177  1.0599
14515TIP3    H264961   5.028   5.160  12.815 -0.6274 -0.2884 -0.1961
14516TIP3   OH264962   2.861   6.060   6.130  0.3834 -0.3765  0.5267
14516TIP3    H164963   2.794   6.098   6.186 -0.4528 -0.8884 -0.1115
14516TIP3    H264964   2.872   5.971   6.164  1.9018  0.2256  1.6419
14517TIP3   OH264965   1.772   2.717   5.507 -0.1593  0.2090  0.1010
14517TIP3    H164966   1.746   2.658   5.578  0.7974 -0.0408  0.2532
14517TIP3    H264967   1.745   2.804   5.535  1.2340  0.2723  1.2942
14518TIP3   OH264968   0.712   1.568  16.732 -0.2508 -0.2748 -0.2036
14518TIP3    H164969   0.739   1.642  16.678  0.8217 -0.0381  0.6466
14518TIP3    H264970   0.617   1.563  16.721 -0.1881  0.5425 -1.1268
14519TIP3   OH264971   1.718   0.695  16.544  0.4398  0.4722  0.0079
14519TIP3    H164972   1.701   0.602  16.557  0.1407  0.2962 -1.5292
14519TIP3    H264973   1.644   0.739  16.584 -0.6307 -0.0494 -1.3876
14520TIP3   OH264974   5.348   4.005   4.605  0.5075 -0.3937 -0.0469
14520TIP3    H164975   5.357   4.064   4.530  1.5100  0.9925  1.1388
14520TIP3    H264976   5.327   4.063   4.679 -1.1794 -1.8151  0.6246
14521TIP3   OH264977   1.267   1.067   6.892  0.0211  0.2574  0.1598
14521TIP3    H164978   1.351   1.025   6.909  0.6784  0.5277 -2.1874
14521TIP3    H264979   1.275   1.153   6.932  0.6781  0.0870  0.3985
14522TIP3   OH264980   5.343   0.606   3.239 -0.0665 -0.0301  0.5683
14522TIP3    H164981   5.338   0.653   3.322 -1.5680 -0.4500  0.7368
14522TIP3    H264982   5.276   0.538   3.246  0.1601 -0.4138 -0.7736
14523TIP3   OH264983   2.843   6.442   4.989 -0.2181 -0.2294  0.1709
14523TIP3    H164984   2.856   6.357   4.948 -0.7941 -1.1789  1.8967
14523TIP3    H264985   2.766   6.478   4.945  0.0516 -0.5832 -0.5965
14524TIP3   OH264986   3.184   2.878   4.756 -0.5473 -0.2274 -0.0284
14524TIP3    H164987   3.197   2.966   4.721 -2.3431 -0.0998 -0.4224
14524TIP3    H264988   3.175   2.823   4.679  0.9274 -0.8280  0.2163
14525TIP3   OH264989   5.201   3.102  16.870 -0.3928 -0.2399 -0.5379
14525TIP3    H164990   5.114   3.136  16.893 -0.4805 -1.2630  0.7245
14525TIP3    H264991   5.262   3.163  16.911 -0.5492 -1.6802  1.9070
14526TIP3   OH264992   6.007   2.165  15.236  0.6171 -0.4779  0.0463
14526TIP3    H164993   6.079   2.105  15.252  1.2276 -0.1711 -1.3934
14526TIP3    H264994   6.039   2.222  15.165 -0.8299  0.0027 -0.2422
14527TIP3   OH264995   3.477   2.949  16.277  0.5422  0.1424  0.2821
14527TIP3    H164996   3.409   2.970  16.213  0.6136 -2.1103 -0.5709
14527TIP3    H264997   3.532   3.028  16.279  0.2285  0.4658 -2.0299
14528TIP3   OH264998   6.136   4.777  12.206 -0.2846  0.2506 -0.1682
14528TIP3    H164999   6.058   4.725  12.224  0.9379 -1.8559 -0.7621
14528TIP3    H265000   6.170   4.742  12.124  0.5588  2.0559 -0.6281
14529TIP3   OH265001   1.522   4.066   2.359 -0.3611  0.2066 -0.1168
14529TIP3    H165002   1.471   3.985   2.363 -0.0727  0.0156 -0.2724
14529TIP3    H265003   1.590   4.054   2.426  2.1228 -1.3669 -2.8086
14530TIP3   OH265004   2.429   4.293  16.677  0.1811 -0.0844  0.0795
14530TIP3    H165005   2.433   4.339  16.760  0.6527  0.2803 -0.1418
14530TIP3    H265006   2.452   4.202  16.698 -1.8285 -0.4733  0.7008
14531TIP3   OH265007   1.919   4.139  15.426 -0.0595 -0.6558 -0.5727
14531TIP3    H165008   1.874   4.074  15.479 -0.9483 -0.0980 -0.6192
14531TIP3    H265009   1.896   4.223  15.466  1.4472 -0.3906 -0.2274
14532TIP3   OH265010   1.528   1.222  11.384  0.3003 -0.3760 -0.2459
14532TIP3    H165011   1.503   1.139  11.425  0.8557 -0.1699  0.5439
14532TIP3    H265012   1.522   1.286  11.455  0.6202  0.1165 -0.6537
14533TIP3   OH265013   3.492   5.731   2.224 -0.3277  0.1880 -0.5921
14533TIP3    H165014   3.467   5.765   2.310 -0.7667  0.2456 -0.7412
14533TIP3    H265015   3.581   5.763   2.211 -0.0166 -0.3877  0.1366
14534TIP3   OH265016   5.894   5.955  15.724 -0.3912 -0.4073  0.0785
14534TIP3    H165017   5.925   5.930  15.637  0.8045  1.1419  0.0481
14534TIP3    H265018   5.966   6.006  15.762 -2.3208  2.0682  0.5411
14535TIP3   OH265019   0.958   0.951   4.064 -0.0537  0.2115 -0.4539
14535TIP3    H165020   1.016   1.027   4.063 -2.1102  1.8252 -1.6732
14535TIP3    H265021   0.928   0.942   3.974 -1.8132 -0.4910  0.1675
14536TIP3   OH265022   2.519   0.953   2.318  0.3025  0.0716  0.2858
14536TIP3    H165023   2.486   0.974   2.406 -0.9218 -1.2779  0.1694
14536TIP3    H265024   2.599   0.904   2.333  0.6354  0.7108  0.6274
14537TIP3   OH265025   1.792   6.193  13.088 -0.2387 -0.3499  0.0972
14537TIP3    H165026   1.745   6.219  13.008  0.5961 -2.1882 -1.0440
14537TIP3    H265027   1.730   6.136  13.134 -1.0164  1.3465  1.1810
14538TIP3   OH265028   2.144   0.182   5.417 -0.1159 -0.2308 -0.0493
14538TIP3    H165029   2.226   0.201   5.463 -0.0686 -0.6027  0.0193
14538TIP3    H265030   2.111   0.268   5.391  0.8018 -0.1417 -0.9599
14539TIP3   OH265031   6.641   5.876  15.426  0.0850  0.0395  0.3405
14539TIP3    H165032   6.726   5.854  15.465 -0.6290  0.6503  2.2976
14539TIP3    H265033   6.576   5.844  15.489 -1.1012  0.7715 -0.4829
14540TIP3   OH265034   5.211   1.102   3.364  0.3432 -0.3092  0.2614
14540TIP3    H165035   5.248   1.031   3.311  1.1707  0.0899  0.2942
14540TIP3    H265036   5.238   1.182   3.319  0.6299  0.0216  1.0039
14541TIP3   OH265037   5.481   3.026  14.009 -0.2990 -0.4268  0.5369
14541TIP3    H165038   5.393   3.064  13.998 -0.5229 -1.0632  0.1213
14541TIP3    H265039   5.540   3.092  13.974 -0.4528  0.9214  2.7260
14542TIP3   OH265040   0.875   4.605   5.220  0.1053  0.1906  0.1595
14542TIP3    H165041   0.939   4.606   5.291  0.6779 -1.5971 -0.3052
14542TIP3    H265042   0.802   4.553   5.254 -0.0377  0.1459 -0.2167
14543TIP3   OH265043   2.822   0.466  11.821 -0.2924  0.1272 -0.1144
14543TIP3    H165044   2.772   0.482  11.901 -1.9570 -0.6206 -0.9742
14543TIP3    H265045   2.763   0.492  11.750  0.2406 -1.4626 -1.1865
14544TIP3   OH265046   0.764   6.390  14.706  0.3218  0.5639 -0.1516
14544TIP3    H165047   0.806   6.310  14.739  0.5677  1.2555  1.2638
14544TIP3    H265048   0.720   6.363  14.626  0.2823 -1.0321  0.3910
14545TIP3   OH265049   1.924   5.571  10.510 -0.3445 -0.3905  0.9091
14545TIP3    H165050   1.992   5.505  10.495 -0.3295 -0.5660  1.7504
14545TIP3    H265051   1.968   5.654  10.491  0.0603 -0.5148  1.2740
14546TIP3   OH265052   6.153   6.733   0.055 -0.3908  0.3714  0.7305
14546TIP3    H165053   6.182   6.821   0.081  0.4775  0.0148  0.9968
14546TIP3    H265054   6.120   6.694   0.135 -0.3475  0.2917  0.7094
14547TIP3   OH265055   2.297   5.187   0.233 -0.2854 -0.0019 -0.2159
14547TIP3    H165056   2.328   5.269   0.271 -0.6436 -0.2428  0.5926
14547TIP3    H265057   2.206   5.205   0.209 -0.0237  0.1911 -1.0836
14548TIP3   OH265058   2.074   5.809   0.407 -0.6627  0.1484  0.0493
14548TIP3    H165059   2.130   5.782   0.480  0.3282  0.6121 -0.5255
14548TIP3    H265060   2.053   5.727   0.362  0.7270  0.1000 -0.5465
14549TIP3   OH265061   1.129   5.236  11.893 -0.6319 -0.0765 -0.4398
14549TIP3    H165062   1.085   5.246  11.809  0.6206 -1.3205 -1.2627
14549TIP3    H265063   1.219   5.262  11.877 -0.4282 -0.1069  0.5805
14550TIP3   OH265064   5.440   0.133  16.067 -0.0562  0.1845  0.3687
14550TIP3    H165065   5.364   0.118  16.122  0.4085 -1.3771  0.5922
14550TIP3    H265066   5.455   0.228  16.074 -2.1965  0.5734 -0.0125
14551TIP3   OH265067   2.380   4.615  15.711 -0.0963 -0.4157  0.5950
14551TIP3    H165068   2.386   4.674  15.636 -0.9401 -1.6152 -0.4209
14551TIP3    H265069   2.456   4.558  15.703 -0.0458 -0.3807  0.8094
14552TIP3   OH265070   4.207   2.945  13.537 -0.5512 -0.3848 -0.0181
14552TIP3    H165071   4.148   2.884  13.582 -1.0742  0.3780  0.3451
14552TIP3    H265072   4.263   2.979  13.607 -2.8929  2.5752  0.5283
14553TIP3   OH265073   2.733   1.978  11.270  0.3754  0.7281  0.6346
14553TIP3    H165074   2.759   1.982  11.178 -0.1152  1.1883  0.5102
14553TIP3    H265075   2.812   1.953  11.317  0.7417  0.9483  0.1337
14554TIP3   OH265076   3.497   5.160  10.437  0.1900 -1.1089  0.0947
14554TIP3    H165077   3.453   5.077  10.458 -1.7001 -0.6622 -1.9511
14554TIP3    H265078   3.439   5.203  10.375  1.6529  1.3187  0.3548
14555TIP3   OH265079   3.957   5.714  10.121 -0.4293  1.2216 -0.5996
14555TIP3    H165080   3.938   5.630  10.079 -1.9436  1.7172 -0.9328
14555TIP3    H265081   4.030   5.750  10.071  1.8542 -0.9451  1.0060
14556TIP3   OH265082   4.862   0.660   1.920 -0.6917  0.0866 -0.2615
14556TIP3    H165083   4.782   0.697   1.959  0.0384 -2.4975  3.9301
14556TIP3    H265084   4.929   0.672   1.986  2.0484  0.5064 -2.9982
14557TIP3   OH265085   3.506   0.508   1.846 -0.4745 -0.1967  0.3092
14557TIP3    H165086   3.455   0.518   1.765 -0.0915 -0.4245  0.0355
14557TIP3    H265087   3.450   0.544   1.914 -0.8451 -0.0927 -0.0453
14558TIP3   OH265088   5.021   2.089  16.312  0.9315  0.0032  0.0519
14558TIP3    H165089   5.112   2.061  16.320  0.7819 -0.4427  0.1873
14558TIP3    H265090   4.974   2.010  16.286  0.7623  0.4962 -1.1727
14559TIP3   OH265091   1.899   4.382   3.955 -0.2012  0.5680 -0.0910
14559TIP3    H165092   1.908   4.311   4.018 -4.1705 -0.2139 -0.2200
14559TIP3    H265093   1.885   4.460   4.008 -0.6435  0.4107  0.0252
14560TIP3   OH265094   4.251   6.334   3.595 -0.1068 -0.4424 -0.0563
14560TIP3    H165095   4.262   6.285   3.514 -0.1130 -1.9206  0.8276
14560TIP3    H265096   4.319   6.301   3.653  1.2983  2.1293 -0.1351
14561TIP3   OH265097   0.946   0.015  13.361  0.2624  1.6340  0.5461
14561TIP3    H165098   1.036  -0.017  13.351 -0.5156 -0.3394 -0.5640
14561TIP3    H265099   0.942   0.093  13.306  0.6410  0.2810 -1.4844
14562TIP3   OH265100   5.129   0.325   3.071  0.0385 -0.2181 -0.7787
14562TIP3    H165101   5.130   0.320   2.976 -0.7271 -2.2086 -0.7065
14562TIP3    H265102   5.221   0.332   3.096  0.2995 -0.5574 -1.6257
14563TIP3   OH265103   3.090   1.996  14.777  0.1217  0.0307  0.2668
14563TIP3    H165104   3.034   2.071  14.795 -0.4602 -0.6093  1.1134
14563TIP3    H265105   3.179   2.028  14.794 -0.1268  0.5157  0.6575
14564TIP3   OH265106   3.012   5.484   3.430  0.2764  0.2878  0.4029
14564TIP3    H165107   3.107   5.487   3.433  0.3404 -0.3932 -0.5511
14564TIP3    H265108   2.985   5.466   3.520  1.0004  1.4822  0.8596
14565TIP3   OH265109   5.861   3.799  13.237  0.0278 -0.2301 -0.4449
14565TIP3    H165110   5.943   3.756  13.215 -0.0705 -0.1853 -0.8899
14565TIP3    H265111   5.864   3.809  13.332 -0.0364 -1.3738 -0.3244
14566TIP3   OH265112   6.519   3.778   1.127  0.3017 -0.5287  0.6572
14566TIP3    H165113   6.513   3.683   1.127  1.0264 -0.5801  0.5630
14566TIP3    H265114   6.595   3.797   1.071 -0.8574  0.1752 -0.7090
14567TIP3   OH265115   2.835   1.820  11.675  0.8192  0.5140  0.0123
14567TIP3    H165116   2.897   1.892  11.666  0.6140  0.5173 -1.5401
14567TIP3    H265117   2.825   1.786  11.586  0.8798 -1.4072  0.7164
14568TIP3   OH265118   6.066   1.790   5.627 -0.8425 -0.0577  0.1944
14568TIP3    H165119   6.124   1.854   5.669 -1.4865  0.0161  0.9825
14568TIP3    H265120   5.981   1.804   5.668 -1.4419 -0.1305 -0.9875
14569TIP3   OH265121   4.608   0.953  11.762  0.3013  0.0296  0.3561
14569TIP3    H165122   4.520   0.919  11.749  0.9140 -1.5655  0.2496
14569TIP3    H265123   4.648   0.894  11.825  0.8017  1.6567  1.6149
14570TIP3   OH265124   3.710   2.287   4.775 -0.1794  0.5833  0.1286
14570TIP3    H165125   3.714   2.300   4.870 -2.6729  1.6962  0.1145
14570TIP3    H265126   3.795   2.251   4.753 -0.0633 -1.0864  3.0095
14571TIP3   OH265127   1.789   0.499   0.419  0.0828  0.4371  0.5172
14571TIP3    H165128   1.781   0.536   0.331 -0.5056 -0.4116  0.2152
14571TIP3    H265129   1.819   0.409   0.405  0.2914  0.3976  1.1993
14572TIP3   OH265130   5.400   4.966   2.416 -0.6137  0.3132 -0.6291
14572TIP3    H165131   5.452   5.001   2.488  0.6829 -1.2940 -0.7654
14572TIP3    H265132   5.310   4.965   2.450 -0.2427  1.0510  0.3876
14573TIP3   OH265133   4.287   4.255   0.791 -0.1258 -0.7414 -0.1245
14573TIP3    H165134   4.276   4.179   0.734 -1.9826 -1.7044  1.4577
14573TIP3    H265135   4.269   4.222   0.879  2.0380  0.8704  0.9659
14574TIP3   OH265136   1.453   1.567   1.592 -0.5281 -0.3008 -0.1599
14574TIP3    H165137   1.469   1.484   1.548  1.1511 -0.5134  0.7912
14574TIP3    H265138   1.414   1.543   1.676  0.1237 -0.1498  0.1911
14575TIP3   OH265139   0.534   1.771   4.808  0.0384  0.0526  0.2431
14575TIP3    H165140   0.543   1.717   4.886 -1.3888 -0.9617 -0.2581
14575TIP3    H265141   0.604   1.836   4.814  1.7858 -1.8592  0.8477
14576TIP3   OH265142   2.689   1.781  12.336  0.0453  0.0166  0.0708
14576TIP3    H165143   2.635   1.757  12.411  0.5864 -1.8858 -0.1167
14576TIP3    H265144   2.736   1.859  12.365 -1.4915  0.6740  0.8519
14577TIP3   OH265145   2.177   0.204  12.220  0.1511 -0.4675 -0.6286
14577TIP3    H165146   2.241   0.150  12.172  0.5136 -1.7674  1.2392
14577TIP3    H265147   2.142   0.145  12.287 -2.5350  0.4389 -1.1803
14578TIP3   OH265148   4.113   0.262  13.508 -0.7177  0.4829  0.6030
14578TIP3    H165149   4.162   0.343  13.526 -2.7350  1.4652  1.9122
14578TIP3    H265150   4.085   0.272  13.417  1.6860 -0.2128 -0.2463
14579TIP3   OH265151   1.702   2.662   1.120  0.6907  0.5093  0.1639
14579TIP3    H165152   1.661   2.604   1.057  0.2271 -0.0521  0.9677
14579TIP3    H265153   1.776   2.701   1.073 -1.1810  2.1158 -1.5639
14580TIP3   OH265154   1.741   6.131  15.817  0.3768  0.2572 -0.0676
14580TIP3    H165155   1.794   6.062  15.777  2.0208  1.1015  0.5967
14580TIP3    H265156   1.802   6.179  15.873 -1.3855  0.4972  1.7061
14581TIP3   OH265157   3.613   1.659  14.377  0.4197 -0.7469  0.3320
14581TIP3    H165158   3.561   1.714  14.436 -0.9437 -0.9312 -0.6705
14581TIP3    H265159   3.625   1.577  14.425  0.4780 -0.4016  0.9097
14582TIP3   OH265160   2.374   5.815   0.396  0.3172 -0.5197 -0.0665
14582TIP3    H165161   2.323   5.786   0.320 -1.5980 -2.1719  1.7719
14582TIP3    H265162   2.463   5.787   0.377 -0.1212 -0.8982 -1.6995
14583TIP3   OH265163   1.279   1.456   1.338 -0.1362 -0.3632 -0.2598
14583TIP3    H165164   1.347   1.411   1.288  0.7292 -0.0086  0.5782
14583TIP3    H265165   1.217   1.487   1.272 -0.6349 -2.5834 -0.8526
14584TIP3   OH265166   4.238   5.552  12.175 -0.0595  0.1762  0.1925
14584TIP3    H165167   4.241   5.516  12.263  1.8759 -1.2232 -0.4166
14584TIP3    H265168   4.309   5.616  12.172  0.5258 -0.4988 -0.6412
14585TIP3   OH265169   5.227   6.784   4.060 -0.3792  0.2199  0.0274
14585TIP3    H165170   5.198   6.824   4.142 -0.2146  0.4951 -0.0496
14585TIP3    H265171   5.303   6.836   4.033 -0.8209  0.5235 -0.6306
14586TIP3   OH265172   4.873   5.552   0.533 -0.1555  0.1179  0.7349
14586TIP3    H165173   4.875   5.643   0.562  1.3226  0.8491 -1.5187
14586TIP3    H265174   4.958   5.517   0.561  0.2477  0.1237 -0.4513
14587TIP3   OH265175   3.443   0.589   1.193 -0.1072 -0.5247 -0.5236
14587TIP3    H165176   3.355   0.561   1.215  0.0111  0.0394  0.6912
14587TIP3    H265177   3.456   0.560   1.102 -1.3357 -1.0703 -0.5248
14588TIP3   OH265178   1.557   1.101   0.874 -1.1504  0.1654 -0.1893
14588TIP3    H165179   1.569   1.017   0.828 -0.8140 -0.5480  1.1574
14588TIP3    H265180   1.560   1.077   0.966  1.1894  1.9664  0.2387
14589TIP3   OH265181   3.272   5.950  11.570  0.5778  0.6097  0.4059
14589TIP3    H165182   3.353   5.923  11.613  0.1025 -0.7135  0.4971
14589TIP3    H265183   3.300   6.012  11.503  1.6745  0.0933  0.3764
14590TIP3   OH265184   0.923   0.205  13.593  0.0346  0.2334 -0.5095
14590TIP3    H165185   0.843   0.164  13.623  1.2544 -1.5550  0.3706
14590TIP3    H265186   0.991   0.139  13.605  1.7512  1.8876 -0.7162
14591TIP3   OH265187   3.899   0.936   5.639  0.0436 -0.2214  0.2559
14591TIP3    H165188   3.993   0.951   5.649  0.1889 -1.0136  0.0938
14591TIP3    H265189   3.891   0.889   5.556 -0.6791  1.5994 -0.7433
14592TIP3   OH265190   0.601   1.595   3.132 -0.4134 -0.0328 -0.2281
14592TIP3    H165191   0.603   1.663   3.199  0.1761 -0.9106  0.6634
14592TIP3    H265192   0.627   1.640   3.052  1.8736  0.4180  0.7149
14593TIP3   OH265193   5.009   5.607   2.615  0.8039 -0.4908 -0.4703
14593TIP3    H165194   5.090   5.646   2.581 -0.6417  0.8331 -2.4752
14593TIP3    H265195   5.014   5.620   2.709  0.8109  3.7179 -0.9818
14594TIP3   OH265196   6.713   6.405  16.315 -0.1368  0.0919 -0.4020
14594TIP3    H165197   6.700   6.317  16.280  0.8740  1.2537 -3.8882
14594TIP3    H265198   6.625   6.437  16.335 -0.5739 -1.3293 -0.0485
14595TIP3   OH265199   1.542   3.651  14.713  0.1951  0.0533 -0.1987
14595TIP3    H165200   1.465   3.702  14.737 -1.0443 -1.6741 -0.4142
14595TIP3    H265201   1.593   3.709  14.657 -1.5839  0.7861 -1.0830
14596TIP3   OH265202   0.306   5.920  15.610  1.3715  0.1130 -0.0935
14596TIP3    H165203   0.356   5.848  15.570 -0.5662 -1.2298 -0.1416
14596TIP3    H265204   0.367   5.959  15.673  2.0612 -2.3481  0.8256
14597TIP3   OH265205   2.199   2.910  15.532 -0.0808  0.1143 -0.2005
14597TIP3    H165206   2.162   2.990  15.494 -0.3716 -0.1349 -0.4419
14597TIP3    H265207   2.260   2.878  15.466  0.7991  0.6907  0.3246
14598TIP3   OH265208   1.806   5.686   0.255  0.6624  0.0830 -0.2432
14598TIP3    H165209   1.739   5.753   0.262  1.8478  1.1800  0.8797
14598TIP3    H265210   1.783   5.621   0.321 -1.3041 -1.4090 -2.3055
14599TIP3   OH265211   0.089   0.073  16.542  0.0290 -0.2307 -0.3538
14599TIP3    H165212   0.041   0.004  16.587 -1.3323  1.4584  0.8298
14599TIP3    H265213   0.181   0.049  16.553 -0.4446 -2.7247 -1.4199
14600TIP3   OH265214   5.349   6.204   0.858 -0.2398 -0.5902 -0.1311
14600TIP3    H165215   5.292   6.183   0.933 -1.2251 -0.6148 -0.8761
14600TIP3    H265216   5.430   6.156   0.875 -0.9056 -1.5625  0.3212
14601TIP3   OH265217   0.834   3.332   0.734 -0.6504  0.3502 -0.6888
14601TIP3    H165218   0.769   3.262   0.737  0.2806 -0.5084 -0.2069
14601TIP3    H265219   0.882   3.316   0.653 -0.9666  0.9234 -0.9918
14602TIP3   OH265220   2.384   4.355   4.073 -0.6595  0.0113 -0.7572
14602TIP3    H165221   2.308   4.387   4.026 -2.1175 -1.1443  0.7623
14602TIP3    H265222   2.447   4.333   4.004 -2.3606 -0.6712 -2.1282
14603TIP3   OH265223   3.945   2.492  11.879 -0.0294 -0.7770  0.0770
14603TIP3    H165224   3.946   2.451  11.966 -1.1684 -0.8033  0.0928
14603TIP3    H265225   4.037   2.508  11.859  0.4019 -2.7328  0.3581
14604TIP3   OH265226   0.464   0.829  11.000 -0.1081  0.4277 -0.2617
14604TIP3    H165227   0.386   0.878  10.975 -0.5084  0.0195  0.1818
14604TIP3    H265228   0.537   0.882  10.968 -0.4772  2.0850  1.5506
14605TIP3   OH265229   2.147   0.796   0.531  0.4376  0.2920 -0.0848
14605TIP3    H165230   2.207   0.781   0.458 -0.7081  0.8609 -1.1446
14605TIP3    H265231   2.138   0.891   0.537 -0.2260  0.2180  0.1865
14606TIP3   OH265232   0.255   5.612  11.169 -0.4490  0.2935  0.2240
14606TIP3    H165233   0.343   5.648  11.178  0.6896 -2.3080  0.0336
14606TIP3    H265234   0.221   5.652  11.089 -0.3822  3.1278  1.5668
14607TIP3   OH265235   1.572   5.764  14.427  0.5252 -0.2962 -0.0752
14607TIP3    H165236   1.606   5.724  14.346  3.2993 -0.9084  1.3282
14607TIP3    H265237   1.495   5.813  14.398  0.9748 -1.1468 -2.9678
14608TIP3   OH265238   2.915   1.166   6.083 -0.1683  0.0711 -0.1969
14608TIP3    H165239   2.982   1.199   6.143  1.4230 -0.0437 -1.8586
14608TIP3    H265240   2.834   1.208   6.112  0.8926  1.4308  0.8978
14609TIP3   OH265241   3.460   1.719   2.800  0.0680 -0.3337 -0.9427
14609TIP3    H165242   3.367   1.741   2.798 -0.0987 -0.6110  1.8500
14609TIP3    H265243   3.468   1.641   2.745 -1.0692  0.5729 -2.4285
14610TIP3   OH265244   2.580   1.439   4.915 -0.1779 -0.0084 -0.1242
14610TIP3    H165245   2.506   1.470   4.967  0.6166  0.8995  0.4972
14610TIP3    H265246   2.589   1.347   4.939  1.4906  0.8696  3.0577
14611TIP3   OH265247   4.310   3.293   3.861 -0.1274 -0.4533 -0.3204
14611TIP3    H165248   4.255   3.233   3.912 -1.4622 -0.7485 -2.0473
14611TIP3    H265249   4.247   3.349   3.815  1.0630  0.3457 -0.9940
14612TIP3   OH265250   1.138   6.213   1.417 -0.2699  0.4594 -0.0894
14612TIP3    H165251   1.230   6.189   1.408 -0.4971 -1.5942  2.4261
14612TIP3    H265252   1.095   6.173   1.341  0.5358 -0.7636  0.0829
14613TIP3   OH265253   3.430   0.935  14.119  0.1359  0.3952 -0.5736
14613TIP3    H165254   3.424   0.845  14.152  0.1287  0.7003  0.2665
14613TIP3    H265255   3.510   0.969  14.159 -1.3528  1.6806  1.3544
14614TIP3   OH265256   2.043   4.316  13.141  0.6618  0.3100 -0.0051
14614TIP3    H165257   1.952   4.344  13.153  1.0247  1.9922 -1.0612
14614TIP3    H265258   2.043   4.224  13.169 -1.1900  0.4989  0.7167
14615TIP3   OH265259   6.617   5.811  12.301 -0.2403 -0.1357  0.8548
14615TIP3    H165260   6.637   5.901  12.275  0.9963 -1.4149 -2.9690
14615TIP3    H265261   6.686   5.787  12.362  0.9309  0.6963 -0.1176
14616TIP3   OH265262   6.445   5.351  16.006  0.1237  0.0888 -0.1830
14616TIP3    H165263   6.430   5.428  16.062  0.9953 -0.3375  0.6566
14616TIP3    H265264   6.385   5.363  15.933  0.2965  1.6099 -0.1014
14617TIP3   OH265265   5.241   3.674  15.603 -0.1066  0.2674 -0.2483
14617TIP3    H165266   5.163   3.627  15.577  0.0034  0.1424 -0.3551
14617TIP3    H265267   5.259   3.645  15.692  1.3264 -1.7093 -1.1413
14618TIP3   OH265268   1.781   6.396  11.597 -0.6456  0.1888  0.0277
14618TIP3    H165269   1.853   6.452  11.628  0.2603 -1.4088  0.8903
14618TIP3    H265270   1.736   6.369  11.677 -1.2804 -0.0422 -0.4063
14619TIP3   OH265271   1.125   4.653   0.382  0.6680  0.5964  0.1034
14619TIP3    H165272   1.178   4.602   0.321  0.8244  2.1119 -1.0506
14619TIP3    H265273   1.164   4.741   0.380 -0.9468  1.3392  0.3915
14620TIP3   OH265274   2.330   3.183  13.967 -0.1376 -0.0904 -0.0531
14620TIP3    H165275   2.279   3.240  13.911  0.7588  0.1383 -0.6420
14620TIP3    H265276   2.268   3.115  13.995 -0.6975  0.0407 -0.9598
14621TIP3   OH265277   1.278   4.868   5.253 -0.1117 -0.1001 -0.3851
14621TIP3    H165278   1.300   4.836   5.165  2.4920 -0.3757  0.3114
14621TIP3    H265279   1.207   4.930   5.239  0.7089  0.3547 -2.7758
14622TIP3   OH265280   0.937   4.890   0.624 -0.0065  0.4258  0.2529
14622TIP3    H165281   0.853   4.874   0.668 -1.3120 -0.1023 -2.3508
14622TIP3    H265282   0.978   4.959   0.676 -2.4600  1.3408  1.0643
14623TIP3   OH265283   2.268   3.620  13.767 -0.0232 -0.6889 -0.1110
14623TIP3    H165284   2.321   3.647  13.692  0.9318 -1.3243  0.3321
14623TIP3    H265285   2.330   3.614  13.839 -0.5443 -2.3346  0.2075
14624TIP3   OH265286   2.640   6.543  14.993 -0.6398 -0.2923  0.3325
14624TIP3    H165287   2.573   6.484  14.957  0.7180 -1.5327 -0.2232
14624TIP3    H265288   2.611   6.561  15.082 -1.7526 -0.7584  0.0764
14625TIP3   OH265289   3.278   6.161  16.026  0.3410 -1.1984 -0.0619
14625TIP3    H165290   3.349   6.200  16.077  0.9804 -2.8825  0.3401
14625TIP3    H265291   3.200   6.171  16.081 -0.1307  2.1509 -1.1860
14626TIP3   OH265292   2.097   5.588  11.296  0.1412  0.3971 -0.1717
14626TIP3    H165293   2.014   5.630  11.321  0.4600  0.8049  0.2157
14626TIP3    H265294   2.139   5.650  11.238 -0.3706 -0.3385 -1.3486
14627TIP3   OH265295   2.450   4.332  15.345  0.6503  0.2551  0.2812
14627TIP3    H165296   2.419   4.402  15.288 -0.3409 -0.0140  0.4740
14627TIP3    H265297   2.384   4.262  15.335  2.1912 -1.0821 -0.7621
14628TIP3   OH265298   4.709   1.421   2.099  0.2554  0.2820 -0.5243
14628TIP3    H165299   4.795   1.405   2.137  0.5140  1.2151 -0.7114
14628TIP3    H265300   4.728   1.458   2.012 -0.3330  2.0059  0.0687
14629TIP3   OH265301   0.979   1.152   0.563  0.1727 -0.4498  1.0180
14629TIP3    H165302   1.026   1.113   0.489  1.1006 -0.4217  1.5785
14629TIP3    H265303   1.014   1.241   0.568 -0.6413 -0.1232  0.8515
14630TIP3   OH265304   0.165   4.696  15.684  0.2512 -0.9711 -0.8002
14630TIP3    H165305   0.234   4.631  15.689  1.2651  0.0733 -0.9108
14630TIP3    H265306   0.210   4.778  15.664 -0.7732  0.1406  1.1962
14631TIP3   OH265307   5.187   0.085   0.191 -0.6378  0.2828 -0.0472
14631TIP3    H165308   5.204   0.178   0.180  1.3562 -0.0762 -0.1907
14631TIP3    H265309   5.214   0.066   0.281 -2.5140  0.1347  0.5137
14632TIP3   OH265310   1.930   1.785   0.803 -0.3617  0.1845 -0.4823
14632TIP3    H165311   1.917   1.837   0.882 -0.4197 -0.2036 -0.2316
14632TIP3    H265312   1.860   1.719   0.806 -0.9888  0.8043 -1.3839
14633TIP3   OH265313   5.931   2.130   5.735  0.0069  1.0483  0.0273
14633TIP3    H165314   5.971   2.192   5.796  0.2963 -0.2752  1.1833
14633TIP3    H265315   5.882   2.070   5.790 -0.4250  0.3490 -1.1104
14634TIP3   OH265316   4.318   1.274   4.542 -0.0139  0.2337  0.2986
14634TIP3    H165317   4.284   1.335   4.607  0.6685  1.2807 -0.3164
14634TIP3    H265318   4.242   1.251   4.488 -0.9565 -1.9671  2.4641
14635TIP3   OH265319   4.862   5.043   3.638 -0.5345 -0.1451 -0.0238
14635TIP3    H165320   4.921   4.991   3.584 -1.9263 -0.4042 -1.3305
14635TIP3    H265321   4.775   5.011   3.616 -1.1672  0.0544  2.0699
14636TIP3   OH265322   0.166   2.199  11.214  0.3798 -0.7079 -0.9529
14636TIP3    H165323   0.116   2.119  11.232 -0.7391  0.2933  0.4639
14636TIP3    H265324   0.188   2.192  11.121 -0.6588 -2.1272 -1.1180
14637TIP3   OH265325   5.382   3.739   4.256 -0.6767 -0.3221  0.1401
14637TIP3    H165326   5.459   3.754   4.311 -1.7009 -0.1903  1.5817
14637TIP3    H265327   5.406   3.774   4.171  0.1898  1.4281  1.0794
14638TIP3   OH265328   4.066   5.792   2.336 -0.5272 -0.1003 -0.0813
14638TIP3    H165329   4.106   5.705   2.330 -2.1441 -0.7887 -1.2119
14638TIP3    H265330   3.983   5.777   2.381 -0.6582  0.9109  0.0170
14639TIP3   OH265331   3.283   1.243   0.594  0.1342  0.2022 -0.1572
14639TIP3    H165332   3.342   1.236   0.669  1.9400  0.9780 -1.4791
14639TIP3    H265333   3.224   1.315   0.616  0.3395  0.1114  0.7055
14640TIP3   OH265334   1.031   1.404  12.817  0.3137  0.3542 -0.1057
14640TIP3    H165335   0.952   1.351  12.802 -1.9953  3.6092  0.0013
14640TIP3    H265336   1.069   1.369  12.897 -1.1926 -1.0917  0.0048
14641TIP3   OH265337   1.275   2.421  10.612  0.2914  0.3749 -0.0602
14641TIP3    H165338   1.332   2.496  10.631  0.0827  0.0510  1.9802
14641TIP3    H265339   1.335   2.349  10.594  0.4977  0.5132  0.0813
14642TIP3   OH265340   3.066   1.366  13.410  0.2076  0.2735  0.0589
14642TIP3    H165341   2.981   1.323  13.411  0.3665 -0.0238  1.0654
14642TIP3    H265342   3.112   1.333  13.487  0.0933  2.6931  1.2271
14643TIP3   OH265343   3.052   6.613  10.931 -0.2072  0.2868  0.2805
14643TIP3    H165344   3.081   6.701  10.907  2.0613 -0.6991 -0.7100
14643TIP3    H265345   3.079   6.603  11.022  1.7803 -0.2549 -0.3369
14644TIP3   OH265346   3.328   2.472   4.381  0.0881  0.0948  0.5298
14644TIP3    H165347   3.327   2.377   4.389  0.9876 -0.0713 -0.9903
14644TIP3    H265348   3.248   2.493   4.331  0.9595 -0.0855 -0.9807
14645TIP3   OH265349   5.325   4.516  17.024  0.2981  0.5277 -0.0430
14645TIP3    H165350   5.361   4.592  16.978 -0.7871  1.0281 -0.0590
14645TIP3    H265351   5.402   4.473  17.061  1.3946 -0.8837 -3.7585
14646TIP3   OH265352   6.623   2.849  15.818  0.0453 -0.2936 -0.4058
14646TIP3    H165353   6.529   2.867  15.824  0.0195 -0.0001 -1.6788
14646TIP3    H265354   6.665   2.932  15.840  0.0541 -0.7911  1.6203
14647TIP3   OH265355   3.426   3.769   0.892 -0.1857  0.0634  0.1115
14647TIP3    H165356   3.407   3.710   0.965 -0.1420 -0.0958 -0.0054
14647TIP3    H265357   3.379   3.730   0.818 -0.1548  0.1747  0.0340
14648TIP3   OH265358   0.355   5.109   5.029 -0.0430 -0.5537 -0.4751
14648TIP3    H165359   0.259   5.110   5.022 -0.1103  1.8985  0.2422
14648TIP3    H265360   0.386   5.125   4.940 -0.3485  0.5141 -0.3963
14649TIP3   OH265361   5.716   4.820  11.515 -0.5150 -0.7680  0.3627
14649TIP3    H165362   5.670   4.843  11.434  1.7358 -0.3082 -0.7969
14649TIP3    H265363   5.799   4.867  11.510  0.3419 -2.0383  2.1920
14650TIP3   OH265364   1.065   1.238   3.132 -0.5743 -0.2159  0.1626
14650TIP3    H165365   1.024   1.236   3.045 -0.2176  0.4432 -0.0234
14650TIP3    H265366   1.009   1.184   3.186  0.0194 -1.8952 -0.8454
14651TIP3   OH265367   2.292   0.215  13.319  0.1488  0.5413  0.6366
14651TIP3    H165368   2.363   0.151  13.314  1.8673  2.4760 -0.6498
14651TIP3    H265369   2.284   0.236  13.412 -1.5503 -2.6767  1.2980
14652TIP3   OH265370   1.823   2.877  11.881 -0.2769 -0.0578  0.1681
14652TIP3    H165371   1.884   2.865  11.809  1.5963 -1.8405  1.9951
14652TIP3    H265372   1.814   2.972  11.889  2.1519  0.2288 -0.2297
14653TIP3   OH265373   1.200   4.820   3.888  0.7230  0.0585 -0.1492
14653TIP3    H165374   1.125   4.880   3.883  1.3014  0.7859 -0.1637
14653TIP3    H265375   1.166   4.743   3.933  0.0321  0.4942  0.0821
14654TIP3   OH265376   4.691   5.706  13.217 -0.3608  0.2321 -0.3479
14654TIP3    H165377   4.622   5.771  13.221  1.0106  1.6416  1.0714
14654TIP3    H265378   4.739   5.727  13.137  0.0104  0.9121  0.0475
14655TIP3   OH265379   4.183   1.873   2.336  0.1745  0.2010 -0.3349
14655TIP3    H165380   4.111   1.815   2.313  0.4561  0.0399 -0.8256
14655TIP3    H265381   4.171   1.949   2.278  1.0106 -0.3002 -1.1841
14656TIP3   OH265382   2.939   0.589   5.305  0.2172  0.0109 -0.4813
14656TIP3    H165383   2.908   0.512   5.352  0.0545  0.9681  0.9925
14656TIP3    H265384   2.992   0.553   5.234  0.6600 -1.4498  0.5547
14657TIP3   OH265385   4.156   2.207   6.391  0.0704  0.5111 -0.2095
14657TIP3    H165386   4.109   2.143   6.337  1.7123 -0.0709 -0.9871
14657TIP3    H265387   4.183   2.159   6.468  0.6331  0.4571 -0.4354
14658TIP3   OH265388   0.120   2.712  14.290  0.3136 -0.0760  0.2677
14658TIP3    H165389   0.198   2.728  14.237 -0.6676  0.1621 -1.1273
14658TIP3    H265390   0.083   2.799  14.305  0.5955 -0.1421  1.3738
14659TIP3   OH265391   2.866   3.475  13.215  0.4058  0.2010 -0.2370
14659TIP3    H165392   2.953   3.492  13.179  1.7711 -0.6608  2.5359
14659TIP3    H265393   2.834   3.561  13.241  1.0906  0.3319  0.1832
14660TIP3   OH265394   5.814   0.388  16.835 -0.5682  0.8199  0.0857
14660TIP3    H165395   5.837   0.304  16.795  2.6563  1.4870  0.3770
14660TIP3    H265396   5.770   0.437  16.766  2.9807  1.1363 -2.0781
14661TIP3   OH265397   6.070   4.697  13.110  0.2696  0.5894  0.0689
14661TIP3    H165398   6.011   4.706  13.185 -1.4751 -2.7933 -0.7993
14661TIP3    H265399   6.015   4.714  13.034  1.2657  0.9138 -0.5793
14662TIP3   OH265400   6.171   2.716   2.245 -0.0645  0.0844 -0.0013
14662TIP3    H165401   6.116   2.744   2.171 -1.0278 -0.1062  0.6288
14662TIP3    H265402   6.156   2.622   2.251 -1.0803  0.3101  1.2938
14663TIP3   OH265403   4.361   3.932  12.189 -0.7457  0.2457  0.3928
14663TIP3    H165404   4.417   3.962  12.118  2.4747 -1.9069  1.8956
14663TIP3    H265405   4.381   3.991  12.262  0.5203 -1.1974  1.2677
14664TIP3   OH265406   1.305   5.948   2.677  0.1209  0.1538 -0.0507
14664TIP3    H165407   1.377   5.887   2.661  0.4017  0.8757 -1.6435
14664TIP3    H265408   1.348   6.034   2.683 -0.5273  0.4925 -0.2918
14665TIP3   OH265409   0.194   3.498  13.814  0.1920 -1.2640 -0.5160
14665TIP3    H165410   0.201   3.530  13.724 -2.1243 -1.8551 -0.9313
14665TIP3    H265411   0.102   3.510  13.836  0.7322 -1.1466  1.7853
14666TIP3   OH265412   1.343   1.492   0.419 -0.4289 -0.1365 -0.4581
14666TIP3    H165413   1.360   1.431   0.491  2.1006 -0.5967 -1.3841
14666TIP3    H265414   1.346   1.437   0.341 -2.1611  0.5309 -1.0185
14667TIP3   OH265415   3.440   5.726  10.795 -0.1238  0.4459  0.1846
14667TIP3    H165416   3.420   5.819  10.794 -0.0305  0.4589 -1.5233
14667TIP3    H265417   3.423   5.696  10.705 -1.4752 -1.4633  1.0351
14668TIP3   OH265418   6.413   4.807   4.656  0.3380  0.1899  0.0708
14668TIP3    H165419   6.458   4.867   4.716 -0.3959  0.8736 -0.0453
14668TIP3    H265420   6.460   4.817   4.573  3.0009 -2.6709  1.1268
14669TIP3   OH265421   5.643   3.535   3.103 -0.6271 -0.6579 -0.1730
14669TIP3    H165422   5.593   3.616   3.112  0.9981  0.3430  0.0290
14669TIP3    H265423   5.576   3.466   3.100 -1.9733  0.5626  0.9364
14670TIP3   OH265424   6.732   2.219  12.657 -0.3609  0.0432  0.7288
14670TIP3    H165425   6.813   2.259  12.688  0.2816  1.1333 -2.2011
14670TIP3    H265426   6.689   2.288  12.606 -1.0501 -1.8323 -1.3278
14671TIP3   OH265427   6.012   6.493  15.050 -0.7477 -0.4783  0.4356
14671TIP3    H165428   6.095   6.529  15.083 -0.3650 -0.9628  0.0137
14671TIP3    H265429   5.945   6.547  15.091 -0.2649 -0.7153  1.5802
14672TIP3   OH265430   3.456   1.536   1.306  0.2115 -0.1949  0.2216
14672TIP3    H165431   3.425   1.530   1.396 -0.5145 -0.9334 -0.0730
14672TIP3    H265432   3.496   1.451   1.288  1.7798  0.4834  0.3494
14673TIP3   OH265433   3.031   1.226   1.521  0.3403 -0.0031 -0.1933
14673TIP3    H165434   3.038   1.131   1.530 -0.8324 -0.2282 -1.5451
14673TIP3    H265435   3.088   1.248   1.448  2.1856  0.6098  1.3789
14674TIP3   OH265436   4.868   4.643   3.694  0.5398 -0.0330 -0.4617
14674TIP3    H165437   4.831   4.704   3.630  1.5597  0.2094 -0.8273
14674TIP3    H265438   4.915   4.578   3.641 -1.2411 -1.6326 -0.1198
14675TIP3   OH265439   3.129   2.314  10.758 -0.5479  0.0290  0.2239
14675TIP3    H165440   3.142   2.409  10.764 -2.1234  0.3544 -1.1770
14675TIP3    H265441   3.050   2.297  10.810  0.0775 -0.6198  0.9857
14676TIP3   OH265442   5.096   1.493   2.842  0.2541  0.2982 -0.2265
14676TIP3    H165443   5.011   1.456   2.867  0.5251  0.2502  0.6370
14676TIP3    H265444   5.077   1.547   2.766 -0.2973 -0.9118 -0.9630
14677TIP3   OH265445   3.612   1.072  13.042 -0.5118  0.0286  0.2523
14677TIP3    H165446   3.558   1.138  13.085  1.2685  3.6974 -2.8274
14677TIP3    H265447   3.691   1.066  13.096 -0.7665  0.2513  0.6503
14678TIP3   OH265448   6.170   5.780   1.881 -0.0718  0.2743 -0.0736
14678TIP3    H165449   6.127   5.845   1.936  0.1883 -1.1772  1.9003
14678TIP3    H265450   6.153   5.809   1.791 -2.6886  1.2823  0.7100
14679TIP3   OH265451   2.871   5.590  13.550  0.4061  0.8657  0.3027
14679TIP3    H165452   2.960   5.570  13.580  0.4802 -1.6896 -1.4302
14679TIP3    H265453   2.869   5.686  13.543  3.0936  0.9503  0.1845
14680TIP3   OH265454   5.232   0.354   0.194 -0.3343  0.0160  0.0304
14680TIP3    H165455   5.180   0.416   0.142  0.2275 -0.3561 -0.9946
14680TIP3    H265456   5.317   0.353   0.151 -0.1445 -0.9914  0.4226
14681TIP3   OH265457   2.167   3.810  11.895 -0.2491 -0.3714  0.3182
14681TIP3    H165458   2.153   3.827  11.802 -1.2174  2.5591  0.9535
14681TIP3    H265459   2.246   3.861  11.917  1.3404 -2.8650  0.6470
14682TIP3   OH265460   3.675   4.657  10.684  0.5479  0.5235  0.5127
14682TIP3    H165461   3.761   4.669  10.644  0.6120  0.0973  0.5248
14682TIP3    H265462   3.633   4.591  10.629  0.6137 -0.0253  1.1250
14683TIP3   OH265463   2.990   4.261   3.100  0.1189 -0.0158  0.3242
14683TIP3    H165464   2.930   4.331   3.074 -0.9140 -0.1371  2.2445
14683TIP3    H265465   2.954   4.182   3.059  0.5657  0.3560 -0.8054
14684TIP3   OH265466   2.431   5.428   0.310  0.0606  0.4711  0.3004
14684TIP3    H165467   2.458   5.445   0.400  0.6408  0.1773  0.1900
14684TIP3    H265468   2.507   5.384   0.271 -0.7725 -0.8351  0.1125
14685TIP3   OH265469   3.915   2.918  12.629 -0.0602 -0.0355 -0.0630
14685TIP3    H165470   3.944   2.853  12.693 -1.1626  0.2880  0.7713
14685TIP3    H265471   3.820   2.911  12.630 -0.1734  1.4668 -0.0959
14686TIP3   OH265472   3.603   1.015   0.336  0.5045  0.0148  0.4391
14686TIP3    H165473   3.608   0.927   0.301  2.2156 -0.2474  1.2793
14686TIP3    H265474   3.542   1.009   0.409  0.8058 -0.5388  0.6494
14687TIP3   OH265475   0.134   1.973  16.921 -0.5535  0.1513 -0.2142
14687TIP3    H165476   0.060   1.913  16.914 -0.7782  0.3635  0.2912
14687TIP3    H265477   0.096   2.054  16.955 -0.5313  1.1221 -2.4338
14688TIP3   OH265478   5.818   0.011  10.614 -0.5595  0.3792  0.0511
14688TIP3    H165479   5.869  -0.051  10.665 -1.9033  1.0670  2.2903
14688TIP3    H265480   5.833  -0.016  10.523  0.6153 -1.8501  0.8494
14689TIP3   OH265481   1.771   1.779   5.830 -0.4078 -0.0425 -0.0889
14689TIP3    H165482   1.848   1.730   5.802 -0.6765  0.1004 -1.0838
14689TIP3    H265483   1.793   1.810   5.918  0.8130  0.3230 -0.5093
14690TIP3   OH265484   5.269   6.732  14.412 -0.8948  0.5305  0.5557
14690TIP3    H165485   5.294   6.695  14.496  0.0401 -1.7249 -0.6712
14690TIP3    H265486   5.230   6.817  14.434 -0.6624 -0.0027  3.2343
14691TIP3   OH265487   4.916   0.857  16.629  0.0499 -0.1325 -0.5671
14691TIP3    H165488   4.968   0.779  16.647  0.0141  0.4799  2.3433
14691TIP3    H265489   4.835   0.844  16.678  0.1710  1.8758  0.2073
14692TIP3   OH265490   6.427   1.168   4.646 -0.0045 -0.6383 -0.4931
14692TIP3    H165491   6.496   1.197   4.586 -1.9257  0.9213 -2.0573
14692TIP3    H265492   6.462   1.185   4.733  1.8350 -0.4757 -1.2388
14693TIP3   OH265493   6.628   0.397  13.820  0.6000 -0.4734 -0.7584
14693TIP3    H165494   6.533   0.402  13.812  0.4860 -1.2844 -0.0776
14693TIP3    H265495   6.648   0.449  13.898  0.7945  0.3275 -1.3417
14694TIP3   OH265496   4.429   5.946  14.932 -0.2272 -0.0348 -0.3946
14694TIP3    H165497   4.333   5.943  14.935 -0.2967  2.1548  1.6337
14694TIP3    H265498   4.456   5.925  15.022  1.3608 -3.3667 -1.5560
14695TIP3   OH265499   5.517   3.136  12.047  1.0146 -0.4874 -0.1647
14695TIP3    H165500   5.497   3.091  12.128 -0.7698 -0.7938 -0.7558
14695TIP3    H265501   5.543   3.224  12.074  0.3215 -0.5560  0.7195
14696TIP3   OH265502   3.340   5.201   3.101  0.3638 -0.1649 -0.0993
14696TIP3    H165503   3.263   5.217   3.045  0.4549 -0.5125 -0.3251
14696TIP3    H265504   3.310   5.224   3.189 -0.6650 -2.3503  0.1466
14697TIP3   OH265505   2.778   0.771   5.794  0.0687  0.1540  0.0926
14697TIP3    H165506   2.793   0.836   5.862 -2.1182  0.8980 -0.0981
14697TIP3    H265507   2.850   0.783   5.732  0.8179  0.9869  1.1110
14698TIP3   OH265508   5.554   1.474  12.476  0.4945 -0.0311  0.0097
14698TIP3    H165509   5.606   1.429  12.542  0.7467 -0.2789 -0.3590
14698TIP3    H265510   5.617   1.523  12.424  0.0436  2.3232  1.6180
14699TIP3   OH265511   3.415   5.071  15.654  0.1980 -0.7334 -0.0720
14699TIP3    H165512   3.369   5.013  15.714  0.1821 -0.5416  0.1031
14699TIP3    H265513   3.357   5.078  15.578 -1.5155  1.9595  1.4143
14700TIP3   OH265514   4.250   4.565  14.853 -0.5308  0.0283 -0.3147
14700TIP3    H165515   4.316   4.499  14.872 -0.8410  0.4352  2.2769
14700TIP3    H265516   4.295   4.627  14.795  1.6181  0.6736  1.9541
14701TIP3   OH265517   2.089   4.216   1.596 -0.0919 -0.2674  1.0915
14701TIP3    H165518   2.127   4.303   1.613  2.9336 -1.2980 -0.0626
14701TIP3    H265519   2.040   4.227   1.515  2.8360 -0.3044 -0.7478
14702TIP3   OH265520   0.241   4.397  16.758  0.4170  0.0757  0.3098
14702TIP3    H165521   0.289   4.319  16.786  0.3862  0.0524  0.2964
14702TIP3    H265522   0.260   4.462  16.826 -0.1587 -0.1768  0.7143
14703TIP3   OH265523   1.505   1.583  14.363  0.1050 -0.2009 -0.3376
14703TIP3    H165524   1.503   1.673  14.394 -0.9173 -0.2959 -0.1166
14703TIP3    H265525   1.588   1.548  14.397  0.0408  0.3670  0.4154
14704TIP3   OH265526   6.474   1.021  11.470  0.7142  0.3833 -0.6164
14704TIP3    H165527   6.456   1.114  11.484 -0.1616  0.2902 -1.0334
14704TIP3    H265528   6.564   1.018  11.437  1.4610  0.9007  1.3529
14705TIP3   OH265529   5.174   0.658   1.910 -0.3922 -0.2052 -0.9505
14705TIP3    H165530   5.208   0.622   1.828 -1.6149 -0.1517 -1.4835
14705TIP3    H265531   5.156   0.581   1.965  0.7956 -0.2274 -0.5631
14706TIP3   OH265532   3.539   6.611  11.360 -0.1826  0.1845 -0.3165
14706TIP3    H165533   3.445   6.609  11.375 -0.5422  0.0625 -2.4878
14706TIP3    H265534   3.577   6.594  11.446 -2.0902  2.4939  1.0605
14707TIP3   OH265535   0.030   0.263  16.354  0.0962 -0.0657 -0.6085
14707TIP3    H165536  -0.008   0.206  16.286 -1.9567  0.3521  0.1515
14707TIP3    H265537   0.069   0.202  16.417  0.9548 -0.4926 -1.5301
14708TIP3   OH265538   5.909   5.390   0.999  0.5173  0.5319 -0.0783
14708TIP3    H165539   5.894   5.418   1.090  0.4011  0.4566 -0.0733
14708TIP3    H265540   5.888   5.467   0.947  0.9263  0.6809 -0.0201
14709TIP3   OH265541   1.248   4.982  11.607  0.2227 -0.2908  0.5617
14709TIP3    H165542   1.171   4.975  11.550  0.3521  0.9735  0.2294
14709TIP3    H265543   1.232   4.917  11.676 -0.4240 -1.1023 -0.3320
14710TIP3   OH265544   0.923   0.785  14.669  0.1150 -0.8273 -0.0111
14710TIP3    H165545   0.891   0.695  14.658  0.0902 -0.6457 -1.5179
14710TIP3    H265546   0.844   0.839  14.668  0.3041 -0.5495 -1.8877
14711TIP3   OH265547   3.538   4.696  17.225 -0.0986 -0.1126  0.3276
14711TIP3    H165548   3.518   4.756  17.154  1.5873 -0.8346 -0.7905
14711TIP3    H265549   3.631   4.712  17.245  0.6969 -3.0421 -0.7170
14712TIP3   OH265550   2.956   2.492   3.253 -0.3802 -0.2521  0.4263
14712TIP3    H165551   3.015   2.530   3.318 -0.2688 -1.1500  0.8651
14712TIP3    H265552   3.009   2.425   3.209 -0.6421 -0.0692 -0.1649
14713TIP3   OH265553   2.457   3.568  15.707 -0.2821 -0.2916  0.8434
14713TIP3    H165554   2.385   3.549  15.647  0.3417 -2.0003  0.6136
14713TIP3    H265555   2.522   3.612  15.653 -0.7132  0.3315  0.8223
14714TIP3   OH265556   2.570   0.585   0.736 -0.7008  0.0212  0.4308
14714TIP3    H165557   2.563   0.677   0.711  0.3949  0.1471  0.5503
14714TIP3    H265558   2.597   0.540   0.657 -2.1609 -0.3524  0.1316
14715TIP3   OH265559   3.394   6.674  17.099  0.2626  0.4015 -0.3573
14715TIP3    H165560   3.390   6.656  17.005 -1.7204  0.0634 -0.2368
14715TIP3    H265561   3.307   6.709  17.120 -0.7777 -3.2995  2.0834
14716TIP3   OH265562   2.005   3.812  13.310 -0.9587  0.4879 -0.4208
14716TIP3    H165563   2.061   3.791  13.235 -0.4538 -1.0116  0.3526
14716TIP3    H265564   2.028   3.746  13.376 -2.3774  0.9488  0.5524
14717TIP3   OH265565   4.349   3.597  10.415 -0.1957 -0.4675  0.1535
14717TIP3    H165566   4.281   3.663  10.427  1.4016  1.2733 -0.1040
14717TIP3    H265567   4.431   3.646  10.423  1.0204 -2.3777 -0.3685
14718TIP3   OH265568   1.806   6.642   2.980  0.1998  0.1241  0.3368
14718TIP3    H165569   1.809   6.546   2.975 -1.0717 -0.1483  3.3851
14718TIP3    H265570   1.720   6.666   2.947  0.3763  0.1946 -0.0763
14719TIP3   OH265571   2.093   0.362   5.148 -0.2884  0.2398  0.1419
14719TIP3    H165572   2.173   0.376   5.098 -0.8595 -0.6713 -1.0403
14719TIP3    H265573   2.049   0.447   5.148 -0.4672  0.1501 -1.2098
14720TIP3   OH265574   4.781   1.495   0.662 -0.0046 -0.1664  0.5920
14720TIP3    H165575   4.716   1.544   0.712  0.0379  0.4426  0.0447
14720TIP3    H265576   4.843   1.561   0.631 -0.3727 -0.4519 -0.7907
14721TIP3   OH265577   2.995   2.706   5.657 -0.2145  0.2329  0.1553
14721TIP3    H165578   2.985   2.798   5.682  0.6898  0.2048  0.6225
14721TIP3    H265579   3.088   2.688   5.667 -0.4111 -0.7787  0.2187
14722TIP3   OH265580   0.537   5.506   5.460  0.0038  0.3796  0.1973
14722TIP3    H165581   0.457   5.506   5.513  0.0046  2.2338  0.2406
14722TIP3    H265582   0.561   5.599   5.454  4.0330 -0.3418  3.0843
14723TIP3   OH265583   0.245   1.518   3.256 -0.4861  0.5126  0.0609
14723TIP3    H165584   0.256   1.567   3.174 -1.5506  0.5782 -0.0602
14723TIP3    H265585   0.325   1.533   3.305  0.5552 -0.2888 -1.3688
14724TIP3   OH265586   1.638   0.126  14.281 -0.0149 -0.4752 -0.2628
14724TIP3    H165587   1.626   0.217  14.308 -1.0740 -1.2322  1.8931
14724TIP3    H265588   1.699   0.090  14.346  2.5428 -0.6231 -2.6449
14725TIP3   OH265589   4.384   1.086   0.978 -0.1342  0.3343  0.2084
14725TIP3    H165590   4.450   1.099   0.910 -1.0031 -0.2227 -0.7387
14725TIP3    H265591   4.354   1.175   0.999  0.2514  0.5169 -0.0034
14726TIP3   OH265592   0.992   3.365  11.612 -0.3208  0.9341 -0.2797
14726TIP3    H165593   0.909   3.319  11.601  0.5921 -0.6480 -0.8052
14726TIP3    H265594   0.980   3.448  11.567 -0.7354 -0.4060 -2.7362
14727TIP3   OH265595   3.261   3.236  12.298 -0.0017  0.6126  0.0725
14727TIP3    H165596   3.285   3.145  12.285  1.4179  1.1415 -1.1952
14727TIP3    H265597   3.179   3.233  12.347 -1.1266 -1.3789 -1.8744
14728TIP3   OH265598   3.280   5.048   3.604  0.2933  0.2144 -1.1169
14728TIP3    H165599   3.364   5.010   3.579  0.7217  1.8992 -2.3041
14728TIP3    H265600   3.295   5.085   3.691  0.1069 -1.5487 -0.3181
14729TIP3   OH265601   3.609   6.568  16.095  0.1398 -0.4999  0.3647
14729TIP3    H165602   3.695   6.597  16.066  0.5180 -0.8884  1.0568
14729TIP3    H265603   3.592   6.619  16.174 -0.2906 -0.3809  0.1970
14730TIP3   OH265604   3.674   3.955  14.776 -0.0599  0.4895 -1.1020
14730TIP3    H165605   3.587   3.916  14.769  0.9902 -2.3188  0.9534
14730TIP3    H265606   3.724   3.895  14.831  2.0141  4.0824  1.1719
14731TIP3   OH265607   0.050   4.030  13.275 -0.3871  0.1172  0.0848
14731TIP3    H165608   0.134   4.071  13.297  0.6338 -2.1648  0.5962
14731TIP3    H265609  -0.012   4.103  13.273  1.1463  1.5445  2.0164
14732TIP3   OH265610   0.156   3.728  13.006 -0.1276 -0.4755  0.3295
14732TIP3    H165611   0.231   3.717  12.948  0.5260  1.7134  0.7250
14732TIP3    H265612   0.187   3.698  13.091  0.3208  0.4502  0.4973
14733TIP3   OH265613   2.348   1.105  15.042  0.2803 -0.0919 -0.3248
14733TIP3    H165614   2.310   1.099  15.129 -0.4064 -0.0386 -0.6136
14733TIP3    H265615   2.442   1.100  15.056  0.3461  3.2103  0.6998
14734TIP3   OH265616   5.205   1.340  13.125  0.4716 -0.2709 -0.3256
14734TIP3    H165617   5.264   1.411  13.151 -1.4098  1.8018 -1.5059
14734TIP3    H265618   5.195   1.286  13.203  2.6902  0.2106  0.3266
14735TIP3   OH265619   6.315   1.482  16.780  0.6922 -0.0570  0.3219
14735TIP3    H165620   6.396   1.433  16.791  1.6755  1.7099  1.1864
14735TIP3    H265621   6.339   1.573  16.800 -1.2691  0.6490 -0.3834
14736TIP3   OH265622   4.583   0.782  11.488  0.1762 -0.2222  0.6091
14736TIP3    H165623   4.675   0.757  11.495 -0.1710 -1.6627  0.3017
14736TIP3    H265624   4.579   0.840  11.412  0.9952  0.6940  1.2655
14737TIP3   OH265625   2.323   6.583  16.159  0.1259 -0.6083 -0.4363
14737TIP3    H165626   2.348   6.507  16.212  1.2316 -0.4869 -0.7700
14737TIP3    H265627   2.300   6.547  16.074 -3.2470 -0.9829  0.5681
14738TIP3   OH265628   0.667   5.709  12.707  0.1234  0.1684  0.3305
14738TIP3    H165629   0.753   5.743  12.683  0.1436 -1.7597 -2.4980
14738TIP3    H265630   0.684   5.645  12.776  0.9084  0.0765  0.0507
14739TIP3   OH265631   1.663   2.749  15.058 -0.5047 -0.1742  0.0094
14739TIP3    H165632   1.663   2.653  15.059 -0.1584 -0.1865 -1.0163
14739TIP3    H265633   1.739   2.773  15.110 -0.7492 -0.4512  0.4994
14740TIP3   OH265634   2.027   1.803   3.410  0.1133 -0.0988 -0.3030
14740TIP3    H165635   2.048   1.854   3.489  1.1657 -0.3760 -0.3925
14740TIP3    H265636   2.010   1.869   3.343 -0.8188  0.1391  0.1637
14741TIP3   OH265637   3.509   0.877   4.841 -0.0339  0.7390 -0.3058
14741TIP3    H165638   3.602   0.885   4.820 -0.4541 -0.6081 -2.9179
14741TIP3    H265639   3.464   0.886   4.757 -2.2004  0.2598  0.7436
14742TIP3   OH265640   2.333   0.658  13.638  0.1633  0.1009  0.4403
14742TIP3    H165641   2.305   0.697  13.555  2.2703 -0.7510 -0.7309
14742TIP3    H265642   2.260   0.671  13.697 -1.4086  0.6761 -1.5797
14743TIP3   OH265643   1.528   3.210  16.503  0.7553 -0.4989  0.1839
14743TIP3    H165644   1.602   3.150  16.507  1.4786  0.4522  1.5062
14743TIP3    H265645   1.475   3.187  16.580  0.5310 -0.0793  0.1538
14744TIP3   OH265646   5.805   2.577  15.734  0.2720 -0.3131  0.1180
14744TIP3    H165647   5.805   2.486  15.764  2.7336  0.4111  2.5311
14744TIP3    H265648   5.739   2.620  15.788 -1.4176 -0.7751 -1.5299
14745TIP3   OH265649   3.661   1.927  11.469  0.1920  0.5883 -0.4661
14745TIP3    H165650   3.647   1.848  11.417  0.0593  0.9589 -0.9957
14745TIP3    H265651   3.631   1.904  11.557 -0.2718  0.1902 -0.7287
14746TIP3   OH265652   0.275   1.226   3.131  0.4959  0.2351  0.2925
14746TIP3    H165653   0.237   1.274   3.204 -0.3815 -0.8255  0.5372
14746TIP3    H265654   0.360   1.198   3.163 -0.1752 -0.8252  1.1540
14747TIP3   OH265655   1.455   4.710  11.976  0.0041 -0.2045 -0.7305
14747TIP3    H165656   1.475   4.711  12.070 -1.7424 -0.5012 -0.3295
14747TIP3    H265657   1.474   4.799  11.947 -1.5244  0.5312  0.3998
14748TIP3   OH265658   0.836   1.408   2.082 -0.2177  0.2499 -0.2036
14748TIP3    H165659   0.759   1.356   2.057  0.0140 -0.0343 -0.3388
14748TIP3    H265660   0.850   1.387   2.174  1.0237 -1.4343 -0.7465
14749TIP3   OH265661   6.276   4.359  17.184 -0.0316 -0.1194  0.1789
14749TIP3    H165662   6.287   4.369  17.090  0.5579 -0.7463  0.1801
14749TIP3    H265663   6.311   4.440  17.221 -3.3243  1.6190 -0.3220
14750TIP3   OH265664   4.257   3.275  15.446  0.0634  0.3592  0.2725
14750TIP3    H165665   4.241   3.290  15.353  0.5547  0.6370  0.2337
14750TIP3    H265666   4.315   3.199  15.449  1.3426  1.3291  0.2875
14751TIP3   OH265667   3.297   4.595  16.482  0.4526  0.1639 -0.9699
14751TIP3    H165668   3.358   4.619  16.412  0.0902 -0.5492 -1.5361
14751TIP3    H265669   3.326   4.507  16.508  0.6880  0.4933 -0.1124
14752TIP3   OH265670   0.285   1.199   3.575 -0.5855 -0.1891  0.5237
14752TIP3    H165671   0.233   1.276   3.549 -1.0872 -0.3015  1.1850
14752TIP3    H265672   0.281   1.199   3.670 -0.0004 -0.6423  0.5486
14753TIP3   OH265673   5.242   0.787  12.520 -0.1484 -0.0773 -0.2402
14753TIP3    H165674   5.296   0.836  12.458 -0.0494 -0.2410 -0.2824
14753TIP3    H265675   5.159   0.834  12.522 -0.0427  0.1097 -0.2590
14754TIP3   OH265676   4.010   5.123  13.029  0.1117 -0.3666  0.3256
14754TIP3    H165677   3.963   5.152  12.951  0.8528 -0.1146 -0.0295
14754TIP3    H265678   4.015   5.200  13.085  2.9332  0.4680 -1.0372
14755TIP3   OH265679   0.059   2.978  14.394  0.4331  0.1054  0.2677
14755TIP3    H165680   0.040   3.044  14.461 -0.2877 -0.0287  0.1987
14755TIP3    H265681   0.109   3.025  14.327 -0.5926  0.7193 -0.0651
14756TIP3   OH265682   0.446   2.830  16.964 -0.7990 -0.0828  0.3769
14756TIP3    H165683   0.453   2.872  17.050 -2.6061  1.1172 -0.0322
14756TIP3    H265684   0.536   2.808  16.941  0.1572  2.9952  0.9196
14757TIP3   OH265685   0.828   3.581   5.639  0.3917  0.5172  0.6947
14757TIP3    H165686   0.859   3.631   5.715  1.4833  1.9946 -0.7010
14757TIP3    H265687   0.907   3.543   5.601 -0.4039 -2.0735  1.5754
14758TIP3   OH265688   5.576   3.965  16.987  0.1066  0.2300 -0.1046
14758TIP3    H165689   5.579   3.877  17.025  2.3226  0.9557  1.4617
14758TIP3    H265690   5.612   3.954  16.899 -0.6353 -0.6015 -0.3175
14759TIP3   OH265691   2.981   2.191  13.103 -0.0440 -0.1657 -0.6492
14759TIP3    H165692   2.975   2.127  13.174 -3.4333  1.7168  0.8902
14759TIP3    H265693   3.075   2.198  13.085  0.6313 -3.1325  1.3611
14760TIP3   OH265694   6.392   1.579   0.926  0.0459 -0.0492  0.7285
14760TIP3    H165695   6.453   1.577   1.000 -1.3415 -3.3104  1.8711
14760TIP3    H265696   6.306   1.573   0.966 -0.8126 -0.3117 -1.1031
14761TIP3   OH265697   3.303   4.539   1.420 -0.3988 -0.3682  0.5577
14761TIP3    H165698   3.246   4.559   1.495 -0.7660  0.3279  0.1035
14761TIP3    H265699   3.250   4.481   1.365 -0.8916  0.7210 -0.1365
14762TIP3   OH265700   1.287   6.233  10.721 -0.5614 -0.5214  0.2150
14762TIP3    H165701   1.383   6.229  10.721 -0.4542  1.1253  2.4433
14762TIP3    H265702   1.267   6.326  10.723 -2.1397 -0.8518  2.5669
14763TIP3   OH265703   4.999   1.424  14.752 -0.1530  0.8341  0.3763
14763TIP3    H165704   5.056   1.349  14.770 -0.0561  0.9753  0.6679
14763TIP3    H265705   4.967   1.410  14.663  0.0037  0.5368  0.3681
14764TIP3   OH265706   4.188   4.109  11.956 -0.1080  0.1117 -0.5293
14764TIP3    H165707   4.245   4.092  11.881  0.0880 -0.2464 -0.2976
14764TIP3    H265708   4.194   4.030  12.009 -0.0080  0.4862  0.0175
14765TIP3   OH265709   2.039   6.269   4.727  0.5345 -0.2974 -0.4268
14765TIP3    H165710   2.052   6.325   4.651  0.7618 -0.9254 -0.8555
14765TIP3    H265711   1.958   6.222   4.709 -0.1153  0.5156  0.3243
14766TIP3   OH265712   1.097   2.038  16.155 -0.4164 -0.1682 -0.3568
14766TIP3    H165713   1.174   2.084  16.187  0.3919 -1.1070 -0.9219
14766TIP3    H265714   1.090   2.062  16.063  0.8638 -2.2908 -1.0338
14767TIP3   OH265715   2.880   1.995  12.400  0.1287  0.2752  0.5279
14767TIP3    H165716   2.954   1.934  12.400 -1.6505 -1.9740  0.3927
14767TIP3    H265717   2.901   2.059  12.467  2.3658 -0.1105  0.2182
14768TIP3   OH265718   1.561   5.535  14.233  0.0172  0.1409 -0.1615
14768TIP3    H165719   1.577   5.471  14.164 -1.9255 -0.9363  0.3485
14768TIP3    H265720   1.470   5.521  14.258  0.1694  1.7332  1.3828
14769TIP3   OH265721   6.290   6.040   5.357  0.7525  0.9851 -0.3119
14769TIP3    H165722   6.291   6.135   5.347  1.9243  0.8765 -1.3974
14769TIP3    H265723   6.350   6.008   5.289  2.5877 -0.3594  1.8670
14770TIP3   OH265724   1.788   4.772  17.180 -0.0182  0.4616 -0.3199
14770TIP3    H165725   1.845   4.795  17.106  0.0558 -1.1918 -0.7980
14770TIP3    H265726   1.844   4.778  17.257 -0.4165  3.4754 -0.2016
14771TIP3   OH265727   0.284   2.753  11.603 -0.5022 -0.4800 -0.1231
14771TIP3    H165728   0.293   2.837  11.647 -0.2292  0.1176 -1.3141
14771TIP3    H265729   0.236   2.772  11.523  1.9114 -0.9765 -1.7499
14772TIP3   OH265730   6.669   5.046   5.706  0.1861  0.1249 -0.7297
14772TIP3    H165731   6.579   5.015   5.719  1.1814 -2.6849 -0.2461
14772TIP3    H265732   6.690   5.091   5.788  0.2690 -1.9643  0.4347
14773TIP3   OH265733   5.637   1.046   3.955 -0.0402  0.4029  0.0701
14773TIP3    H165734   5.678   0.971   3.911 -1.5625  0.1334 -0.9203
14773TIP3    H265735   5.571   1.007   4.012  0.8238  0.8580  1.4138
14774TIP3   OH265736   4.911   4.077   4.352  0.3812 -0.1496  0.4852
14774TIP3    H165737   4.964   4.009   4.309  1.6289  1.2747 -0.2924
14774TIP3    H265738   4.965   4.105   4.426 -0.2930 -0.2548  1.0203
14775TIP3   OH265739   1.343   5.679  15.511 -0.1386  0.1413 -0.2114
14775TIP3    H165740   1.357   5.602  15.456  0.1233  1.3785 -1.9421
14775TIP3    H265741   1.416   5.737  15.491  0.6780  0.0965  2.4506
14776TIP3   OH265742   1.494   3.039   3.032  0.5887 -0.0538 -0.5447
14776TIP3    H165743   1.571   3.031   3.088 -0.3378 -0.3255  0.7013
14776TIP3    H265744   1.489   3.132   3.010  0.3288  0.2420  0.7347
14777TIP3   OH265745   5.663   5.848  17.013 -0.3987 -0.4709  0.2142
14777TIP3    H165746   5.604   5.843  17.089  2.1075  3.6517  2.6085
14777TIP3    H265747   5.632   5.925  16.964 -0.4177 -1.6073 -1.6098
14778TIP3   OH265748   1.829   1.272   4.354 -0.0860 -0.0136  0.5438
14778TIP3    H165749   1.842   1.211   4.427  0.0011 -0.5658  0.0714
14778TIP3    H265750   1.782   1.221   4.288  0.6759  0.1881 -0.1708
14779TIP3   OH265751   4.886   6.541   3.284  0.9696  0.1910  0.8393
14779TIP3    H165752   4.923   6.618   3.328  0.5774 -0.2499  1.9570
14779TIP3    H265753   4.891   6.471   3.350  1.4221 -0.7747 -0.1987
14780TIP3   OH265754   6.104   1.246  10.949  0.2528  0.3679 -0.1380
14780TIP3    H165755   6.143   1.333  10.938  0.3318  0.1400 -1.8652
14780TIP3    H265756   6.124   1.200  10.867  0.5478 -1.4163  0.9055
14781TIP3   OH265757   3.380   5.392   1.826 -0.7665  0.3989 -0.4189
14781TIP3    H165758   3.365   5.487   1.828  1.0611  0.6790  0.2084
14781TIP3    H265759   3.474   5.382   1.836 -0.7903 -1.4536 -1.8132
14782TIP3   OH265760   0.802   0.330   2.481  0.3757  0.3983  0.1069
14782TIP3    H165761   0.870   0.265   2.461 -0.3861 -0.4338  0.2212
14782TIP3    H265762   0.850   0.413   2.484  1.4569 -0.2230  0.5285
14783TIP3   OH265763   0.252   0.656   4.095 -0.3269 -0.3614 -0.3940
14783TIP3    H165764   0.301   0.691   4.170  0.2696 -0.5141 -0.7129
14783TIP3    H265765   0.251   0.561   4.109 -2.2002 -0.2429  0.6267
14784TIP3   OH265766   3.155   0.837  11.632  0.8688 -0.7408 -0.5109
14784TIP3    H165767   3.186   0.749  11.655  0.9577 -0.8223 -0.9458
14784TIP3    H265768   3.186   0.892  11.704  0.4261 -1.1402 -0.0116
14785TIP3   OH265769   2.617   5.410   3.341 -0.1792 -0.3750 -0.5846
14785TIP3    H165770   2.606   5.319   3.366 -1.0324  0.0214  0.5046
14785TIP3    H265771   2.593   5.460   3.419 -2.4458  0.8687 -2.0296
14786TIP3   OH265772   5.537   0.259   4.320  0.4191 -0.3739  0.6954
14786TIP3    H165773   5.630   0.243   4.334  0.3028 -0.1213  1.7774
14786TIP3    H265774   5.493   0.199   4.380 -0.1504 -1.3459 -0.6536
14787TIP3   OH265775   2.621   3.093   6.816  0.2071 -0.0445 -0.2111
14787TIP3    H165776   2.662   3.013   6.785 -0.1723  0.3181 -1.7113
14787TIP3    H265777   2.585   3.134   6.736 -1.6943  0.4008  0.8376
14788TIP3   OH265778   2.582   6.666   1.586 -0.2678 -0.1245 -0.8034
14788TIP3    H165779   2.500   6.622   1.566 -1.0998  1.4884 -0.9556
14788TIP3    H265780   2.587   6.739   1.525  0.9011  0.2550 -0.2771
14789TIP3   OH265781   3.896   3.475  11.256  0.1322 -0.2261  0.5131
14789TIP3    H165782   3.921   3.504  11.168 -0.8234 -2.5659 -0.5831
14789TIP3    H265783   3.830   3.538  11.284 -0.2849 -0.0268 -0.8751
14790TIP3   OH265784   3.071   4.237  13.428 -0.5070 -0.0692  0.2901
14790TIP3    H165785   3.051   4.287  13.349 -0.3232 -0.5595 -0.0715
14790TIP3    H265786   3.164   4.216  13.421 -0.6328 -0.6589  0.3226
14791TIP3   OH265787   6.701   5.708   1.007  0.1390 -0.1287 -0.0857
14791TIP3    H165788   6.663   5.700   1.095 -1.5774 -0.2510 -0.8311
14791TIP3    H265789   6.724   5.801   1.000  0.9065 -0.2459  0.7406
14792TIP3   OH265790   6.347   2.177   3.190 -0.2079 -0.0352 -0.1875
14792TIP3    H165791   6.295   2.229   3.251 -0.6417 -0.8538  0.1556
14792TIP3    H265792   6.395   2.116   3.246 -0.0188 -0.2711 -0.6082
14793TIP3   OH265793   4.803   5.634  13.824  0.1211  0.0810  0.1001
14793TIP3    H165794   4.822   5.679  13.742  3.8422  0.7485  1.2354
14793TIP3    H265795   4.757   5.700  13.877  0.1752  0.5588 -0.4450
14794TIP3   OH265796   4.546   2.861  11.219 -0.1607 -0.3970  0.1600
14794TIP3    H165797   4.531   2.945  11.261  2.5425  1.0951 -1.7272
14794TIP3    H265798   4.526   2.875  11.127  1.0431 -1.6013 -0.3067
14795TIP3   OH265799   2.725   1.327   4.724  0.2049 -0.6241  0.1725
14795TIP3    H165800   2.752   1.380   4.650  1.2256 -1.1313  0.1685
14795TIP3    H265801   2.673   1.386   4.779  0.8763  0.2249 -0.0957
14796TIP3   OH265802   0.098   2.342   3.153  0.1285  0.9642 -0.0454
14796TIP3    H165803   0.128   2.364   3.065 -0.5419 -1.6802 -0.9844
14796TIP3    H265804   0.005   2.324   3.143  0.0154  0.7881  1.2254
14797TIP3   OH265805   3.637   6.580   0.977  0.2928  0.3851  0.1272
14797TIP3    H165806   3.570   6.543   1.034  0.8937 -1.2697 -0.2003
14797TIP3    H265807   3.587   6.621   0.905 -0.3726 -1.2842 -0.3888
14798TIP3   OH265808   0.601   1.831   1.845  0.4812  0.6551  0.0767
14798TIP3    H165809   0.607   1.862   1.936 -1.3725 -0.0197  0.4356
14798TIP3    H265810   0.618   1.737   1.850 -0.6798  0.4255 -0.1236
14799TIP3   OH265811   5.412   4.214   3.939  0.4763 -0.0981  0.1764
14799TIP3    H165812   5.494   4.190   3.980  0.3451  2.2153  1.9174
14799TIP3    H265813   5.437   4.264   3.861  0.7953  2.1818  1.6781
14800TIP3   OH265814   6.165   6.785  11.751  0.1986  0.5410  0.3435
14800TIP3    H165815   6.188   6.822  11.836 -2.5569  1.8688  0.5691
14800TIP3    H265816   6.151   6.860  11.694  1.8304 -0.3336 -1.2589
14801TIP3   OH265817   3.100   4.359   4.901  0.4389 -1.0335  0.4477
14801TIP3    H165818   3.046   4.364   4.980  2.3480  0.1583  1.7369
14801TIP3    H265819   3.114   4.266   4.887  0.1703 -1.2584  1.6024
14802TIP3   OH265820   0.560   4.104  14.861 -0.0964 -0.0455  0.6314
14802TIP3    H165821   0.607   4.055  14.793  1.5898  0.5830  1.3169
14802TIP3    H265822   0.535   4.186  14.818 -0.7471 -0.4464  0.2213
14803TIP3   OH265823   2.990   5.787   4.982  0.1639  0.2655 -0.0303
14803TIP3    H165824   2.914   5.808   4.928 -0.0663  0.1093  0.2258
14803TIP3    H265825   2.986   5.692   4.993 -0.6929  0.4551  1.5533
14804TIP3   OH265826   2.444   4.874  13.917  0.2862  0.6587  0.2101
14804TIP3    H165827   2.440   4.892  13.823 -0.9216  0.1599  0.1588
14804TIP3    H265828   2.364   4.913  13.952 -0.2410 -0.8652  0.7421
14805TIP3   OH265829   4.850   3.817   2.253  0.0784 -0.1667 -0.0723
14805TIP3    H165830   4.797   3.783   2.326 -0.6392 -2.3034 -1.5296
14805TIP3    H265831   4.937   3.779   2.268  1.4295  3.5888  2.4933
14806TIP3   OH265832   1.112   6.648   3.316  0.4238  0.0769 -0.6533
14806TIP3    H165833   1.081   6.737   3.331 -0.3884 -0.2746 -0.2223
14806TIP3    H265834   1.207   6.656   3.312  0.4227  0.7856  0.6120
14807TIP3   OH265835   1.947   3.043   1.513  0.1524  0.1184  0.1515
14807TIP3    H165836   1.927   3.009   1.601  0.8681 -0.8724 -0.0510
14807TIP3    H265837   2.038   3.016   1.498  0.0605  0.3628 -0.8592
14808TIP3   OH265838   1.852   5.978   0.320 -0.1124  0.1297 -0.2407
14808TIP3    H165839   1.759   5.954   0.325  0.2779 -1.0530  1.4043
14808TIP3    H265840   1.899   5.902   0.353  1.4512  0.8740 -0.6886
14809TIP3   OH265841   0.250   5.377  16.260  0.3802  0.3738  0.1129
14809TIP3    H165842   0.185   5.337  16.317 -1.3734  3.3410  0.2968
14809TIP3    H265843   0.217   5.361  16.171 -0.4784  1.5737  0.1954
14810TIP3   OH265844   1.635   6.200   1.043 -0.8890  0.3254  0.0513
14810TIP3    H165845   1.542   6.223   1.048 -1.2640 -1.0418 -0.2958
14810TIP3    H265846   1.643   6.120   1.095  0.2648  0.8987  0.7703
14811TIP3   OH265847   3.042   0.878   3.300  0.2857  0.1689 -0.0060
14811TIP3    H165848   3.038   0.792   3.258  1.0594 -0.5506  1.3581
14811TIP3    H265849   2.962   0.882   3.353  0.9324 -0.3067  1.0257
14812TIP3   OH265850   1.424   5.622  12.403  0.4320  0.2253 -0.0007
14812TIP3    H165851   1.397   5.582  12.320  0.5293  0.2750 -0.0547
14812TIP3    H265852   1.510   5.585  12.420  0.8328  0.9693 -0.4155
14813TIP3   OH265853   1.067   1.043   0.334 -0.1380  0.1985  0.1643
14813TIP3    H165854   1.017   1.110   0.287 -0.8921 -0.9334 -0.6661
14813TIP3    H265855   1.151   1.038   0.287  0.4765  1.5145  1.0653
14814TIP3   OH265856   4.243   2.644   2.343  0.4176 -0.0865  0.5765
14814TIP3    H165857   4.269   2.623   2.253  1.8665 -1.5114  1.2813
14814TIP3    H265858   4.289   2.725   2.363  0.8432 -0.2636  0.3324
14815TIP3   OH265859   1.528   5.987  16.212  0.0754 -0.6492 -0.2213
14815TIP3    H165860   1.488   5.909  16.251 -0.7974 -0.1473 -0.0867
14815TIP3    H265861   1.519   5.974  16.118  1.6791 -1.6009 -0.2566
14816TIP3   OH265862   4.119   5.257   1.640 -0.4333 -0.1368 -0.2561
14816TIP3    H165863   4.061   5.262   1.716 -1.3355 -1.0012 -0.8684
14816TIP3    H265864   4.068   5.210   1.574  0.3382  0.6051 -1.4045
14817TIP3   OH265865   3.544   3.035   2.964 -0.0741  0.6017  0.0785
14817TIP3    H165866   3.544   2.988   3.047 -1.0578  0.0249 -0.2404
14817TIP3    H265867   3.538   2.967   2.897 -1.1405  1.1460 -0.3993
14818TIP3   OH265868   2.640   6.307  11.749 -0.0751 -0.1032 -0.1817
14818TIP3    H165869   2.567   6.320  11.810  0.2594 -0.5990  0.3319
14818TIP3    H265870   2.602   6.325  11.663 -0.5628  0.5516  0.1660
14819TIP3   OH265871   3.577   1.250  15.412  0.0887 -0.0981 -0.1416
14819TIP3    H165872   3.592   1.262  15.505 -1.2285  2.4737 -0.2012
14819TIP3    H265873   3.488   1.215  15.405 -0.4539  1.2792 -0.4536
14820TIP3   OH265874   4.224   0.498   0.559  0.7696 -0.0365  0.4957
14820TIP3    H165875   4.294   0.559   0.537  0.6435  0.4496  1.4079
14820TIP3    H265876   4.266   0.412   0.560  1.2381  0.1905  0.5330
14821TIP3   OH265877   4.654   2.413  13.431 -0.2131 -0.2500 -0.3845
14821TIP3    H165878   4.659   2.326  13.470 -1.3292  0.0087  0.3526
14821TIP3    H265879   4.674   2.400  13.339  1.5914 -1.0083  0.0856
14822TIP3   OH265880   3.354   0.838   4.581  0.0244 -0.6097 -0.4284
14822TIP3    H165881   3.261   0.818   4.576 -0.2334  0.3512  0.3360
14822TIP3    H265882   3.366   0.909   4.518  0.3744 -1.2269 -1.0517
14823TIP3   OH265883   6.368   3.797  15.603 -0.7211 -1.0438  0.5315
14823TIP3    H165884   6.449   3.847  15.594  0.0843 -2.3066  0.7265
14823TIP3    H265885   6.299   3.862  15.591  0.3101 -0.0939 -0.3775
14824TIP3   OH265886   0.251   5.859  13.661  0.1402 -0.2722  0.2858
14824TIP3    H165887   0.344   5.875  13.678  0.5442 -1.7626 -0.4217
14824TIP3    H265888   0.248   5.770  13.626 -1.3154  0.5648 -1.8071
14825TIP3   OH265889   2.576   4.885  11.327  0.2002 -0.6108 -0.3561
14825TIP3    H165890   2.528   4.944  11.384  1.7160  0.2861  0.0277
14825TIP3    H265891   2.617   4.941  11.262  0.2893 -1.4072 -0.9979
14826TIP3   OH265892   5.353   4.573  11.745  0.4938 -0.1517 -0.1154
14826TIP3    H165893   5.302   4.499  11.714  0.9619 -0.0110 -1.2796
14826TIP3    H265894   5.303   4.609  11.818  0.6861 -2.1131  0.9946
14827TIP3   OH265895   6.370   5.243   5.630 -0.5484  0.8498 -0.1498
14827TIP3    H165896   6.378   5.241   5.726 -1.5268  1.2198 -0.0588
14827TIP3    H265897   6.354   5.152   5.605  0.1182  0.6887 -0.0006
14828TIP3   OH265898   2.697   0.040  16.565  0.1357  0.2131  0.4341
14828TIP3    H165899   2.773   0.030  16.622  0.7519  0.3908 -0.3539
14828TIP3    H265900   2.624   0.003  16.616  1.2197 -2.4953  0.0816
14829TIP3   OH265901   5.809   3.321   6.534  0.5090  0.0175 -0.0185
14829TIP3    H165902   5.889   3.373   6.546  0.1835  0.8709 -1.3584
14829TIP3    H265903   5.754   3.376   6.478 -2.1549  0.6573  3.1170
14830TIP3   OH265904   6.783   2.763   3.894  0.1588 -0.1948 -0.7501
14830TIP3    H165905   6.834   2.835   3.856 -0.1222  2.0723  2.8734
14830TIP3    H265906   6.849   2.697   3.917  1.1665  1.3266  0.9198
14831TIP3   OH265907   4.536   1.161   3.022  0.5546 -0.3672  0.2610
14831TIP3    H165908   4.473   1.159   2.950 -1.1704 -0.9363  1.7309
14831TIP3    H265909   4.583   1.079   3.015  1.0293 -0.0133 -0.7589
14832TIP3   OH265910   5.211   5.987  13.895 -0.3577  0.3725  0.0339
14832TIP3    H165911   5.215   5.993  13.799  1.0428  1.4147  0.1431
14832TIP3    H265912   5.125   6.022  13.918 -1.0303 -0.6242 -0.8908
14833TIP3   OH265913   0.372   4.199  16.544  0.3349  0.3225  0.1809
14833TIP3    H165914   0.321   4.132  16.498  0.0613  0.8713 -0.3222
14833TIP3    H265915   0.429   4.236  16.477 -0.9881  2.0243 -0.0320
14834TIP3   OH265916   3.698   4.149  16.374  0.6812  0.0443  0.2607
14834TIP3    H165917   3.757   4.193  16.435  2.5734 -1.0889 -0.6935
14834TIP3    H265918   3.682   4.213  16.305 -2.1269  1.6349  2.2404
14835TIP3   OH265919   0.419   3.773  12.823 -0.9316 -0.6070  0.0591
14835TIP3    H165920   0.376   3.830  12.759 -0.3748 -1.1684 -0.8352
14835TIP3    H265921   0.507   3.759  12.787 -0.0097  0.4956  1.8460
14836TIP3   OH265922   2.296   2.616  14.762  0.3810 -0.0626  0.0480
14836TIP3    H165923   2.367   2.679  14.779 -0.3006  0.6557  0.2594
14836TIP3    H265924   2.337   2.530  14.775  1.5175  0.3097 -0.9774
14837TIP3   OH265925   3.239   0.914   3.600 -0.8412 -0.0376  0.5001
14837TIP3    H165926   3.297   0.866   3.541 -1.2535  1.0395 -0.8004
14837TIP3    H265927   3.177   0.958   3.542  0.3119  3.1033  1.5562
14838TIP3   OH265928   3.301   6.512  12.405  0.2198 -0.1997  0.9091
14838TIP3    H165929   3.257   6.438  12.445 -0.3960  0.9893  2.4850
14838TIP3    H265930   3.231   6.574  12.384  0.5777 -0.5669 -1.5561
14839TIP3   OH265931   5.272   3.374   5.723 -0.1206 -0.4553  0.6403
14839TIP3    H165932   5.259   3.279   5.717  0.6266 -0.5745  0.9113
14839TIP3    H265933   5.283   3.402   5.632  0.6151 -0.7642  0.6346
14840TIP3   OH265934   3.198   6.705  11.173  0.0392 -0.0658 -0.4136
14840TIP3    H165935   3.202   6.801  11.170 -2.5355  0.1308  0.5299
14840TIP3    H265936   3.183   6.685  11.265  2.4595 -1.5215 -0.2923
14841TIP3   OH265937   0.996   5.869   1.527  0.0666  0.3914 -0.3391
14841TIP3    H165938   1.024   5.952   1.567 -0.0276  1.3916 -2.2847
14841TIP3    H265939   0.917   5.892   1.478  1.3748 -0.3061 -2.8851
14842TIP3   OH265940   1.696   4.449   2.207  0.6062  0.1339  0.4012
14842TIP3    H165941   1.610   4.444   2.248  0.8949  0.1279  1.0207
14842TIP3    H265942   1.711   4.542   2.192  0.0795  0.0646 -0.6141
14843TIP3   OH265943   5.477   4.277   5.331  0.0827 -0.0656  0.1601
14843TIP3    H165944   5.431   4.361   5.335 -1.2363 -0.7346 -0.5619
14843TIP3    H265945   5.569   4.301   5.327 -0.2778  1.3609 -0.0955
14844TIP3   OH265946   3.013   0.490  14.531  0.0274  0.1357  0.3162
14844TIP3    H165947   3.001   0.408  14.483  1.3725 -0.1215  0.4201
14844TIP3    H265948   3.015   0.557  14.463 -0.1218 -0.0170  0.1611
14845TIP3   OH265949   2.755   1.624   5.013  0.3455 -0.0435 -0.1121
14845TIP3    H165950   2.709   1.692   5.062 -0.7957 -1.1962  0.4717
14845TIP3    H265951   2.685   1.564   4.985  1.4993 -2.0427  1.1129
14846TIP3   OH265952   2.704   0.607   4.600 -0.0525 -0.0973 -0.5426
14846TIP3    H165953   2.624   0.556   4.585 -0.6242  0.7455 -0.4551
14846TIP3    H265954   2.750   0.605   4.517 -1.2260  1.1818 -1.2533
14847TIP3   OH265955   2.624   4.011  15.971 -0.8647  0.6645 -0.1096
14847TIP3    H165956   2.590   4.100  15.967 -1.2777  0.5102 -0.0932
14847TIP3    H265957   2.645   3.997  16.063 -2.4928  0.1239  0.1845
14848TIP3   OH265958   6.113   1.838   2.478  0.2518  0.0214  0.2151
14848TIP3    H165959   6.150   1.905   2.537 -0.8309 -0.5050  1.5206
14848TIP3    H265960   6.071   1.888   2.409 -0.7750  0.7143  1.3257
14849TIP3   OH265961   4.690   1.732  13.690  0.3362  0.3946  0.1042
14849TIP3    H165962   4.685   1.700  13.780 -0.6637 -1.5844 -0.6198
14849TIP3    H265963   4.774   1.700  13.658 -0.2968 -0.8540 -0.3546
14850TIP3   OH265964   1.809   4.755   0.644  0.1665 -0.1921  0.1674
14850TIP3    H165965   1.714   4.758   0.636  0.0211 -2.7136  0.4604
14850TIP3    H265966   1.829   4.664   0.667  2.5780  0.5176  1.1513
14851TIP3   OH265967   2.787   6.398  12.047  0.0948 -0.1283  0.2371
14851TIP3    H165968   2.880   6.405  12.069 -0.0092 -1.0012  0.9536
14851TIP3    H265969   2.775   6.460  11.975  1.3462 -0.3898 -0.2100
14852TIP3   OH265970   1.330   1.748  16.494 -0.1331 -0.0007  0.1477
14852TIP3    H165971   1.366   1.812  16.432  0.2378 -3.0487 -2.9359
14852TIP3    H265972   1.235   1.761  16.489  0.0235  1.5857  1.0244
14853TIP3   OH265973   5.371   4.484   1.589  0.1752 -0.0418 -0.0639
14853TIP3    H165974   5.305   4.431   1.545  0.3139 -1.2073  1.1050
14853TIP3    H265975   5.325   4.519   1.666  1.0423 -1.2674  1.0315
14854TIP3   OH265976   1.229   6.422   1.911 -0.8844 -0.6606  0.1781
14854TIP3    H165977   1.174   6.475   1.853 -1.3927 -1.0410  0.3122
14854TIP3    H265978   1.311   6.410   1.861 -0.0655  1.7198  0.8629
14855TIP3   OH265979   3.916   5.506   4.597 -0.2706 -0.1728  0.0129
14855TIP3    H165980   3.970   5.433   4.629  0.6921 -0.2156 -1.6461
14855TIP3    H265981   3.838   5.464   4.560 -0.9214 -0.1804  1.3508
14856TIP3   OH265982   5.952   3.052   3.797 -0.1331 -0.6231  0.6473
14856TIP3    H165983   5.970   3.144   3.773 -1.9494 -0.4874 -0.2929
14856TIP3    H265984   6.024   3.028   3.855 -0.0619  1.6581  1.5553
14857TIP3   OH265985   5.995   3.137   4.484 -0.0666 -0.4268  0.2871
14857TIP3    H165986   6.018   3.180   4.566 -1.2444 -0.7619  0.7902
14857TIP3    H265987   5.988   3.044   4.505 -1.5552 -0.3787  0.0840
14858TIP3   OH265988   5.617   2.736  13.356 -0.6671  0.3080  0.7496
14858TIP3    H165989   5.536   2.745  13.308 -0.1228 -0.4616 -0.3385
14858TIP3    H265990   5.649   2.649  13.333  0.6159  0.7175  0.9199
14859TIP3   OH265991   1.176   4.232  16.020  0.5415 -0.3117 -0.0421
14859TIP3    H165992   1.196   4.145  15.986  2.9970 -0.5250  1.7907
14859TIP3    H265993   1.240   4.290  15.979 -0.8514  0.5913 -0.9829
14860TIP3   OH265994   0.526   6.738  14.026 -0.4417 -0.0690 -0.0415
14860TIP3    H165995   0.459   6.805  14.012 -0.4333 -0.2706 -1.0968
14860TIP3    H265996   0.549   6.709  13.938 -0.2738 -1.2890  0.3923
14861TIP3   OH265997   6.675   6.217  15.897 -0.0229  0.0899 -0.0663
14861TIP3    H165998   6.692   6.190  15.807 -2.6892 -0.0181 -0.5854
14861TIP3    H265999   6.703   6.309  15.900 -0.2411  0.1991 -1.1193
14862TIP3   OH266000   5.690   4.607   1.968  0.5231  0.2525 -0.1670
14862TIP3    H166001   5.718   4.699   1.963  0.2537  0.3999  0.8062
14862TIP3    H266002   5.595   4.611   1.957  0.3337  0.2532  1.2787
14863TIP3   OH266003   3.652   5.371   1.816 -0.0330 -0.4158  0.2909
14863TIP3    H166004   3.626   5.373   1.724  1.0860  0.6953 -0.0154
14863TIP3    H266005   3.688   5.458   1.832 -0.6466 -0.4530  1.9148
14864TIP3   OH266006   0.177   4.842  17.037 -0.8878  0.1556  0.6052
14864TIP3    H166007   0.120   4.907  16.997 -0.3708 -0.1354 -0.6212
14864TIP3    H266008   0.257   4.890  17.060 -0.4748 -0.0557 -0.3720
14865TIP3   OH266009   1.229   1.020   1.890 -0.0830 -0.3889 -0.0334
14865TIP3    H166010   1.236   1.058   1.977  0.8125  0.7533 -0.5830
14865TIP3    H266011   1.146   1.053   1.856  0.5628  0.8957 -0.4046
14866TIP3   OH266012   1.748   2.695  16.972  0.3261  0.4599  0.4016
14866TIP3    H166013   1.790   2.625  16.923 -1.5072 -0.3993 -0.0109
14866TIP3    H266014   1.790   2.694  17.058  1.7200  0.2173 -0.2749
14867TIP3   OH266015   6.077   2.327   3.138  0.0414 -0.1901  0.5916
14867TIP3    H166016   6.098   2.327   3.232 -0.3424  0.9066  0.6819
14867TIP3    H266017   6.068   2.234   3.116 -1.6839 -0.3967  2.0614
14868TIP3   OH266018   4.291   2.309  14.958  0.7923 -0.1727  0.3324
14868TIP3    H166019   4.362   2.278  14.903  0.8501 -0.1929  0.4189
14868TIP3    H266020   4.318   2.287  15.047  0.1445 -1.2164  0.2732
14869TIP3   OH266021   3.601   2.356  14.747  0.1670  0.2197  0.1927
14869TIP3    H166022   3.591   2.379  14.654  0.3467 -0.2153  0.0646
14869TIP3    H266023   3.675   2.409  14.776 -0.6253  1.2363  0.3909
14870TIP3   OH266024   2.522   6.284   0.815  0.2763  0.5029 -0.4777
14870TIP3    H166025   2.484   6.196   0.814 -0.0740  0.6309  0.8548
14870TIP3    H266026   2.448   6.343   0.800  0.5321  0.5717 -1.5065
14871TIP3   OH266027   2.263   1.728  14.010  0.0276  0.3655 -0.2233
14871TIP3    H166028   2.268   1.638  14.042  0.5383  0.0848 -1.0973
14871TIP3    H266029   2.350   1.745  13.974  0.1791  1.4688  0.6358
14872TIP3   OH266030   1.239   4.763  16.826 -0.1201  0.1140  0.2668
14872TIP3    H166031   1.253   4.670  16.841 -0.4436  0.0856  0.3956
14872TIP3    H266032   1.324   4.796  16.796 -1.3553 -1.3531 -5.5631
14873TIP3   OH266033   5.851   4.394  11.884 -0.1598  0.4591 -0.3348
14873TIP3    H166034   5.805   4.412  11.966  1.2209  0.0134  0.5635
14873TIP3    H266035   5.913   4.324  11.907  0.7813  0.8761 -1.5666
14874TIP3   OH266036   6.278   3.644   4.384  0.2529  0.0790 -0.0039
14874TIP3    H166037   6.208   3.664   4.445  1.5704  2.7050  0.7059
14874TIP3    H266038   6.284   3.548   4.384 -2.9152 -0.1647  0.3295
14875TIP3   OH266039   1.858   1.518   4.975  0.0046  0.2098 -0.2803
14875TIP3    H166040   1.848   1.451   4.908 -1.5981  0.5809 -0.4434
14875TIP3    H266041   1.817   1.480   5.053 -0.1927  0.6882 -0.1499
14876TIP3   OH266042   1.577   0.465   5.859 -0.1082 -0.3354  0.3087
14876TIP3    H166043   1.635   0.539   5.876  0.9300 -1.2030  0.6200
14876TIP3    H266044   1.606   0.430   5.776  0.6834 -1.5685  1.0897
14877TIP3   OH266045   0.413   5.984  17.119 -0.0292 -0.3930  0.4611
14877TIP3    H166046   0.444   6.005  17.031 -2.2036  0.7383 -0.0791
14877TIP3    H266047   0.426   6.065  17.169 -0.5195 -0.4392  0.6685
14878TIP3   OH266048   1.033   6.083  12.560 -0.1413 -0.0185  0.1399
14878TIP3    H166049   1.032   6.106  12.653  0.4297 -0.4915  0.2685
14878TIP3    H266050   1.027   6.166  12.514  1.5999  0.3607  0.5980
14879TIP3   OH266051   5.297   1.835  13.429  0.3734  0.5519  0.0763
14879TIP3    H166052   5.266   1.744  13.439  0.4699  0.4614 -0.4715
14879TIP3    H266053   5.269   1.878  13.510  1.6584 -0.3495  1.0122
14880TIP3   OH266054   5.605   2.843   1.724 -0.2319  0.3851 -0.2089
14880TIP3    H166055   5.551   2.811   1.795  0.0043 -1.3959 -0.7960
14880TIP3    H266056   5.577   2.934   1.711 -2.7822 -0.3650 -0.2370
14881TIP3   OH266057   3.739   0.476  16.388 -0.1376 -0.6121  0.0899
14881TIP3    H166058   3.754   0.414  16.459  1.1015  0.8181  1.1093
14881TIP3    H266059   3.791   0.553  16.413 -1.9032  0.9459 -0.9780
14882TIP3   OH266060   2.899   3.786  16.221 -0.5898 -0.2238 -0.1050
14882TIP3    H166061   2.875   3.876  16.197 -1.4252  0.3536  2.7887
14882TIP3    H266062   2.816   3.738  16.221 -0.1800 -0.9651 -1.3690
14883TIP3   OH266063   4.564   1.039  14.010  0.1373  0.5038  0.1333
14883TIP3    H166064   4.512   1.013  13.934  0.4227  2.0198 -0.5997
14883TIP3    H266065   4.509   1.102  14.056  0.4513  0.4969  0.5168
14884TIP3   OH266066   6.212   4.164  11.235 -0.2791  0.1222  0.0856
14884TIP3    H166067   6.173   4.122  11.312 -0.5950  0.4681  0.1146
14884TIP3    H266068   6.259   4.094  11.190  0.0314 -0.0534  0.6772
14885TIP3   OH266069   3.635   4.698   2.503  0.0066  0.2034 -0.0601
14885TIP3    H166070   3.677   4.684   2.418 -1.2903  0.7313 -0.8114
14885TIP3    H266071   3.542   4.681   2.486 -0.0624 -1.3122  1.6386
14886TIP3   OH266072   3.096   6.205   2.094  0.2721 -0.0933  0.2256
14886TIP3    H166073   3.045   6.145   2.148 -0.1999 -0.6116 -0.7867
14886TIP3    H266074   3.058   6.197   2.006  0.4096  1.4519  0.0144
14887TIP3   OH266075   4.788   4.316   0.499  0.1012  0.0894  0.1014
14887TIP3    H166076   4.809   4.273   0.582  0.8226  0.6270  0.1939
14887TIP3    H266077   4.771   4.407   0.522 -0.6643  0.0360 -0.2098
14888TIP3   OH266078   3.545   6.601   5.889 -0.0109  0.0730  0.1209
14888TIP3    H166079   3.537   6.545   5.812  0.9550  0.6123 -0.3736
14888TIP3    H266080   3.547   6.539   5.963 -0.0357 -0.4921 -0.3472
14889TIP3   OH266081   3.816   3.906  11.704  0.0610 -0.5393 -0.3252
14889TIP3    H166082   3.874   3.852  11.758 -0.7468 -1.6019 -0.4918
14889TIP3    H266083   3.824   3.869  11.616  0.4493  0.4170 -0.7000
14890TIP3   OH266084   2.448   5.941   1.632 -0.3818  0.2772 -0.0875
14890TIP3    H166085   2.368   5.993   1.622 -0.6456 -0.2511 -0.8027
14890TIP3    H266086   2.458   5.897   1.547  0.5403  0.1611  0.0789
14891TIP3   OH266087   3.832   5.978  12.255  0.2462  0.0863 -0.3243
14891TIP3    H166088   3.804   5.970  12.164  1.3122  2.2319 -0.8822
14891TIP3    H266089   3.751   5.978  12.305 -0.6028  2.5878 -1.6095
14892TIP3   OH266090   1.107   3.389   4.354 -0.1690  0.1332 -0.0532
14892TIP3    H166091   1.119   3.338   4.434  0.3259  0.9738  0.4051
14892TIP3    H266092   1.195   3.404   4.321 -0.2346  1.8996  0.5656
14893TIP3   OH266093   2.742   1.074   0.341 -0.5020  0.2139  0.1464
14893TIP3    H166094   2.792   1.079   0.260 -1.2432  0.9813 -0.2826
14893TIP3    H266095   2.807   1.062   0.410  0.0650 -1.4574 -0.6528
14894TIP3   OH266096   1.934   2.436  15.030  0.0033 -0.1373 -0.0175
14894TIP3    H166097   1.966   2.423  15.119  0.5123 -0.6397 -0.2671
14894TIP3    H266098   1.839   2.426  15.036 -0.1718  1.9694  0.8424
14895TIP3   OH266099   1.216   4.301   5.228 -0.7735 -0.1298 -0.0958
14895TIP3    H166100   1.145   4.309   5.292  0.0737 -2.1017  1.1214
14895TIP3    H266101   1.202   4.215   5.188 -0.6266  0.6105 -1.7814
14896TIP3   OH266102   3.562   4.533  16.318  0.4222 -0.4955 -0.5107
14896TIP3    H166103   3.506   4.577  16.254 -0.1221 -0.0475  0.2593
14896TIP3    H266104   3.622   4.601  16.348  0.7722 -0.7410 -0.6544
14897TIP3   OH266105   3.949   2.233   4.663 -0.0365 -0.4146  0.1161
14897TIP3    H166106   4.019   2.288   4.699 -1.0176  0.6573  0.4024
14897TIP3    H266107   3.940   2.264   4.572  0.0162 -0.7159  0.0071
14898TIP3   OH266108   6.038   5.873   3.274 -0.2609  0.0731 -0.0505
14898TIP3    H166109   6.111   5.818   3.248 -0.2386  0.4747 -0.8940
14898TIP3    H266110   6.063   5.909   3.359  0.2588 -0.2594 -0.0613
14899TIP3   OH266111   0.162   5.740   5.655  0.1845 -0.2509 -0.0708
14899TIP3    H166112   0.103   5.733   5.730 -0.7449  1.0095 -0.6569
14899TIP3    H266113   0.103   5.750   5.580  1.0902 -2.1616 -1.0511
14900TIP3   OH266114   4.268   4.244  12.849  0.1840 -0.5639 -0.2576
14900TIP3    H166115   4.240   4.226  12.939  1.7272 -1.2553  0.1017
14900TIP3    H266116   4.192   4.222  12.796 -0.3676 -1.2511  0.7935
14901TIP3   OH266117   2.936   1.424  16.965 -0.1163  0.2754 -0.4663
14901TIP3    H166118   2.945   1.373  17.045 -0.7253 -0.2014 -0.6912
14901TIP3    H266119   2.931   1.359  16.895  0.9895  0.7015 -0.9563
14902TIP3   OH266120   0.555   5.670  11.518  0.0546 -0.5911  0.2936
14902TIP3    H166121   0.567   5.759  11.549 -0.7618 -0.4048  0.0834
14902TIP3    H266122   0.592   5.615  11.588  2.2163 -0.0514 -0.3878
14903TIP3   OH266123   1.476   0.818  13.411  0.2135  0.0969 -0.0092
14903TIP3    H166124   1.465   0.873  13.333  3.3995 -0.5685 -1.0057
14903TIP3    H266125   1.501   0.879  13.480  0.1670  0.3489 -0.2121
14904TIP3   OH266126   3.934   3.691  11.505  0.4244  0.0871 -0.8352
14904TIP3    H166127   3.920   3.613  11.559 -0.9811  0.8150 -0.1240
14904TIP3    H266128   4.028   3.689  11.484  0.9208 -0.4150  1.3023
14905TIP3   OH266129   3.355   5.520  15.526  0.1990 -0.3704  0.3436
14905TIP3    H166130   3.384   5.568  15.448  1.0260  1.0731  1.5316
14905TIP3    H266131   3.260   5.533  15.529  0.2772  0.2628  0.0581
14906TIP3   OH266132   4.850   5.108  12.357  0.0513  0.3107 -0.1846
14906TIP3    H166133   4.759   5.138  12.358  0.2188  0.8203 -0.5956
14906TIP3    H266134   4.863   5.070  12.444 -1.2693 -1.8978 -0.9017
14907TIP3   OH266135   3.833   4.655  14.357  0.0494 -0.2128  0.1637
14907TIP3    H166136   3.841   4.585  14.293  1.7619  0.7783 -0.7135
14907TIP3    H266137   3.875   4.730  14.316 -0.8362  1.0518  1.5328
14908TIP3   OH266138   0.841   2.525  16.185 -0.5821 -0.4022  0.1331
14908TIP3    H166139   0.876   2.596  16.239 -1.4537 -0.2320  0.4853
14908TIP3    H266140   0.746   2.527  16.201 -0.8218 -0.5000 -1.2187
14909TIP3   OH266141   1.110   3.824  15.082 -0.3131 -0.0655  0.0582
14909TIP3    H166142   1.198   3.860  15.091 -0.7379  0.5666  1.7075
14909TIP3    H266143   1.124   3.734  15.053  0.8530  0.1316 -0.0042
14910TIP3   OH266144   6.368   3.621   1.619 -0.5596 -1.1195  0.8087
14910TIP3    H166145   6.352   3.533   1.584 -1.3382 -1.0098  0.8698
14910TIP3    H266146   6.294   3.673   1.586 -0.7084 -0.7529  1.7161
14911TIP3   OH266147   1.758   5.496   1.447  0.6753 -0.2709  0.3951
14911TIP3    H166148   1.818   5.430   1.412  0.7625 -0.3983  0.7838
14911TIP3    H266149   1.678   5.484   1.396  0.8525 -0.3524  0.1320
14912TIP3   OH266150   4.125   6.768  12.771 -0.0740 -0.4493  0.4168
14912TIP3    H166151   4.113   6.823  12.848 -1.8376  0.0497 -0.1984
14912TIP3    H266152   4.095   6.822  12.698  1.3451 -1.0049 -0.6042
14913TIP3   OH266153   0.113   6.148  12.725 -0.5712 -0.1652  0.4544
14913TIP3    H166154   0.107   6.236  12.762  0.0559  0.7969 -1.6716
14913TIP3    H266155   0.203   6.120  12.743  0.5445  1.3343 -2.5114
14914TIP3   OH266156   3.641   1.365  12.490 -0.0120  0.0195  0.2154
14914TIP3    H166157   3.552   1.334  12.471 -0.8241  2.5612 -0.2882
14914TIP3    H266158   3.634   1.410  12.574  0.7695  0.3460  0.1095
14915TIP3   OH266159   0.096   3.139  12.112 -0.0942  0.5801  0.4324
14915TIP3    H166160   0.188   3.147  12.088 -0.3358  1.9996 -0.0933
14915TIP3    H266161   0.062   3.070  12.055  0.2377  1.2928 -0.6393
14916TIP3   OH266162   4.764   3.788  12.387  0.0909 -0.2095 -0.7480
14916TIP3    H166163   4.824   3.734  12.438 -1.0347  0.1434  0.9838
14916TIP3    H266164   4.680   3.743  12.393 -0.5990  1.1130 -0.2365
14917TIP3   OH266165   6.512   5.742   4.632  0.2882  0.2971  0.1727
14917TIP3    H166166   6.560   5.783   4.704  0.0957 -2.3106  1.8600
14917TIP3    H266167   6.549   5.781   4.553  1.3003  2.3807  1.6408
14918TIP3   OH266168   5.343   5.894  12.567  0.3279  0.1903 -0.0270
14918TIP3    H166169   5.361   5.943  12.646  0.8863  2.7694 -1.7087
14918TIP3    H266170   5.276   5.945  12.521  0.2140 -1.1034 -1.3636
14919TIP3   OH266171   3.748   0.914   2.760  0.0457  0.4660  0.4460
14919TIP3    H166172   3.677   0.851   2.771 -0.3219  1.1642  2.1871
14919TIP3    H266173   3.781   0.898   2.671 -1.2668 -0.8983  0.1927
14920TIP3   OH266174   0.322   3.739   2.193 -0.2305 -0.1974 -0.2979
14920TIP3    H166175   0.399   3.695   2.231  0.1291  0.3786 -0.3412
14920TIP3    H266176   0.322   3.826   2.235 -0.4209  0.0755 -0.8610
14921TIP3   OH266177   3.993   3.563  15.487 -0.5654  0.0927 -0.5131
14921TIP3    H166178   4.015   3.636  15.430 -0.6557 -0.2865 -1.0337
14921TIP3    H266179   3.901   3.577  15.510 -0.9681 -0.5560 -1.6687
14922TIP3   OH266180   3.485   6.117  11.128  0.6203  0.7340  0.6393
14922TIP3    H166181   3.536   6.043  11.094  0.6681  0.5689  1.0604
14922TIP3    H266182   3.509   6.191  11.072 -1.7612 -0.2306 -1.8113
14923TIP3   OH266183   0.468   2.316  16.451 -0.3247 -0.5798  0.0312
14923TIP3    H166184   0.555   2.349  16.428 -0.4366  0.4405  1.0075
14923TIP3    H266185   0.478   2.281  16.539 -1.0577  0.2010  0.4322
14924TIP3   OH266186   2.427   5.263  17.110  0.1729  0.0234  0.3052
14924TIP3    H166187   2.335   5.241  17.096  0.0052 -1.2656  3.0485
14924TIP3    H266188   2.433   5.355  17.087 -1.2668 -0.4551 -2.1614
14925TIP3   OH266189   2.108   2.577   0.192  0.3740  0.6261  0.0778
14925TIP3    H166190   2.146   2.586   0.104  2.1115  0.6417  0.8205
14925TIP3    H266191   2.137   2.491   0.221 -1.6591 -0.1184 -0.0405
14926TIP3   OH266192   1.548   1.135  16.020  0.4798  0.2241 -0.0347
14926TIP3    H166193   1.515   1.212  15.973  1.0038  0.6411  0.2717
14926TIP3    H266194   1.500   1.134  16.103  0.6240  0.3447  0.0528
14927TIP3   OH266195   5.544   1.354  16.324  0.3486  0.4223 -0.6360
14927TIP3    H166196   5.583   1.438  16.346  4.2053 -1.0978 -1.2338
14927TIP3    H266197   5.533   1.309  16.408 -2.8946  1.9089 -0.1871
14928TIP3   OH266198   5.097   5.761  11.428  0.6083  0.0951 -0.2554
14928TIP3    H166199   5.009   5.787  11.454  0.1164 -0.7911 -1.0161
14928TIP3    H266200   5.128   5.831  11.371 -0.3391 -0.4901 -1.5097
14929TIP3   OH266201   2.417   1.063  16.326  0.3298 -0.3059  0.0625
14929TIP3    H166202   2.492   1.087  16.381  2.1968 -0.8962 -2.1398
14929TIP3    H266203   2.343   1.112  16.363  1.5339 -0.5770  2.9704
14930TIP3   OH266204   3.582   0.394   2.655 -0.2101  0.2169 -0.2715
14930TIP3    H166205   3.575   0.316   2.600 -1.5168 -2.1671  3.0956
14930TIP3    H266206   3.495   0.434   2.653  0.1448  0.9553 -1.0892
14931TIP3   OH266207   6.526   3.186  12.506  0.4598 -0.0021 -0.3948
14931TIP3    H166208   6.597   3.237  12.545 -0.6475 -0.0477  1.8219
14931TIP3    H266209   6.453   3.248  12.498 -0.3098 -0.7472  0.5893
14932TIP3   OH266210   4.041   2.181  12.847  0.2434  0.3271 -0.3695
14932TIP3    H166211   4.027   2.234  12.769  0.1199 -1.0312 -1.2814
14932TIP3    H266212   3.953   2.152  12.872  0.5154 -1.1596 -1.1008
14933TIP3   OH266213   1.722   3.871  15.940 -0.2486  0.0916  0.3230
14933TIP3    H166214   1.768   3.945  15.901 -0.3684  0.1531  0.2982
14933TIP3    H266215   1.778   3.843  16.012  1.0750 -1.4374 -1.2565
14934TIP3   OH266216   1.392   3.127   4.270  0.8152 -0.0923  0.4899
14934TIP3    H166217   1.368   3.040   4.301 -2.1541 -0.1225 -1.7491
14934TIP3    H266218   1.404   3.178   4.350 -3.2467 -1.0465  1.8118
14935TIP3   OH266219   4.222   6.391  16.657  0.2097 -0.0188 -0.8991
14935TIP3    H166220   4.169   6.468  16.680  0.6183  0.1129 -0.3863
14935TIP3    H266221   4.282   6.423  16.590 -0.8202 -0.3438 -2.0113
14936TIP3   OH266222   2.740   1.975   6.114 -0.0745  0.3470 -0.1667
14936TIP3    H166223   2.738   1.915   6.039 -0.1238 -0.6258  0.6102
14936TIP3    H266224   2.833   1.995   6.125  0.0114 -0.1507  0.0196
14937TIP3   OH266225   1.459   3.072  15.438 -0.5206  0.1391 -0.4406
14937TIP3    H166226   1.508   3.119  15.505 -1.5868  0.0244  0.4357
14937TIP3    H266227   1.486   2.980  15.449 -1.6529 -0.0758  0.7059
14938TIP3   OH266228   6.449   4.029  11.087 -0.1333 -0.1128 -0.1078
14938TIP3    H166229   6.486   4.043  11.175 -0.4359  2.1924 -0.3188
14938TIP3    H266230   6.525   4.007  11.033  0.6440  2.4108 -0.0793
14939TIP3   OH266231   1.945   0.544   1.400  0.8561 -0.0797  0.5544
14939TIP3    H166232   1.967   0.454   1.378  1.2157 -0.1983  1.3776
14939TIP3    H266233   1.887   0.537   1.475  1.4183  0.3953  1.0401
14940TIP3   OH266234   5.895   0.922   3.172 -0.2890 -0.3384  0.4426
14940TIP3    H166235   5.886   0.868   3.250  0.7609 -1.7590 -0.3869
14940TIP3    H266236   5.890   0.860   3.099  1.0249  0.6568 -0.5247
14941TIP3   OH266237   3.585   1.952   0.964 -0.2682 -0.3141 -1.1011
14941TIP3    H166238   3.501   1.914   0.937 -0.8518 -0.5048  0.9464
14941TIP3    H266239   3.572   2.046   0.958 -0.4056 -0.3489 -1.4002
14942TIP3   OH266240   3.466   2.366  12.108 -0.1835 -0.1206  0.0401
14942TIP3    H166241   3.483   2.303  12.179 -0.1844 -1.6850 -1.3309
14942TIP3    H266242   3.547   2.418  12.103 -0.0826 -0.1748  1.0075
14943TIP3   OH266243   2.602   0.562   5.082 -0.3675 -0.2351  0.1414
14943TIP3    H166244   2.534   0.618   5.120  2.1595  1.7800  1.8520
14943TIP3    H266245   2.636   0.612   5.008  0.1725 -0.6189  0.1283
14944TIP3   OH266246   4.852   3.282   1.908  0.4076 -0.2240 -0.9704
14944TIP3    H166247   4.922   3.313   1.965  0.9833 -0.8044 -1.3560
14944TIP3    H266248   4.772   3.320   1.945  0.6639 -1.2584  0.7231
14945TIP3   OH266249   1.797   0.281  16.166 -0.0912 -0.4434  0.2561
14945TIP3    H166250   1.722   0.256  16.220  0.3793 -1.1812  0.5751
14945TIP3    H266251   1.816   0.203  16.114 -0.2829  0.1284 -0.6929
14946TIP3   OH266252   3.259   3.796   2.196 -1.1945 -0.2461 -0.5850
14946TIP3    H166253   3.352   3.801   2.173 -0.9075 -1.9445  0.0725
14946TIP3    H266254   3.251   3.713   2.243 -3.3731 -0.9849 -2.1763
14947TIP3   OH266255   0.955   4.440   6.196  0.2717 -0.0776 -0.2459
14947TIP3    H166256   0.877   4.390   6.168  1.0031 -0.5863 -1.3965
14947TIP3    H266257   1.012   4.374   6.235 -0.5081  0.5373  2.0655
14948TIP3   OH266258   1.382   2.249  13.275  0.1748 -0.4207 -1.0657
14948TIP3    H166259   1.412   2.309  13.207 -2.3382 -0.7389 -2.4858
14948TIP3    H266260   1.461   2.199  13.299  1.4673  0.9074 -2.4595
14949TIP3   OH266261   4.331   4.009   5.441 -0.0114  0.3103 -0.5002
14949TIP3    H166262   4.345   4.019   5.347 -2.2183 -0.3484 -0.9169
14949TIP3    H266263   4.415   4.034   5.480  1.4925 -1.0718 -2.7232
14950TIP3   OH266264   6.054   1.093  15.665 -0.1140  0.3991  0.0950
14950TIP3    H166265   6.098   1.124  15.744 -0.0822  1.3705 -0.2984
14950TIP3    H266266   6.092   1.007  15.648 -1.1540 -0.4484  1.9527
14951TIP3   OH266267   3.713   6.631   1.771 -0.1399  0.1627  0.0962
14951TIP3    H166268   3.734   6.667   1.685  0.6747 -0.6132 -0.0337
14951TIP3    H266269   3.740   6.699   1.832 -0.6924  0.7035 -0.2501
14952TIP3   OH266270   0.988   2.144  15.323 -0.2756  0.2811  0.4297
14952TIP3    H166271   0.998   2.051  15.339  0.4219  0.5456  1.5571
14952TIP3    H266272   0.895   2.161  15.340 -0.2776 -0.0969  0.8164
14953TIP3   OH266273   5.639   2.562   3.602 -0.1891 -0.4996  0.0212
14953TIP3    H166274   5.720   2.519   3.573  0.6751  1.9069 -1.3279
14953TIP3    H266275   5.650   2.572   3.696  1.1108 -0.2011 -0.1516
14954TIP3   OH266276   1.784   1.603  14.415  0.0421 -0.2065 -0.2204
14954TIP3    H166277   1.857   1.543  14.425 -0.2414 -0.5669 -0.2818
14954TIP3    H266278   1.819   1.689  14.437  0.2221 -0.5285  0.7670
14955TIP3   OH266279   6.156   4.654  13.845  0.2669 -0.6546 -0.2036
14955TIP3    H166280   6.228   4.694  13.796 -0.4758 -0.2402 -0.9738
14955TIP3    H266281   6.128   4.580  13.791 -0.1054 -0.6034 -0.0822
14956TIP3   OH266282   3.798   5.089   1.199 -0.6191  0.4247  0.3648
14956TIP3    H166283   3.761   5.116   1.115 -0.4784  0.7211  0.3980
14956TIP3    H266284   3.889   5.065   1.180 -0.2042  1.7424  0.6622
14957TIP3   OH266285   0.427   4.909   1.559  0.3148  0.4659 -0.0487
14957TIP3    H166286   0.393   4.969   1.493  3.3763  0.5758 -1.5933
14957TIP3    H266287   0.419   4.822   1.518 -0.6478  0.2096  0.6804
14958TIP3   OH266288   5.407   2.295   2.379 -0.1123  0.4063 -0.4883
14958TIP3    H166289   5.408   2.379   2.332  0.2059  2.1392  2.4624
14958TIP3    H266290   5.496   2.284   2.410 -0.8564  0.6549  1.8789
14959TIP3   OH266291   0.304   3.455  14.747 -0.0684  0.1860 -0.3024
14959TIP3    H166292   0.361   3.434  14.673 -0.2043  0.3372 -0.4505
14959TIP3    H266293   0.291   3.372  14.792 -0.2942  0.0246 -0.6682
14960TIP3   OH266294   0.025   3.672   4.259  0.0722  0.1781  0.3481
14960TIP3    H166295   0.072   3.685   4.177 -0.0822 -0.3360  0.1820
14960TIP3    H266296  -0.031   3.750   4.266  0.3448  0.3938  0.1418
14961TIP3   OH266297   0.045   3.466  16.790 -0.4375  0.4339 -0.3306
14961TIP3    H166298   0.117   3.529  16.794 -1.0307  1.0053  3.5108
14961TIP3    H266299   0.088   3.383  16.770  0.9452  1.2491 -0.8316
14962TIP3   OH266300   1.748   2.800  13.393 -0.1744  0.5431  0.3775
14962TIP3    H166301   1.688   2.870  13.420  1.5465  1.3934  2.1205
14962TIP3    H266302   1.705   2.720  13.424 -1.5047  0.9203 -0.4321
14963TIP3   OH266303   3.405   4.364  16.564 -0.0805 -0.3017  0.0132
14963TIP3    H166304   3.409   4.328  16.475 -1.2669 -2.6027  0.8411
14963TIP3    H266305   3.481   4.327  16.608  0.1413  0.3117  0.1534
14964TIP3   OH266306   2.098   1.874   3.666  1.5380  0.3413  0.2066
14964TIP3    H166307   2.101   1.956   3.715  1.9825  0.6159 -0.2743
14964TIP3    H266308   2.091   1.806   3.733  0.6050  0.7976  0.5890
14965TIP3   OH266309   2.207   3.494  15.955 -0.0559  0.4097  0.3735
14965TIP3    H166310   2.254   3.414  15.980 -0.2668  0.8749  2.3070
14965TIP3    H266311   2.274   3.547  15.912 -0.4858 -1.7854 -3.2199
14966TIP3   OH266312   2.558   1.222   2.243 -0.4909 -0.2161 -0.1680
14966TIP3    H166313   2.545   1.136   2.282  1.5936  0.7479  2.8569
14966TIP3    H266314   2.486   1.275   2.277 -0.0680 -0.0177  0.4379
14967TIP3   OH266315   1.942   6.459  14.683  0.2058  0.1404 -0.0847
14967TIP3    H166316   1.960   6.389  14.746 -0.4634  0.3355  0.3271
14967TIP3    H266317   1.958   6.540  14.731  1.4788  0.2736 -0.7147
14968TIP3   OH266318   2.090   2.786   4.127 -0.1635 -0.6527 -0.0434
14968TIP3    H166319   2.138   2.767   4.208  3.0341  2.5422 -0.9946
14968TIP3    H266320   2.046   2.869   4.145  1.8070  0.8802 -1.9572
14969TIP3   OH266321   2.980   6.596   2.303  0.2423  0.1904 -0.2451
14969TIP3    H166322   2.971   6.604   2.398 -1.3734 -1.8695 -0.2024
14969TIP3    H266323   3.049   6.531   2.291  1.5960  1.6503 -0.5116
14970TIP3   OH266324   0.160   2.156   2.157  0.0984  0.1274  0.1460
14970TIP3    H166325   0.187   2.141   2.067  0.4021 -1.7790  0.5133
14970TIP3    H266326   0.241   2.154   2.208 -0.2009 -0.3998  0.6261
14971TIP3   OH266327   2.547   5.850   0.777  0.3507 -0.0319 -0.2391
14971TIP3    H166328   2.508   5.920   0.829 -0.4755  0.8940 -2.0499
14971TIP3    H266329   2.497   5.772   0.799  2.2479 -0.4332  2.9442
14972TIP3   OH266330   2.537   3.113  16.788 -0.1487  0.2916  0.1832
14972TIP3    H166331   2.527   3.124  16.694 -1.7071 -2.3651 -0.0380
14972TIP3    H266332   2.565   3.021  16.798  2.4183  1.2230  2.1872
14973TIP3   OH266333   5.850   4.425  16.692 -0.2118 -0.1952 -0.1366
14973TIP3    H166334   5.855   4.516  16.723  2.3447 -0.4188  0.1776
14973TIP3    H266335   5.784   4.428  16.622 -1.1336  1.6237  0.7629
14974TIP3   OH266336   4.589   0.494   2.812  0.2346 -0.6878  0.1783
14974TIP3    H166337   4.615   0.493   2.904 -1.4038 -0.6939  0.6519
14974TIP3    H266338   4.516   0.433   2.806 -2.4722  2.4239 -0.2603
14975TIP3   OH266339   5.391   3.800   0.721 -0.4931 -0.6166  0.3267
14975TIP3    H166340   5.481   3.831   0.716 -0.8961  0.7293  1.2013
14975TIP3    H266341   5.395   3.723   0.778 -0.1452  0.5542  1.9525
14976TIP3   OH266342   5.969   2.574  11.483  0.1064 -0.3451  0.0870
14976TIP3    H166343   5.954   2.558  11.576 -0.7678  0.1420  0.0421
14976TIP3    H266344   5.902   2.638  11.459  0.1962 -0.6165 -0.9249
14977TIP3   OH266345   0.527   3.810   1.025  0.0864  0.2519  0.0165
14977TIP3    H166346   0.441   3.829   0.989  0.0319 -0.0988 -0.0381
14977TIP3    H266347   0.573   3.765   0.955  0.2775  0.3393  0.0854
14978TIP3   OH266348   0.629   3.549  17.079 -0.0692 -0.1342 -0.5582
14978TIP3    H166349   0.615   3.638  17.112 -0.0067  0.4706 -2.1127
14978TIP3    H266350   0.557   3.535  17.017 -0.2724 -1.2989 -0.0706
14979TIP3   OH266351   1.685   4.219   2.581  0.2174 -0.2271 -0.2270
14979TIP3    H166352   1.590   4.220   2.590  0.2189  2.1503  0.0044
14979TIP3    H266353   1.706   4.130   2.552 -2.2259 -0.3194 -1.8849
14980TIP3   OH266354   0.540   2.315   6.478  0.3922 -0.4189 -0.1805
14980TIP3    H166355   0.454   2.280   6.453 -0.1933  0.8584  0.0116
14980TIP3    H266356   0.552   2.285   6.568 -0.9217  1.3670  0.6067
14981TIP3   OH266357   6.438   1.003   3.057  0.1779  0.0674 -0.2068
14981TIP3    H166358   6.413   1.092   3.029 -0.2111 -0.1094 -0.4213
14981TIP3    H266359   6.531   0.997   3.034  0.7279  1.1466  1.6826
14982TIP3   OH266360   4.502   0.019  11.543 -0.6097  0.2117 -0.7372
14982TIP3    H166361   4.465   0.093  11.495 -0.8331  0.1007 -0.7345
14982TIP3    H266362   4.489  -0.056  11.486 -1.5628 -0.0546 -0.1945
14983TIP3   OH266363   2.560   6.416  16.584  0.1934 -0.0182  0.3553
14983TIP3    H166364   2.524   6.331  16.610 -0.5678 -0.3773 -1.8259
14983TIP3    H266365   2.489   6.459  16.536  0.3824  2.0995  1.8796
14984TIP3   OH266366   2.986   6.392   5.241 -0.4308 -0.2526 -0.0870
14984TIP3    H166367   2.925   6.404   5.314 -0.9278  0.6494 -0.6452
14984TIP3    H266368   2.943   6.435   5.167  0.7602  0.1577 -0.5476
14985TIP3   OH266369   6.155   2.217  16.901  0.3850 -0.2429 -0.2401
14985TIP3    H166370   6.124   2.232  16.990 -0.1841  0.8853 -0.6229
14985TIP3    H266371   6.215   2.143  16.908  1.1963  0.5598  1.2420
14986TIP3   OH266372   3.361   0.878   6.086  0.1747  0.2736  0.1545
14986TIP3    H166373   3.342   0.788   6.113 -0.0145 -0.1550 -1.3653
14986TIP3    H266374   3.338   0.931   6.162  0.9190 -1.0140  1.3130
14987TIP3   OH266375   1.314   1.613   4.478  0.0350 -0.6708 -0.2823
14987TIP3    H166376   1.381   1.547   4.462 -0.4410 -0.6541 -2.5402
14987TIP3    H266377   1.325   1.637   4.570  1.4800 -2.4727  0.0439
14988TIP3   OH266378   1.082   2.549  14.087  0.1712  0.2520 -0.0609
14988TIP3    H166379   1.047   2.625  14.132  1.1320  0.2287  0.7501
14988TIP3    H266380   1.058   2.475  14.143  0.2557  0.0914 -0.2363
14989TIP3   OH266381   4.800   6.784  14.837  0.3216  0.4864 -0.4137
14989TIP3    H166382   4.843   6.858  14.794  1.2219 -0.4102 -1.0813
14989TIP3    H266383   4.842   6.707  14.799  1.0123 -0.3333  1.9343
14990TIP3   OH266384   0.643   6.076  11.951 -0.1856 -0.2991 -1.2409
14990TIP3    H166385   0.584   6.073  11.876 -0.1635 -0.3842 -1.2548
14990TIP3    H266386   0.718   6.127  11.920  0.5483 -1.6871 -1.7990
14991TIP3   OH266387   5.916   0.517   6.697 -0.4496 -0.5291  0.1060
14991TIP3    H166388   5.995   0.517   6.752 -0.1901 -2.7085 -0.1918
14991TIP3    H266389   5.849   0.559   6.751 -0.0577 -2.1217  1.9162
14992TIP3   OH266390   0.862   5.562   2.733  0.7451 -0.0189 -0.0368
14992TIP3    H166391   0.866   5.601   2.821 -0.0548  0.5776 -0.2567
14992TIP3    H266392   0.824   5.630   2.678  2.0639 -0.0726 -1.0437
14993TIP3   OH266393   3.884   4.692  15.142  0.3053  0.5884  0.1761
14993TIP3    H166394   3.862   4.680  15.050  0.5354  2.5993 -0.1848
14993TIP3    H266395   3.963   4.640  15.156 -0.6945 -1.0940 -0.2983
14994TIP3   OH266396   1.283   3.679  13.275 -0.2431 -0.3789  0.3073
14994TIP3    H166397   1.243   3.664  13.189 -0.7467 -0.2495  0.5194
14994TIP3    H266398   1.375   3.659  13.262 -0.3655 -0.6205 -0.2012
14995TIP3   OH266399   2.610   4.036   5.903  0.2252 -0.0396 -0.1856
14995TIP3    H166400   2.690   4.086   5.919 -0.4300  1.0582 -0.2868
14995TIP3    H266401   2.593   3.990   5.985 -0.1853  1.3649  0.5329
14996TIP3   OH266402   2.493   6.211  14.724 -0.1227 -0.4885 -0.6238
14996TIP3    H166403   2.569   6.215  14.666 -0.0835  2.1142 -0.4755
14996TIP3    H266404   2.419   6.231  14.668  0.1443  4.2802  0.4859
14997TIP3   OH266405   3.460   4.041  11.098  0.3777  0.2274  0.1484
14997TIP3    H166406   3.456   3.948  11.074 -1.4558  0.3494 -0.0977
14997TIP3    H266407   3.370   4.063  11.121  0.5972  2.2194 -0.8467
14998TIP3   OH266408   3.399   1.982  12.401  0.0157 -0.1119  0.1301
14998TIP3    H166409   3.347   1.911  12.363  1.2124 -1.1995  0.4818
14998TIP3    H266410   3.399   1.963  12.495 -0.0518  0.6210  0.2737
14999TIP3   OH266411   3.855   4.971  14.879 -0.3037 -0.1880  0.0969
14999TIP3    H166412   3.842   5.014  14.795 -0.2609 -0.6057 -0.1264
14999TIP3    H266413   3.868   5.043  14.942  1.3747  0.0945 -0.5413
15000TIP3   OH266414   1.340   0.374   4.457 -0.9285 -0.1469 -0.0319
15000TIP3    H166415   1.272   0.439   4.441 -2.3638 -1.6614 -0.1785
15000TIP3    H266416   1.340   0.319   4.379  1.8014  0.9426 -0.8901
15001TIP3   OH266417   4.663   3.555  14.888  0.3009  0.4300 -0.5097
15001TIP3    H166418   4.720   3.593  14.821  0.2530 -0.5817 -1.1381
15001TIP3    H266419   4.713   3.482  14.924 -1.6579 -2.3314 -3.1145
15002TIP3   OH266420   0.632   1.099  12.027 -0.3786 -0.5469 -0.4594
15002TIP3    H166421   0.676   1.183  12.041 -1.7324 -0.1253  1.5223
15002TIP3    H266422   0.570   1.092  12.100 -0.7602 -2.9620 -0.9656
15003TIP3   OH266423   3.326   2.716   5.716  0.7851  0.0073  0.2637
15003TIP3    H166424   3.390   2.716   5.786  0.9621 -0.3776  0.1064
15003TIP3    H266425   3.326   2.805   5.682  0.5448  0.2487  0.8885
15004TIP3   OH266426   0.056   2.453  14.392 -0.9403  0.3177 -0.3026
15004TIP3    H166427   0.086   2.543  14.382 -2.1396  0.6736 -0.8781
15004TIP3    H266428   0.104   2.404  14.325  0.5414  0.3027  0.7413
15005TIP3   OH266429   5.403   3.648  12.130  0.6147 -0.1526 -0.3230
15005TIP3    H166430   5.323   3.636  12.080 -0.3800 -1.0996  1.4458
15005TIP3    H266431   5.380   3.713  12.197  0.6644 -1.9615  1.5069
15006TIP3   OH266432   1.651   1.495   4.417 -0.2397  0.1257  0.0100
15006TIP3    H166433   1.689   1.570   4.464  1.1119 -0.5286  0.0007
15006TIP3    H266434   1.725   1.436   4.404 -0.7553 -0.0796 -2.2288
15007TIP3   OH266435   6.039   4.930   2.450 -0.0234 -0.0197 -0.3717
15007TIP3    H166436   6.047   4.836   2.435 -0.6862 -0.0269 -0.6994
15007TIP3    H266437   5.945   4.945   2.461  0.0787  0.6034 -0.3009
15008TIP3   OH266438   6.468   4.910  13.034 -0.3528 -0.7747  0.6364
15008TIP3    H166439   6.422   4.865  12.964 -0.2125  0.8163 -0.5168
15008TIP3    H266440   6.405   4.975  13.066  0.6887  0.6670 -0.2009
15009TIP3   OH266441   4.399   3.600  11.993 -0.3486 -0.1472 -0.5148
15009TIP3    H166442   4.313   3.624  11.958 -0.2175  1.0390 -0.0581
15009TIP3    H266443   4.379   3.543  12.068 -0.7315 -0.0887 -0.5700
15010TIP3   OH266444   2.874   5.873   1.828  0.1735 -0.0383  0.1608
15010TIP3    H166445   2.966   5.850   1.825  0.1900  0.0188  0.2512
15010TIP3    H266446   2.848   5.858   1.919  0.3100  0.7885  0.3371
15011TIP3   OH266447   5.562   1.040   3.182 -0.4097 -0.0642  1.0358
15011TIP3    H166448   5.468   1.055   3.175 -0.1231  0.7551 -1.5235
15011TIP3    H266449   5.595   1.117   3.230 -0.8748  0.2277  0.8874
15012TIP3   OH266450   3.948   1.347   0.184 -0.0918 -0.5065  0.4083
15012TIP3    H166451   4.006   1.413   0.147  0.3217 -1.1997 -0.2076
15012TIP3    H266452   3.982   1.330   0.271  1.0611 -1.3959 -0.1958
15013TIP3   OH266453   6.134   4.052   0.737  0.3717 -0.8363 -0.5791
15013TIP3    H166454   6.205   4.114   0.720 -0.2323  0.8380  2.5382
15013TIP3    H266455   6.171   3.989   0.799 -0.5922 -0.3916  0.4725
15014TIP3   OH266456   4.414   4.888   4.437 -0.4440  0.7525  0.2098
15014TIP3    H166457   4.501   4.909   4.403 -0.1542 -1.2937 -0.3509
15014TIP3    H266458   4.365   4.971   4.430  1.2792  1.7863  0.0507
15015TIP3   OH266459   4.717   0.796   2.099 -0.1092 -0.4102  0.3835
15015TIP3    H166460   4.716   0.833   2.187  0.6748  0.3988  0.0685
15015TIP3    H266461   4.702   0.871   2.041 -0.4299 -0.9041 -0.1763
15016TIP3   OH266462   6.310   3.237  13.687  0.4838 -0.2533 -0.3509
15016TIP3    H166463   6.324   3.216  13.779 -0.2083 -0.6095 -0.3249
15016TIP3    H266464   6.366   3.313  13.671  1.4899 -0.9089  0.0561
15017TIP3   OH266465   0.079   2.621   2.207 -0.6398  0.3318 -0.5238
15017TIP3    H166466   0.012   2.632   2.274  0.6850  1.1026  0.7204
15017TIP3    H266467   0.050   2.676   2.135 -1.8952 -0.2055 -0.4441
15018TIP3   OH266468   3.358   4.706   0.205 -0.1965 -0.3327 -0.1391
15018TIP3    H166469   3.281   4.744   0.163 -0.2403  0.1120  0.3445
15018TIP3    H266470   3.422   4.699   0.134 -1.4581 -2.8874 -1.0756
15019TIP3   OH266471   1.793   0.927  14.064  0.1207 -0.1580  0.4058
15019TIP3    H166472   1.812   0.851  14.119  1.4887 -0.6023 -0.6346
15019TIP3    H266473   1.877   0.947  14.022 -0.6043  0.9413 -0.5542
15020TIP3   OH266474   6.029   6.589   0.735  0.5631 -0.5819 -0.2432
15020TIP3    H166475   6.005   6.629   0.652 -0.9210  1.2617  1.0591
15020TIP3    H266476   5.956   6.531   0.756  1.8385 -2.6065 -1.1651
15021TIP3   OH266477   1.520   2.450  10.467  0.1352  0.4034  0.3688
15021TIP3    H166478   1.584   2.511  10.502 -1.8246  2.6266  0.2488
15021TIP3    H266479   1.448   2.506  10.436 -2.3576 -2.0167  1.5291
15022TIP3   OH266480   3.718   0.314   4.101  0.1379 -0.3509  0.3247
15022TIP3    H166481   3.624   0.331   4.088 -0.0851 -0.2778  1.9094
15022TIP3    H266482   3.762   0.371   4.039 -0.8489  0.3130  0.2296
15023TIP3   OH266483   4.599   4.279   0.855 -0.0031 -0.4554  0.5759
15023TIP3    H166484   4.691   4.256   0.842 -0.0084 -0.9544  1.3888
15023TIP3    H266485   4.551   4.218   0.800  0.0905 -1.0511  1.1482
15024TIP3   OH266486   2.102   6.177  14.308 -0.6411  0.1319  0.4570
15024TIP3    H166487   2.135   6.091  14.283 -2.0332 -0.1042 -0.6149
15024TIP3    H266488   2.018   6.185  14.263 -0.1008  2.4381 -0.1834
15025TIP3   OH266489   0.421   5.912  16.295  0.1178  0.6786  0.2326
15025TIP3    H166490   0.425   5.829  16.247 -0.0474  0.0856  1.2296
15025TIP3    H266491   0.454   5.977  16.233  0.2466 -0.1293 -0.5621
15026TIP3   OH266492   1.108   4.413   4.267  0.2831  0.2134  0.5110
15026TIP3    H166493   1.034   4.401   4.326  1.1112 -1.8320  1.1990
15026TIP3    H266494   1.144   4.498   4.291 -0.7007  0.3757  1.4798
15027TIP3   OH266495   4.062   4.065  16.345 -0.9156 -0.2749 -0.1103
15027TIP3    H166496   4.033   4.016  16.268 -0.5215 -1.0553  0.2317
15027TIP3    H266497   4.139   4.113  16.315 -0.4258 -1.0201 -0.0579
15028TIP3   OH266498   3.375   1.758   0.889  0.3043  0.5324  0.0392
15028TIP3    H166499   3.362   1.705   0.811  0.5859  2.5294 -1.3969
15028TIP3    H266500   3.343   1.703   0.961 -1.7978 -0.5850 -1.6788
15029TIP3   OH266501   0.310   4.765   2.156 -0.0488 -0.3386 -0.1234
15029TIP3    H166502   0.334   4.725   2.239  2.0113  1.0193 -0.0357
15029TIP3    H266503   0.348   4.709   2.089  0.5575 -0.0091 -0.0630
15030TIP3   OH266504   1.674   4.510  17.140 -0.2957  0.3217 -0.7178
15030TIP3    H166505   1.765   4.487  17.122 -0.6041 -0.8348 -0.9089
15030TIP3    H266506   1.666   4.601  17.114  0.8503  0.4777 -0.5416
15031TIP3   OH266507   2.178   1.795  12.615  0.6097 -0.4593 -0.3542
15031TIP3    H166508   2.205   1.884  12.593  0.0571  0.1845  1.4891
15031TIP3    H266509   2.152   1.757  12.531  2.1559  0.6511 -1.3627
15032TIP3   OH266510   6.229   1.036   1.206 -0.3693  0.3179  0.3084
15032TIP3    H166511   6.282   0.961   1.180 -0.8674  0.2144 -0.4375
15032TIP3    H266512   6.233   1.037   1.302  2.6626  1.5527  0.2311
15033TIP3   OH266513   0.426   1.387  14.916 -0.1040 -0.0869  0.0310
15033TIP3    H166514   0.478   1.357  14.990  0.7999 -1.1972 -1.0390
15033TIP3    H266515   0.430   1.315  14.853 -1.3672  0.5927 -0.8442
15034TIP3   OH266516   0.919   1.428  11.653  0.0301  0.3289  0.4848
15034TIP3    H166517   0.870   1.453  11.574  1.6990  0.5490 -0.4970
15034TIP3    H266518   0.857   1.375  11.703 -1.1933  0.5315 -0.7734
15035TIP3   OH266519   3.558   3.750   5.053  0.2489 -0.3599 -0.3199
15035TIP3    H166520   3.625   3.757   5.122  1.6815 -0.1632 -1.6830
15035TIP3    H266521   3.573   3.664   5.015  0.4191  0.0905 -1.3010
15036TIP3   OH266522   0.045   3.389   3.420 -0.4612  0.0876  0.2661
15036TIP3    H166523   0.127   3.369   3.375 -2.0035 -1.3144 -1.9767
15036TIP3    H266524   0.029   3.314   3.477 -0.0872  0.4747  0.8941
15037TIP3   OH266525   5.614   6.285  11.888  0.3728 -0.1750  0.6109
15037TIP3    H166526   5.612   6.351  11.957  2.0117  0.4175  0.1217
15037TIP3    H266527   5.527   6.245  11.890 -0.5957  1.9061  0.9771
15038TIP3   OH266528   2.988   1.774   5.789  0.0566  0.0332 -0.0355
15038TIP3    H166529   3.053   1.754   5.856  0.0267 -1.3652 -0.4061
15038TIP3    H266530   3.020   1.854   5.747 -1.0295  2.1549  3.0531
15039TIP3   OH266531   0.876   2.875   1.538 -0.1747 -1.2550 -0.6903
15039TIP3    H166532   0.806   2.857   1.476  0.3825 -1.7509 -1.1851
15039TIP3    H266533   0.926   2.946   1.498 -1.2403  0.1153  0.3529
15040TIP3   OH266534   0.129   4.068  13.676  0.7441 -0.2656 -0.7339
15040TIP3    H166535   0.162   4.012  13.606  0.0928 -1.2250 -0.2897
15040TIP3    H266536   0.197   4.066  13.743  0.3308 -1.2930 -0.3229
15041TIP3   OH266537   5.712   4.276  16.901 -0.2523  0.9992  0.3233
15041TIP3    H166538   5.775   4.208  16.926 -0.8272 -0.0187 -1.0036
15041TIP3    H266539   5.761   4.332  16.841 -0.2807  0.8434  0.1570
15042TIP3   OH266540   0.743   6.321   6.043  0.7400 -0.5178 -0.1294
15042TIP3    H166541   0.692   6.398   6.069 -1.4280 -1.0454 -2.6048
15042TIP3    H266542   0.717   6.254   6.107 -0.1463 -0.2134 -0.1620
15043TIP3   OH266543   1.756   0.900  13.236  0.1028  0.7603 -0.4151
15043TIP3    H166544   1.820   0.968  13.214 -1.1024  2.0564  0.0677
15043TIP3    H266545   1.741   0.911  13.330 -0.2207 -0.0774 -0.3688
15044TIP3   OH266546   2.729   3.661  11.575  0.4674  0.3449 -0.6960
15044TIP3    H166547   2.671   3.616  11.513  1.0441  0.1951 -1.1306
15044TIP3    H266548   2.813   3.663  11.531  1.0159 -0.2241  0.3066
15045TIP3   OH266549   3.744   4.570   6.151  0.2374 -0.2796 -0.3055
15045TIP3    H166550   3.746   4.474   6.150  0.5018 -0.2832  0.2081
15045TIP3    H266551   3.812   4.596   6.089  1.8089 -0.4308  1.3063
15046TIP3   OH266552   3.172   4.818   0.887  0.7547  0.3893  0.1089
15046TIP3    H166553   3.257   4.820   0.842 -0.1415 -0.9151 -1.6691
15046TIP3    H266554   3.144   4.727   0.882 -1.5955  1.1300 -0.9218
15047TIP3   OH266555   5.354   4.566   3.932  0.3023 -0.4002 -0.3161
15047TIP3    H166556   5.289   4.596   3.868  1.0446  0.8867 -0.4845
15047TIP3    H266557   5.308   4.499   3.983 -1.5597  1.3001  0.3412
15048TIP3   OH266558   4.118   1.096   3.090 -0.7944  0.1657 -0.3748
15048TIP3    H166559   4.208   1.064   3.085 -0.4287  1.3377 -1.6609
15048TIP3    H266560   4.064   1.018   3.085  0.1704 -0.7737  2.8105
15049TIP3   OH266561   3.619   1.311  16.262 -0.4410 -0.5965  0.3929
15049TIP3    H166562   3.604   1.216  16.269  0.3405 -0.8630 -1.3354
15049TIP3    H266563   3.708   1.323  16.295  0.7139 -0.9355 -2.5265
15050TIP3   OH266564   0.324   2.583  15.107  0.0148 -0.0840 -0.0047
15050TIP3    H166565   0.295   2.658  15.158 -2.3567 -0.7729 -0.3045
15050TIP3    H266566   0.397   2.617  15.055  0.9475  1.2177  2.0828
15051TIP3   OH266567   6.399   3.507  16.650 -0.2753 -0.1364 -0.4403
15051TIP3    H166568   6.358   3.423  16.629  1.5923 -0.9858 -0.8864
15051TIP3    H266569   6.467   3.517  16.583  3.2342 -0.9949  2.8380
15052TIP3   OH266570   4.588   5.158   2.845  0.5678 -0.1088 -0.3509
15052TIP3    H166571   4.574   5.235   2.901  0.5114 -0.6458  0.3843
15052TIP3    H266572   4.666   5.179   2.795  1.3596 -0.1363  0.8481
15053TIP3   OH266573   5.716   0.004   2.506 -0.2550 -0.6396  0.5739
15053TIP3    H166574   5.628  -0.032   2.499  0.2779 -2.2051  1.5954
15053TIP3    H266575   5.770  -0.052   2.450  0.2988 -0.4817  0.9397
15054TIP3   OH266576   5.643   3.346   0.546  0.1436  0.0285  0.0338
15054TIP3    H166577   5.733   3.323   0.566 -0.5610 -1.3110  1.7549
15054TIP3    H266578   5.592   3.310   0.618 -1.7076  1.3284 -0.5801
15055TIP3   OH266579   2.454   1.871  14.525  0.2901 -0.3917  0.0699
15055TIP3    H166580   2.537   1.903  14.560  0.4262  0.8791 -1.3842
15055TIP3    H266581   2.389   1.934  14.556  0.3847  0.6368 -1.7783
15056TIP3   OH266582   4.269   0.951  12.627 -0.4574  0.2744  0.1868
15056TIP3    H166583   4.238   0.889  12.692 -0.5562  1.4969  1.3283
15056TIP3    H266584   4.194   1.008  12.610 -0.4874 -0.1354 -1.1373
15057TIP3   OH266585   4.848   4.184   0.796  0.1108  0.4592  0.3097
15057TIP3    H166586   4.863   4.100   0.839 -0.5099  1.3081  2.2219
15057TIP3    H266587   4.931   4.205   0.754  0.4264 -0.8450  0.2497
15058TIP3   OH266588   6.341   5.981   4.835  0.0843 -0.2794  0.7193
15058TIP3    H166589   6.363   6.075   4.837  2.0927 -0.7292  2.3378
15058TIP3    H266590   6.424   5.938   4.815 -0.8415 -1.7240 -0.0790
15059TIP3   OH266591   3.477   5.241   5.355  0.2033 -0.2383  0.0373
15059TIP3    H166592   3.384   5.230   5.337  0.0520 -1.1204  1.2967
15059TIP3    H266593   3.494   5.333   5.339 -1.1578  0.1849  0.9337
15060TIP3   OH266594   5.299   5.550  13.436  0.0667 -0.2965  0.4336
15060TIP3    H166595   5.219   5.584  13.395 -0.4386 -2.5864 -0.5208
15060TIP3    H266596   5.270   5.479  13.492  1.7377 -3.5695 -2.6886
15061TIP3   OH266597   3.850   6.149   2.929 -0.6480 -0.2917  0.3877
15061TIP3    H166598   3.810   6.139   2.843 -1.3652 -1.9777  0.9014
15061TIP3    H266599   3.859   6.059   2.962  1.8881  0.1581  1.0449
15062TIP3   OH266600   4.165   1.741   6.663  0.4973  0.4439 -0.1524
15062TIP3    H166601   4.244   1.770   6.617  1.7410 -0.8478  1.1269
15062TIP3    H266602   4.099   1.807   6.640  1.9368  1.5645 -1.2104
15063TIP3   OH266603   3.020   5.751  13.819 -0.1152 -0.1413 -0.7334
15063TIP3    H166604   3.036   5.844  13.802 -0.3322  0.4187  1.8430
15063TIP3    H266605   2.925   5.743  13.817 -0.1750  0.0507  0.5851
15064TIP3   OH266606   2.750   6.598   1.096  0.6603 -0.4639 -0.7676
15064TIP3    H166607   2.810   6.660   1.138 -1.2829  0.1875  1.1193
15064TIP3    H266608   2.698   6.651   1.036 -0.0284 -0.5122 -0.2159
15065TIP3   OH266609   2.106   2.243  14.255  0.2451  0.0174 -0.7821
15065TIP3    H166610   2.096   2.155  14.218  0.6094 -1.0431  1.5609
15065TIP3    H266611   2.189   2.239  14.302  0.0975  1.5305 -0.3814
15066TIP3   OH266612   1.578   2.945  11.691 -0.2676  0.0338 -0.4101
15066TIP3    H166613   1.658   2.910  11.651  0.1795  1.5794 -0.8897
15066TIP3    H266614   1.565   2.891  11.769  2.4915  1.1858  0.9003
15067TIP3   OH266615   6.287   4.417   5.306 -0.1084  0.0927  0.2011
15067TIP3    H166616   6.267   4.511   5.305  2.7330  0.7463  0.2353
15067TIP3    H266617   6.244   4.382   5.228 -1.0907  1.4457  0.1306
15068TIP3   OH266618   1.545   2.109   3.049  0.4585 -0.0256  0.0224
15068TIP3    H166619   1.548   2.133   2.957  0.7389  1.7532  0.4701
15068TIP3    H266620   1.594   2.027   3.054  1.8489  0.7134 -1.1652
15069TIP3   OH266621   2.261   4.200  16.293  0.4908 -0.4506  0.0990
15069TIP3    H166622   2.197   4.129  16.289 -0.2338  0.1032  1.5929
15069TIP3    H266623   2.292   4.208  16.203 -1.7814 -0.5046 -0.7351
15070TIP3   OH266624   2.021   0.278   0.982 -0.5342 -0.0645  0.6458
15070TIP3    H166625   2.001   0.195   0.941 -0.5305 -0.4633  1.4328
15070TIP3    H266626   1.997   0.344   0.918  2.5445 -0.7549 -1.3282
15071TIP3   OH266627   6.040   6.274   5.561 -0.4050  0.1586 -0.2443
15071TIP3    H166628   6.107   6.273   5.630  0.4292 -0.7592 -1.0675
15071TIP3    H266629   5.958   6.288   5.609 -0.1214 -2.7249  1.1915
15072TIP3   OH266630   1.652   3.070   5.156 -0.1362 -0.2515  0.3409
15072TIP3    H166631   1.625   3.111   5.239 -0.5155  0.3767 -0.0862
15072TIP3    H266632   1.574   3.074   5.102  0.0158 -0.9831  0.0764
15073TIP3   OH266633   2.528   2.042  15.489  0.1108  0.4119  0.4756
15073TIP3    H166634   2.437   2.036  15.516 -0.0401 -1.3432 -0.3635
15073TIP3    H266635   2.524   2.050  15.394  0.9018 -4.0481 -0.0416
15074TIP3   OH266636   0.417   4.714   4.015 -0.6235 -0.4022  0.6523
15074TIP3    H166637   0.381   4.626   4.027 -0.3678 -0.3296  2.0370
15074TIP3    H266638   0.458   4.712   3.928 -1.6424 -1.2886  0.1771
15075TIP3   OH266639   3.393   0.085  13.218  0.0334  0.0992 -0.1610
15075TIP3    H166640   3.340   0.071  13.139  1.9113  0.0750 -1.4591
15075TIP3    H266641   3.440   0.002  13.229  1.4620  0.8716 -0.3349
15076TIP3   OH266642   3.826   4.326  12.809  0.2354  0.8774  0.0410
15076TIP3    H166643   3.902   4.284  12.768 -0.5021 -0.9357  0.5031
15076TIP3    H266644   3.824   4.413  12.769  0.0811 -0.4927 -3.1412
15077TIP3   OH266645   4.109   0.508  12.960  0.4827  0.2183  0.0513
15077TIP3    H166646   4.044   0.573  12.933  1.8754  1.9340  0.7403
15077TIP3    H266647   4.193   0.548  12.940  1.4206 -0.6521  2.0734
15078TIP3   OH266648   6.557   3.687   4.629  0.1535 -0.5512  0.6111
15078TIP3    H166649   6.532   3.682   4.721 -2.8797 -0.5458 -0.1748
15078TIP3    H266650   6.502   3.756   4.592 -0.1324 -1.9275 -1.6533
15079TIP3   OH266651   2.367   1.387  11.580  0.0480 -0.3369 -0.1690
15079TIP3    H166652   2.373   1.317  11.644 -1.8751  0.2954  0.7631
15079TIP3    H266653   2.346   1.343  11.497  1.6195 -1.0761 -0.1879
15080TIP3   OH266654   3.818   6.265  11.836 -0.3078  0.2690 -0.0816
15080TIP3    H166655   3.842   6.203  11.767 -2.8913 -1.3420  0.3775
15080TIP3    H266656   3.887   6.256  11.901  0.8671 -0.0016 -1.3344
15081TIP3   OH266657   6.556   4.083   0.454  0.4900 -0.0589 -0.2016
15081TIP3    H166658   6.500   4.149   0.414 -1.0213 -1.0975  0.1710
15081TIP3    H266659   6.558   4.105   0.547  1.5682  0.5822 -0.3611
15082TIP3   OH266660   4.634   3.747   2.747  0.6000  0.1252  0.4456
15082TIP3    H166661   4.637   3.689   2.822  0.1028 -1.3470 -0.6428
15082TIP3    H266662   4.557   3.802   2.762  0.0378 -0.7063  0.6260
15083TIP3   OH266663   3.052   5.773   5.577 -0.3280 -0.0813  0.4503
15083TIP3    H166664   3.035   5.679   5.573 -2.4011  0.2928 -0.1600
15083TIP3    H266665   3.094   5.786   5.662  3.2531 -2.0035 -0.9198
15084TIP3   OH266666   6.708   0.943  16.678 -0.5084  0.0934 -0.3607
15084TIP3    H166667   6.746   1.018  16.633 -0.1093  0.5683  0.7452
15084TIP3    H266668   6.721   0.869  16.619  1.3858  0.4089 -0.3639
15085TIP3   OH266669   2.312   1.387  16.131  0.0006 -0.2444  0.0193
15085TIP3    H166670   2.306   1.340  16.214  1.7940  1.8610  1.3922
15085TIP3    H266671   2.329   1.478  16.156 -0.8935  0.6928 -2.6284
15086TIP3   OH266672   4.190   1.801  15.190  0.1698 -0.7142 -0.0814
15086TIP3    H166673   4.197   1.758  15.105  1.7073  0.5205 -0.5936
15086TIP3    H266674   4.170   1.730  15.251 -2.8813 -1.3310 -1.7230
15087TIP3   OH266675   1.070   2.496  15.729  0.5722 -0.5177 -0.1101
15087TIP3    H166676   1.070   2.423  15.667 -0.1297  0.3230 -1.1272
15087TIP3    H266677   1.024   2.462  15.806 -1.9071 -0.4442 -1.4817
15088TIP3   OH266678   3.426   5.978  16.787  0.0602  0.2496  0.2901
15088TIP3    H166679   3.418   6.035  16.863  1.1628  0.3954  0.3092
15088TIP3    H266680   3.504   6.010  16.741  0.3364 -0.8485 -0.0233
15089TIP3   OH266681   2.089   6.266  15.709  0.5771 -0.4852 -0.2334
15089TIP3    H166682   2.043   6.201  15.763  0.8198 -0.4364  0.0315
15089TIP3    H266683   2.106   6.338  15.769  1.0327 -0.5185 -0.3270
15090TIP3   OH266684   3.517   5.637   1.801  0.5707  0.6038 -0.1265
15090TIP3    H166685   3.515   5.720   1.847  2.5436  1.0249 -0.7338
15090TIP3    H266686   3.611   5.617   1.793  0.1875 -0.4473 -2.1620
15091TIP3   OH266687   5.084   3.651   2.932  0.2889  0.0076  0.8852
15091TIP3    H166688   5.033   3.570   2.938 -0.0078  0.2248  1.3064
15091TIP3    H266689   5.174   3.625   2.950  0.3514 -0.4013  0.0080
15092TIP3   OH266690   6.759   3.003  11.109  0.3535  0.1460  0.0372
15092TIP3    H166691   6.685   3.016  11.168  0.2243 -1.8990  0.3677
15092TIP3    H266692   6.723   3.017  11.022  0.0598  1.1410  0.3105
15093TIP3   OH266693   3.021   3.286   1.427 -0.3124  0.4810 -0.7413
15093TIP3    H166694   3.091   3.335   1.469 -0.2009  0.5681 -1.0227
15093TIP3    H266695   2.953   3.351   1.409 -0.7598  0.2665  0.1577
15094TIP3   OH266696   3.593   5.252  14.372 -0.9853  0.2021 -0.3222
15094TIP3    H166697   3.646   5.314  14.422 -0.1126 -1.8400  1.3539
15094TIP3    H266698   3.617   5.268  14.281  0.1422  1.4601  0.1776
15095TIP3   OH266699   1.422   3.804  14.014  0.1412 -0.0875  0.3565
15095TIP3    H166700   1.386   3.719  13.989  0.4605 -0.3082  0.6378
15095TIP3    H266701   1.450   3.792  14.105 -0.7476  0.6282  0.7231
15096TIP3   OH266702   5.808   1.831   0.725 -0.4044  0.0573  1.1873
15096TIP3    H166703   5.886   1.871   0.687 -0.1173  0.3163  2.0369
15096TIP3    H266704   5.835   1.741   0.747 -0.9586 -0.5116 -0.4318
15097TIP3   OH266705   0.513   6.452  14.929 -0.0407 -0.6488 -0.0409
15097TIP3    H166706   0.553   6.512  14.865 -1.1191  0.2002  0.0577
15097TIP3    H266707   0.537   6.489  15.014  0.0016 -0.8336  0.0267
15098TIP3   OH266708   1.361   4.660   3.477  0.0076  0.5220 -0.0039
15098TIP3    H166709   1.279   4.707   3.464  0.1740  1.0425  0.8111
15098TIP3    H266710   1.408   4.711   3.543  1.7697  1.2349 -1.7558
15099TIP3   OH266711   5.584   6.215   2.405  0.1738  0.3779 -0.0250
15099TIP3    H166712   5.557   6.304   2.384  0.0062  0.2282 -0.4563
15099TIP3    H266713   5.650   6.194   2.339 -2.1444 -0.9879 -1.9925
15100TIP3   OH266714   5.965   4.976  16.096  0.2702  0.3029 -0.6312
15100TIP3    H166715   5.881   4.940  16.065  0.9486 -1.2292 -0.7145
15100TIP3    H266716   6.031   4.920  16.056  1.2108 -1.2056  2.8688
15101TIP3   OH266717   0.783   5.412   3.675 -0.0627 -0.1253  0.0257
15101TIP3    H166718   0.761   5.345   3.611 -0.4313  0.1384 -0.1291
15101TIP3    H266719   0.781   5.367   3.759  0.2587 -0.4356 -0.1329
15102TIP3   OH266720   4.017   5.022   5.494  0.7264 -0.2758  0.3192
15102TIP3    H166721   3.971   4.940   5.510  0.3070 -0.2957 -0.9080
15102TIP3    H266722   3.951   5.079   5.455  1.4359  0.0933 -0.3562
15103TIP3   OH266723   0.978   4.061  13.351 -0.4717  0.4212 -0.0266
15103TIP3    H166724   1.042   4.097  13.412 -0.3090  0.6908 -0.3524
15103TIP3    H266725   0.908   4.027  13.406 -0.4106  0.8308  0.3021
15104TIP3   OH266726   3.648   0.271   5.824  0.2760  0.5919 -0.6411
15104TIP3    H166727   3.617   0.321   5.749  0.6018 -1.3440 -2.0954
15104TIP3    H266728   3.664   0.337   5.892 -1.8428  2.1765 -1.6154
15105TIP3   OH266729   6.314   4.862  10.748 -0.3829  0.0753 -0.2390
15105TIP3    H166730   6.348   4.859  10.658 -0.0888  0.5970 -0.1504
15105TIP3    H266731   6.391   4.880  10.802 -0.8282  1.5384 -0.0639
15106TIP3   OH266732   2.645   3.330  13.135 -0.2530 -0.0712  0.0060
15106TIP3    H166733   2.715   3.376  13.182 -0.3298  0.5011 -0.4349
15106TIP3    H266734   2.644   3.242  13.174  1.0381 -0.2434 -0.3168
15107TIP3   OH266735   3.370   6.530   3.255 -0.6703 -0.0065 -0.3210
15107TIP3    H166736   3.420   6.460   3.212  1.1573  0.1905  1.3882
15107TIP3    H266737   3.378   6.604   3.196 -0.4477 -0.5132 -0.9386
15108TIP3   OH266738   4.282   1.415  14.249 -0.3364 -0.8330  0.2124
15108TIP3    H166739   4.314   1.376  14.167 -0.4923 -1.4414  0.4394
15108TIP3    H266740   4.360   1.422  14.304 -0.6461 -2.8143  0.9700
15109TIP3   OH266741   0.410   2.680   2.582 -0.1912  0.2598 -0.2724
15109TIP3    H166742   0.371   2.768   2.580  0.7750  0.7120 -0.0392
15109TIP3    H266743   0.377   2.637   2.504  0.8830  1.5401 -1.4657
15110TIP3   OH266744   2.811   3.311   0.222  0.2382 -0.3958 -0.0190
15110TIP3    H166745   2.840   3.368   0.151  2.7370 -1.3422  0.1936
15110TIP3    H266746   2.841   3.354   0.302 -1.4525  0.0325  0.3957
15111TIP3   OH266747   2.822   5.756  11.565  0.2757 -0.2122  0.3199
15111TIP3    H166748   2.916   5.757  11.581  0.4429  0.2109 -0.6413
15111TIP3    H266749   2.793   5.846  11.583  0.3976  0.1654 -1.2528
15112TIP3   OH266750   0.193   4.835  16.727  0.0326  0.0138  0.5517
15112TIP3    H166751   0.258   4.805  16.791 -0.5239 -0.1623  1.0361
15112TIP3    H266752   0.221   4.795  16.644 -0.9911 -2.2877  1.2860
15113TIP3   OH266753   2.112   6.168   4.306  0.7562 -0.6641  0.0320
15113TIP3    H166754   2.208   6.174   4.312  0.7160 -0.6459  0.7999
15113TIP3    H266755   2.089   6.098   4.368  0.2194 -0.2094  0.3502
15114TIP3   OH266756   1.819   6.553  10.923 -0.2239 -0.2047  0.1941
15114TIP3    H166757   1.749   6.605  10.883  0.0357 -1.3101 -1.7661
15114TIP3    H266758   1.789   6.463  10.914  1.1844 -0.6513 -0.1095
15115TIP3   OH266759   4.523   2.459  12.181 -0.4522 -0.2423 -0.5722
15115TIP3    H166760   4.548   2.545  12.148  0.8431 -0.3053  0.2051
15115TIP3    H266761   4.560   2.397  12.117  1.3083 -0.3281  0.4832
15116TIP3   OH266762   5.140   2.223   1.862  0.1702  0.1461 -0.1458
15116TIP3    H166763   5.134   2.217   1.767  1.1267 -0.2542 -0.1837
15116TIP3    H266764   5.234   2.222   1.881 -0.0351 -0.9468  0.8750
15117TIP3   OH266765   3.872   6.018  14.921  0.0789  0.4353  0.0383
15117TIP3    H166766   3.858   6.036  14.828  0.9095  2.1674  0.2294
15117TIP3    H266767   3.834   6.094  14.965  1.2621  0.4654  1.0280
15118TIP3   OH266768   5.207   0.957  14.695  0.0902  0.1709  0.6367
15118TIP3    H166769   5.123   0.984  14.657  0.3805  0.5874  0.2881
15118TIP3    H266770   5.235   0.883  14.642  1.1140  1.5443 -0.7974
15119TIP3   OH266771   3.196   3.135  14.259  0.7311  0.6831  0.2456
15119TIP3    H166772   3.101   3.135  14.277  0.4678 -0.7998 -1.1111
15119TIP3    H266773   3.204   3.094  14.173  2.7789 -1.0960  1.2459
15120TIP3   OH266774   6.341   3.549   2.783  0.3015 -0.9604  0.2083
15120TIP3    H166775   6.333   3.641   2.810 -0.3029 -0.6274 -1.0716
15120TIP3    H266776   6.267   3.505   2.826 -0.5913 -0.4541 -0.7912
15121TIP3   OH266777   5.061   3.410   5.362 -0.2239  0.2694  0.6763
15121TIP3    H166778   5.037   3.414   5.455 -0.0860  0.6530  0.6958
15121TIP3    H266779   5.106   3.326   5.353  1.6175  1.1585  1.4019
15122TIP3   OH266780   5.445   6.030   1.770 -0.3816  0.5828  0.5768
15122TIP3    H166781   5.533   5.993   1.762 -1.0701 -0.9282 -0.3004
15122TIP3    H266782   5.397   5.966   1.822 -0.9339  1.4605  1.1584
15123TIP3   OH266783   0.549   1.442  13.280 -0.5695  0.4134  0.0401
15123TIP3    H166784   0.505   1.390  13.347 -0.2957  0.2963  0.1298
15123TIP3    H266785   0.535   1.393  13.199 -0.7697  0.4762  0.0362
15124TIP3   OH266786   3.210   5.900  15.640  0.0099 -0.0224  0.9284
15124TIP3    H166787   3.240   5.882  15.729  0.6961  3.0158  1.3751
15124TIP3    H266788   3.264   5.974  15.611 -1.4686  0.2362 -1.3259
15125TIP3   OH266789   3.060   1.980  16.544 -0.4919 -0.2221 -0.0196
15125TIP3    H166790   3.011   1.908  16.584 -1.3694  0.9110  0.9573
15125TIP3    H266791   3.150   1.968  16.575 -1.2093  0.8042  2.5658
15126TIP3   OH266792   3.172   5.329  13.733 -0.7290  0.0287 -0.1769
15126TIP3    H166793   3.079   5.310  13.724 -0.2161 -2.6737 -0.0656
15126TIP3    H266794   3.192   5.312  13.825  0.3844 -1.9133 -0.7501
15127TIP3   OH266795   0.489   2.929   4.668  0.3612  0.2875  0.8215
15127TIP3    H166796   0.476   2.838   4.641 -1.0007  0.5586  0.5131
15127TIP3    H266797   0.416   2.947   4.728  1.6145  0.6448  2.2680
15128TIP3   OH266798   1.670   6.290  12.806  0.1432  0.0868  0.0405
15128TIP3    H166799   1.635   6.282  12.718  1.0266 -0.8930 -0.2234
15128TIP3    H266800   1.599   6.330  12.856  0.3497  2.5172 -1.5501
15129TIP3   OH266801   5.007   2.837   0.284  0.1496  0.2856 -0.1258
15129TIP3    H166802   4.913   2.850   0.296  0.0004 -2.2753  1.9608
15129TIP3    H266803   5.047   2.920   0.312 -1.3757  0.8026  0.5613
15130TIP3   OH266804   4.698   1.254   3.891  0.3684  0.3550 -0.0086
15130TIP3    H166805   4.748   1.193   3.837 -0.1060 -0.2322  0.2171
15130TIP3    H266806   4.692   1.212   3.977 -1.2334  0.0127 -0.2602
15131TIP3   OH266807   3.310   6.129   1.193 -0.4629 -0.1289  0.3362
15131TIP3    H166808   3.276   6.186   1.262 -0.8516  1.6058 -1.2552
15131TIP3    H266809   3.241   6.127   1.127 -1.0471 -3.5782  0.9442
15132TIP3   OH266810   0.560   6.003   2.969 -0.5016  0.1827  0.1620
15132TIP3    H166811   0.570   6.083   2.918 -1.9263 -0.4662 -1.1760
15132TIP3    H266812   0.559   6.032   3.060  0.4837  1.5146 -0.2358
15133TIP3   OH266813   2.184   2.025  14.438 -0.4499 -0.1084 -0.1616
15133TIP3    H166814   2.248   2.064  14.378 -0.7542 -1.5592 -1.4770
15133TIP3    H266815   2.205   1.931  14.437 -1.2605 -0.3128  1.0329
15134TIP3   OH266816   3.647   3.444  12.590  0.3675 -0.2220 -0.2263
15134TIP3    H166817   3.652   3.362  12.541  0.1475 -0.4977  0.2026
15134TIP3    H266818   3.704   3.430  12.666 -0.3400 -0.2981  0.2979
15135TIP3   OH266819   6.746   5.673  13.352  0.2273 -0.1634 -0.0634
15135TIP3    H166820   6.834   5.651  13.321  0.8465  0.6604  1.0647
15135TIP3    H266821   6.708   5.590  13.379  1.0259 -0.3926  0.3612
15136TIP3   OH266822   2.327   2.448  11.633  0.1265 -0.0569  0.6233
15136TIP3    H166823   2.237   2.416  11.622  0.1548 -0.5579  1.8313
15136TIP3    H266824   2.317   2.541  11.652 -0.0923  0.0793 -0.1470
15137TIP3   OH266825   6.399   1.523   4.226 -0.0235  0.5033 -0.6679
15137TIP3    H166826   6.435   1.585   4.289 -0.0130  2.7032 -2.7556
15137TIP3    H266827   6.305   1.526   4.239 -0.0601  1.3412 -1.0637
15138TIP3   OH266828   5.650   2.178   4.241  0.6053 -0.0681  0.1842
15138TIP3    H166829   5.650   2.134   4.156  2.0567 -0.2377  0.2737
15138TIP3    H266830   5.713   2.129   4.293  0.2205  0.4651  1.1525
15139TIP3   OH266831   6.206   5.523   4.076  0.0935 -0.2099  0.0215
15139TIP3    H166832   6.206   5.613   4.046 -0.5556  0.3139  1.5246
15139TIP3    H266833   6.169   5.473   4.003 -1.7455  1.0628  0.0637
15140TIP3   OH266834   4.368   2.172   1.610 -0.7228 -0.1860  0.1507
15140TIP3    H166835   4.430   2.172   1.537 -0.8126 -1.0710  0.0741
15140TIP3    H266836   4.390   2.093   1.660 -0.9891  0.1508  0.8041
15141TIP3   OH266837   0.183   1.772  14.001 -0.2096 -0.0138  0.8166
15141TIP3    H166838   0.254   1.756  13.940 -0.7866  0.7923 -0.0938
15141TIP3    H266839   0.194   1.864  14.026 -0.5363 -0.0754  1.1912
15142TIP3   OH266840   0.683   0.035   2.496  0.8820 -0.3913  0.0337
15142TIP3    H166841   0.752  -0.029   2.516 -1.3175 -2.9176 -0.1342
15142TIP3    H266842   0.671   0.028   2.401 -1.0167 -1.5535  0.3260
15143TIP3   OH266843   3.797   1.294  12.264  0.2683  0.4233 -0.1124
15143TIP3    H166844   3.764   1.307  12.354  1.3821 -1.9959  0.6815
15143TIP3    H266845   3.719   1.298  12.210 -0.5513  0.9511  1.0735
15144TIP3   OH266846   2.486   0.305   5.138 -0.6429  0.3818 -0.3707
15144TIP3    H166847   2.478   0.246   5.063  0.5368  0.7299 -0.7807
15144TIP3    H266848   2.525   0.385   5.102  2.4829 -0.4088  1.0520
15145TIP3   OH266849   3.053   2.880  14.802  0.7502  0.2289 -0.6368
15145TIP3    H166850   3.071   2.831  14.882  1.0173  0.8766 -0.2985
15145TIP3    H266851   2.961   2.908  14.810  0.1732 -1.3700 -1.4525
15146TIP3   OH266852   2.782   2.810   2.715 -0.4591  0.1378  0.0792
15146TIP3    H166853   2.746   2.862   2.644 -1.0858 -0.7438 -0.2635
15146TIP3    H266854   2.783   2.720   2.681 -0.8341 -0.3071  1.2049
15147TIP3   OH266855   2.502   0.670  13.199 -0.2850 -0.2561  0.1752
15147TIP3    H166856   2.423   0.616  13.198 -1.1147  0.9262  0.3376
15147TIP3    H266857   2.518   0.690  13.107  0.8410 -1.9236 -0.0099
15148TIP3   OH266858   2.395   5.962   2.851 -0.0516  0.5838  0.1598
15148TIP3    H166859   2.438   5.877   2.864  1.6915  1.6824  1.9283
15148TIP3    H266860   2.354   5.956   2.765  0.8648 -1.7038 -0.1453
15149TIP3   OH266861   4.748   0.850  13.065  0.2477 -0.1053 -0.0684
15149TIP3    H166862   4.653   0.851  13.056  0.2031 -1.3469  0.1094
15149TIP3    H266863   4.773   0.758  13.049  1.4339  0.2499 -0.3596
15150TIP3   OH266864   3.999   5.455  14.676 -0.5431 -0.0855  0.0489
15150TIP3    H166865   4.076   5.475  14.622 -0.4474 -0.4859  0.0355
15150TIP3    H266866   4.032   5.453  14.766 -0.8367  1.2664  0.1922
15151TIP3   OH266867   1.440   5.476  13.847 -0.5042  0.1253  0.1054
15151TIP3    H166868   1.461   5.559  13.805 -0.1956  0.5180  1.0259
15151TIP3    H266869   1.412   5.419  13.775  1.0500  0.4532 -0.7911
15152TIP3   OH266870   3.535   5.357  13.084  0.0883 -0.0223 -0.1797
15152TIP3    H166871   3.463   5.300  13.111 -0.0918 -0.1336 -0.9008
15152TIP3    H266872   3.535   5.352  12.989 -0.2635  1.5889 -0.2773
15153TIP3   OH266873   1.996   0.233   1.259 -0.1557 -0.5420 -0.0677
15153TIP3    H166874   1.999   0.257   1.167 -2.9872 -1.6539 -0.5040
15153TIP3    H266875   1.987   0.137   1.259  0.5822 -0.6360  1.3959
15154TIP3   OH266876   3.542   0.954   1.237 -0.0252 -0.5688 -0.0758
15154TIP3    H166877   3.589   0.918   1.312  1.3267 -0.0432 -0.6539
15154TIP3    H266878   3.452   0.966   1.269  0.7049  0.4048  1.7238
15155TIP3   OH266879   6.587   1.214   1.146  0.5319 -0.7345 -0.3664
15155TIP3    H166880   6.557   1.124   1.158 -1.2543  0.0285  1.0645
15155TIP3    H266881   6.566   1.235   1.055 -0.9701 -1.0618 -0.0965
15156TIP3   OH266882   4.456   5.439  13.792 -0.0312  0.2601  0.1258
15156TIP3    H166883   4.387   5.491  13.751  0.7203  0.6706 -0.6292
15156TIP3    H266884   4.531   5.498  13.799  0.8448 -0.7263 -0.7712
15157TIP3   OH266885   0.321   1.687  15.843  0.1626  0.0820  0.2031
15157TIP3    H166886   0.328   1.634  15.764  0.7909  0.1342  0.2209
15157TIP3    H266887   0.307   1.776  15.811 -4.0061 -0.4750  0.1797
15158TIP3   OH266888   3.374   4.050  13.724 -0.0236  0.6386 -0.2653
15158TIP3    H166889   3.287   4.086  13.739 -0.8297 -1.3002 -0.2542
15158TIP3    H266890   3.374   3.967  13.771  2.0246  0.8687  0.1935
15159TIP3   OH266891   2.114   5.127  10.665 -0.0148 -0.5366 -0.2893
15159TIP3    H166892   2.189   5.074  10.692 -2.0488 -3.7844 -0.6579
15159TIP3    H266893   2.038   5.075  10.691 -2.1380  2.2939 -0.6439
15160TIP3   OH266894   5.545   0.596   1.499  0.2714  0.2513 -0.1585
15160TIP3    H166895   5.586   0.531   1.555 -0.6166 -0.8965 -0.8273
15160TIP3    H266896   5.474   0.633   1.552 -1.0617 -1.3779 -0.7605
15161TIP3   OH266897   6.699   5.376   1.677  0.1370  0.9366 -0.0335
15161TIP3    H166898   6.691   5.466   1.647  2.8683  1.4587  0.7274
15161TIP3    H266899   6.609   5.349   1.697 -0.5020  4.1226  1.6382
15162TIP3   OH266900   5.779   1.219  11.342 -0.3192  0.6362 -0.4467
15162TIP3    H166901   5.850   1.269  11.302 -0.2682  0.0803 -1.0586
15162TIP3    H266902   5.707   1.226  11.280  0.1186 -1.1632 -1.1872
15163TIP3   OH266903   6.117   4.593   0.486 -0.0239 -0.1921  1.0559
15163TIP3    H166904   6.139   4.546   0.567  0.4203  1.4936  1.9481
15163TIP3    H266905   6.055   4.536   0.441 -0.6543 -0.9500  2.8329
15164TIP3   OH266906   1.847   6.727   3.487 -0.3344 -0.0372 -0.0442
15164TIP3    H166907   1.780   6.710   3.554  0.1857 -1.4892  0.1278
15164TIP3    H266908   1.877   6.816   3.506 -0.8109 -0.1095  1.1168
15165TIP3   OH266909   1.228   2.287  16.491 -0.5318 -0.0784  1.0094
15165TIP3    H166910   1.286   2.349  16.446 -0.6182 -0.0548  0.9278
15165TIP3    H266911   1.148   2.286  16.437 -0.4706 -0.3802  0.9200
15166TIP3   OH266912   3.943   0.172   5.621 -0.6402 -0.2885  0.1695
15166TIP3    H166913   3.964   0.118   5.545 -1.0352  0.0770 -0.2052
15166TIP3    H266914   3.876   0.122   5.668 -0.4243 -0.4959  0.2570
15167TIP3   OH266915   6.477   4.463   1.230 -0.3088  0.5440 -0.5317
15167TIP3    H166916   6.407   4.528   1.220 -0.6168  0.1755 -0.7596
15167TIP3    H266917   6.536   4.502   1.295 -0.3923  1.1379 -0.8078
15168TIP3   OH266918   5.761   2.285   1.045 -0.0198 -0.0558  0.4128
15168TIP3    H166919   5.754   2.235   0.964  1.3346 -1.5326  1.1828
15168TIP3    H266920   5.695   2.247   1.102 -0.3988  0.4267  0.3022
15169TIP3   OH266921   1.603   5.251  14.076 -0.0551  0.2568 -0.4483
15169TIP3    H166922   1.641   5.201  14.004  0.6361  0.3813 -0.1723
15169TIP3    H266923   1.521   5.285  14.040  0.4224  0.5628 -1.2700
15170TIP3   OH266924   1.761   1.862  13.788  0.1747  0.6464  0.5592
15170TIP3    H166925   1.740   1.778  13.749 -0.0834  0.5621  0.8767
15170TIP3    H266926   1.825   1.842  13.857  1.0350  0.8567 -0.1554
15171TIP3   OH266927   4.242   2.556  14.781  0.3436  0.5239 -0.2061
15171TIP3    H166928   4.240   2.472  14.828 -2.8186 -0.2565 -1.5623
15171TIP3    H266929   4.250   2.622  14.849  0.7411 -0.7906  1.0489
15172TIP3   OH266930   6.612   1.299   1.556  0.2580 -0.9736  0.0341
15172TIP3    H166931   6.670   1.301   1.632  0.6880 -0.8865 -0.2967
15172TIP3    H266932   6.668   1.272   1.483 -0.2520 -1.5131 -0.1662
15173TIP3   OH266933   5.039   5.770   5.587 -0.3570 -0.7542 -0.5121
15173TIP3    H166934   4.981   5.808   5.653  0.8131 -1.4867  0.9743
15173TIP3    H266935   5.051   5.839   5.522 -2.3427 -0.3713 -0.4911
15174TIP3   OH266936   4.657   2.228   3.654 -0.1479  0.1891 -0.6966
15174TIP3    H166937   4.681   2.248   3.745 -1.3826  0.9821 -0.5319
15174TIP3    H266938   4.715   2.283   3.601  1.7516 -1.5213 -0.4666
15175TIP3   OH266939   0.491   5.752   3.733 -0.2598  0.2998  0.0758
15175TIP3    H166940   0.406   5.797   3.728  0.6215  2.2008  1.6247
15175TIP3    H266941   0.546   5.811   3.785  1.8735 -1.1338 -0.5115
15176TIP3   OH266942   3.124   5.862   0.710  0.4651 -0.7297 -0.2433
15176TIP3    H166943   3.155   5.836   0.623  0.1469  1.0921 -0.9059
15176TIP3    H266944   3.035   5.826   0.715  1.1479 -2.4659  0.0991
15177TIP3   OH266945   3.882   2.591   0.246 -0.1250  0.0020 -0.1632
15177TIP3    H166946   3.895   2.682   0.218  1.9696  0.1293  1.0833
15177TIP3    H266947   3.817   2.597   0.317 -1.2752  0.3056 -1.2278
15178TIP3   OH266948   2.158   1.108   1.023 -0.4602 -0.5074 -0.0415
15178TIP3    H166949   2.225   1.160   0.978  1.6223 -3.1140 -0.0944
15178TIP3    H266950   2.105   1.070   0.953 -0.6838 -0.1499 -0.0695
15179TIP3   OH266951   5.829   4.794  13.247 -0.2912  0.1581 -0.1053
15179TIP3    H166952   5.804   4.845  13.324 -0.6167 -0.2463  0.0589
15179TIP3    H266953   5.814   4.852  13.173 -3.1971 -0.5679 -0.1552
15180TIP3   OH266954   3.662   5.372   0.937 -0.7953  0.5983  0.2587
15180TIP3    H166955   3.697   5.454   0.972 -2.3751  1.4399 -0.0607
15180TIP3    H266956   3.614   5.333   1.011  0.6221 -0.4525  0.6437
15181TIP3   OH266957   6.204   2.172  14.625  0.1130 -0.3333 -0.4666
15181TIP3    H166958   6.137   2.143  14.686  1.9282 -0.3953  1.5579
15181TIP3    H266959   6.254   2.093  14.604  1.2788  0.2029  0.2395
15182TIP3   OH266960   5.153   4.259  13.971  0.2881  0.6410  0.0707
15182TIP3    H166961   5.135   4.351  13.950 -1.3766 -0.0716 -1.7940
15182TIP3    H266962   5.206   4.228  13.898 -1.3137 -0.5342 -0.6229
15183TIP3   OH266963   2.624   3.540  12.134  0.6479  0.1786  0.1919
15183TIP3    H166964   2.668   3.621  12.159  1.5619 -0.5472  0.9210
15183TIP3    H266965   2.531   3.564  12.130  0.5809  0.5604  3.2589
15184TIP3   OH266966   3.012   2.314  14.048  0.4620 -0.0971  0.1802
15184TIP3    H166967   3.091   2.362  14.025  1.9730 -1.0349  3.1843
15184TIP3    H266968   2.990   2.264  13.970  3.0368 -0.0884 -0.5822
15185TIP3   OH266969   0.865   4.329  16.323 -0.3537 -0.4771 -0.5067
15185TIP3    H166970   0.843   4.342  16.416 -0.1637  0.1269 -0.5400
15185TIP3    H266971   0.945   4.276  16.324 -0.1896 -0.2261 -0.3172
15186TIP3   OH266972   3.354   3.580  14.582 -0.6276 -0.2958  0.6494
15186TIP3    H166973   3.330   3.488  14.597 -0.9569 -0.1666  0.9482
15186TIP3    H266974   3.391   3.582  14.494 -1.3384 -0.5815  0.3383
15187TIP3   OH266975   5.881   2.147   6.250 -0.5627  0.2931  0.1554
15187TIP3    H166976   5.811   2.085   6.267 -1.1321  1.2655  1.4554
15187TIP3    H266977   5.845   2.207   6.184 -0.4405 -0.0708 -0.2369
15188TIP3   OH266978   0.738   3.823   5.146  0.1279  0.6206 -0.0163
15188TIP3    H166979   0.738   3.787   5.057  0.6999  2.4358 -0.7832
15188TIP3    H266980   0.733   3.747   5.203  2.2397 -0.7443 -1.5642
15189TIP3   OH266981   6.403   0.208  15.189  0.4177 -0.6538 -0.1481
15189TIP3    H166982   6.379   0.133  15.134  0.1627 -1.2318  0.7379
15189TIP3    H266983   6.367   0.284  15.143 -0.9272 -1.2596 -0.1179
15190TIP3   OH266984   4.579   0.764   3.910 -0.2441  0.6182  0.1958
15190TIP3    H166985   4.501   0.793   3.863 -1.0543 -0.0021  1.1326
15190TIP3    H266986   4.555   0.770   4.002  0.7403  0.1979  0.4873
15191TIP3   OH266987   6.756   2.540   6.150 -0.2286 -0.4023  0.4082
15191TIP3    H166988   6.823   2.555   6.216 -0.2479  0.2367  0.2810
15191TIP3    H266989   6.739   2.626   6.111 -1.4024 -0.4788  0.7128
15192TIP3   OH266990   0.178   6.741   5.795  0.4512 -0.5006  0.7937
15192TIP3    H166991   0.156   6.667   5.737 -1.2838 -0.4898  1.3997
15192TIP3    H266992   0.140   6.717   5.879  0.1822  0.9302  1.0883
15193TIP3   OH266993   5.456   3.358   0.299 -0.4520  0.1250 -0.2799
15193TIP3    H166994   5.525   3.352   0.232  0.7439 -2.3018  1.1269
15193TIP3    H266995   5.503   3.352   0.382 -2.2106  0.3409  0.7485
15194TIP3   OH266996   3.143   3.630  12.583 -0.0552 -0.1681  0.5139
15194TIP3    H166997   3.221   3.586  12.550 -0.8820 -0.9814 -0.3896
15194TIP3    H266998   3.170   3.666  12.668  1.3688 -0.2087  0.0937
15195TIP3   OH266999   1.346   6.619  15.195  0.5668  0.0815 -0.0585
15195TIP3    H167000   1.434   6.611  15.229  0.6087  0.0733 -0.1663
15195TIP3    H267001   1.291   6.573  15.258  1.0509 -2.8835 -1.7307
15196TIP3   OH267002   6.732   2.729   6.623  0.4989  0.5028 -0.4210
15196TIP3    H167003   6.788   2.690   6.690 -0.6844 -0.4391  0.0448
15196TIP3    H267004   6.721   2.659   6.558 -1.0346  0.3061  0.0427
15197TIP3   OH267005   5.354   5.974  15.179  0.2192  0.7546  0.3244
15197TIP3    H167006   5.382   5.979  15.271  1.0561 -0.4170  0.1463
15197TIP3    H267007   5.401   6.046  15.137 -1.3307  2.2411  1.0892
15198TIP3   OH267008   5.600   3.102   5.002  0.0070 -0.3222  0.2293
15198TIP3    H167009   5.634   3.075   4.917 -0.0050  0.7645 -0.1251
15198TIP3    H267010   5.527   3.043   5.019  1.6912 -2.3100  0.7266
15199TIP3   OH267011   4.439   5.260   5.096 -0.8390  0.3546 -0.2288
15199TIP3    H167012   4.408   5.171   5.079 -2.8559  1.0183 -0.1824
15199TIP3    H267013   4.381   5.317   5.045  1.7584  1.5545 -1.9443
15200TIP3   OH267014   2.163   3.354  15.282  0.0532 -0.0272 -0.4366
15200TIP3    H167015   2.137   3.361  15.190 -0.6584  0.1340 -0.2210
15200TIP3    H267016   2.257   3.374  15.281 -0.3194  1.8306 -0.8887
15201TIP3   OH267017   0.891   1.789  13.164  0.3553 -0.1624 -0.1640
15201TIP3    H167018   0.939   1.738  13.098  0.5436 -0.6340  0.3331
15201TIP3    H267019   0.879   1.729  13.237  0.2937  0.4074  0.3027
15202TIP3   OH267020   1.201   0.816  13.058  0.3168 -0.1118  0.0630
15202TIP3    H167021   1.271   0.752  13.049  0.3677 -0.0413 -0.0602
15202TIP3    H267022   1.125   0.766  13.088  0.5567 -0.1023  0.6870
15203TIP3   OH267023   4.821   0.757  14.390 -0.4233 -0.2420 -0.3627
15203TIP3    H167024   4.898   0.808  14.413 -0.4752 -0.4700  0.3232
15203TIP3    H267025   4.801   0.706  14.468 -0.9894 -0.5376 -0.6915
15204TIP3   OH267026   6.588   4.837   1.276 -0.9720 -1.0418  0.2082
15204TIP3    H167027   6.524   4.795   1.334  0.1367 -0.6257  1.7659
15204TIP3    H267028   6.604   4.923   1.316  2.3290 -2.0500  1.2066
15205TIP3   OH267029   0.511   0.915  14.597  0.3258 -0.6908  0.3562
15205TIP3    H167030   0.488   0.875  14.681  0.0447  0.6618  0.9459
15205TIP3    H267031   0.430   0.915  14.547 -0.0720  0.5283  0.9564
15206TIP3   OH267032   3.827   2.414  11.500  0.4093 -0.1854 -0.3307
15206TIP3    H167033   3.758   2.351  11.479 -1.0007  1.1287  0.2705
15206TIP3    H267034   3.847   2.399  11.593  0.2073  0.1253 -0.2354
15207TIP3   OH267035   1.209   3.964  15.923 -0.5797 -0.1362  0.1709
15207TIP3    H167036   1.162   3.896  15.876 -0.9163  0.5384 -0.4686
15207TIP3    H267037   1.226   3.926  16.009 -0.1239 -1.2959 -0.4263
15208TIP3   OH267038   5.874   4.996  12.022  0.9343 -0.0707  0.4611
15208TIP3    H167039   5.791   5.030  11.989  1.5438  0.8687 -0.0992
15208TIP3    H267040   5.861   4.992  12.117  0.1353 -0.2515  0.3515
15209TIP3   OH267041   0.209   4.917   3.980 -0.6675 -0.3015 -0.3012
15209TIP3    H167042   0.302   4.897   3.977 -0.8532 -1.3523  0.5857
15209TIP3    H267043   0.182   4.922   3.888  0.3204  0.3011 -0.5582
15210TIP3   OH267044   3.513   0.154  14.784 -0.0902 -0.0574 -0.5481
15210TIP3    H167045   3.504   0.075  14.730  1.1278  0.9019 -2.2080
15210TIP3    H267046   3.564   0.126  14.859 -0.0912 -0.9684 -0.8713
15211TIP3   OH267047   2.512   0.900   1.710 -0.9196  0.0891 -0.3191
15211TIP3    H167048   2.530   0.938   1.624 -0.8582 -1.7118 -1.1211
15211TIP3    H267049   2.598   0.893   1.752 -0.8408  0.1528 -0.4685
15212TIP3   OH267050   4.423   3.415   0.802  0.1343 -0.5397  0.1253
15212TIP3    H167051   4.475   3.495   0.810  0.2280 -0.3071 -2.3432
15212TIP3    H267052   4.466   3.353   0.861  0.5806  0.9599  1.4123
15213TIP3   OH267053   0.138   3.956   2.611  0.2210 -0.1789  0.1169
15213TIP3    H167054   0.077   3.965   2.538 -0.5001  1.2699  0.8568
15213TIP3    H267055   0.112   3.874   2.654 -0.1346 -0.4111 -0.5366
15214TIP3   OH267056   4.007   3.607   4.079  0.2344  0.1462  0.3293
15214TIP3    H167057   4.002   3.537   4.144 -0.9826 -0.5918 -0.5402
15214TIP3    H267058   3.998   3.688   4.130 -1.9355 -0.4590  0.9795
15215TIP3   OH267059   6.652   6.045   0.113  0.2811 -0.1204  0.1325
15215TIP3    H167060   6.636   6.106   0.185  0.2762 -0.3479  0.3248
15215TIP3    H267061   6.740   6.066   0.083  0.1845  0.1461  0.0372
15216TIP3   OH267062   2.694   4.204   1.624 -0.5532  0.7513  0.2729
15216TIP3    H167063   2.625   4.173   1.565 -0.9776 -1.3628  1.8188
15216TIP3    H267064   2.771   4.153   1.601 -0.0169  1.7470 -0.1636
15217TIP3   OH267065   0.505   4.189  12.995 -0.3905 -0.2269 -0.1896
15217TIP3    H167066   0.488   4.251  13.067  0.4668  0.7950 -0.8481
15217TIP3    H267067   0.466   4.107  13.025 -0.9107  0.4385  1.0236
15218TIP3   OH267068   2.018   3.890   4.981 -0.4612  0.2334  0.2362
15218TIP3    H167069   2.019   3.818   4.918 -1.0921  0.6366 -0.2354
15218TIP3    H267070   2.035   3.848   5.065 -1.1381 -0.5116  0.0089
15219TIP3   OH267071   1.380   3.383  12.949  0.3285 -0.1498 -0.6941
15219TIP3    H167072   1.420   3.365  12.864 -1.0981  1.1583 -1.6858
15219TIP3    H267073   1.404   3.474  12.968 -0.0803 -0.1607 -0.1140
15220TIP3   OH267074   1.761   2.608  12.408 -0.1334 -0.1317  0.4453
15220TIP3    H167075   1.700   2.559  12.353 -1.1879 -1.0946  2.4223
15220TIP3    H267076   1.838   2.551  12.415  0.7946  0.8347 -1.5805
15221TIP3   OH267077   5.480   4.669  14.332 -0.4989 -0.5042 -0.4122
15221TIP3    H167078   5.458   4.624  14.250  0.4709 -1.1897 -0.2918
15221TIP3    H267079   5.484   4.762  14.307  0.1417 -0.7386 -1.2186
15222TIP3   OH267080   0.342   0.129  14.001  0.1660 -0.3140 -0.2365
15222TIP3    H167081   0.283   0.110  14.074  1.4826  1.6960  1.4093
15222TIP3    H267082   0.286   0.171  13.935 -0.6173 -0.1768  0.5080
15223TIP3   OH267083   0.100   1.617   0.302  0.7866  0.5108 -0.0998
15223TIP3    H167084   0.100   1.627   0.397  1.8748  1.6732 -0.2074
15223TIP3    H267085   0.007   1.624   0.278  0.4838  0.0275  0.8881
15224TIP3   OH267086   0.379   3.645  15.035  0.6323 -0.3048 -0.7999
15224TIP3    H167087   0.319   3.572  15.023 -0.8922  0.5385  1.3144
15224TIP3    H267088   0.424   3.625  15.118 -0.6680  1.6780  0.4317
15225TIP3   OH267089   5.329   1.202  17.053  0.1367 -0.4945  0.0908
15225TIP3    H167090   5.262   1.270  17.055 -0.1749 -0.8309  1.4166
15225TIP3    H267091   5.289   1.130  17.004  0.2222  0.0214 -0.7389
15226TIP3   OH267092   0.707   2.890   4.820 -0.3881  0.1204 -0.0251
15226TIP3    H167093   0.659   2.858   4.896  1.1670 -1.6810  0.2211
15226TIP3    H267094   0.639   2.920   4.760 -1.6831  0.4302  1.5571
15227TIP3   OH267095   1.947   4.209   4.991  0.1301  0.1467  0.2058
15227TIP3    H167096   2.042   4.198   5.003  0.0684  0.3006  0.8228
15227TIP3    H267097   1.911   4.122   5.005  0.3749 -0.3663 -2.0475
15228TIP3   OH267098   5.836   2.600   2.771  0.2619  0.6941  0.1934
15228TIP3    H167099   5.755   2.550   2.762  1.0690 -1.3776  3.4054
15228TIP3    H267100   5.809   2.682   2.812 -0.4706  0.8799 -0.6550
15229TIP3   OH267101   1.296   0.304   0.683  0.1575 -0.1976 -0.4214
15229TIP3    H167102   1.356   0.264   0.620 -0.0564 -1.4056  0.1236
15229TIP3    H267103   1.339   0.292   0.768  0.2609  1.0634 -0.2916
15230TIP3   OH267104   2.956   3.432   3.897  0.3555  0.0028 -0.0504
15230TIP3    H167105   2.885   3.444   3.833  1.0011  0.3260 -0.7124
15230TIP3    H267106   2.911   3.428   3.981 -0.5236 -0.5942 -0.5357
15231TIP3   OH267107   2.903   0.202  10.390  0.0743  0.3033  0.1412
15231TIP3    H167108   2.947   0.146  10.453 -0.8524  0.7656  1.2049
15231TIP3    H267109   2.974   0.253  10.350  0.6743 -0.0853  0.7075
15232TIP3   OH267110   5.645   2.534  11.303  0.7324  0.7472  0.3986
15232TIP3    H167111   5.673   2.481  11.378 -3.0140 -1.2683  0.4600
15232TIP3    H267112   5.722   2.537  11.246  2.0208 -2.1123  1.8937
15233TIP3   OH267113   3.952   2.866   0.185 -0.2034  0.1707  0.1729
15233TIP3    H167114   4.005   2.930   0.233 -1.2525  1.4281 -0.3347
15233TIP3    H267115   3.916   2.914   0.111 -0.5607 -1.1495 -0.5331
15234TIP3   OH267116   5.851   1.548   6.155  0.3211  0.2481 -0.3306
15234TIP3    H167117   5.834   1.463   6.194 -0.1392 -0.1909 -1.4561
15234TIP3    H267118   5.808   1.611   6.213 -1.5152 -0.5036 -0.8429
15235TIP3   OH267119   0.441   4.992   2.021 -0.1938 -0.1159  0.2653
15235TIP3    H167120   0.427   4.899   2.039 -1.8510  0.1349  0.4109
15235TIP3    H267121   0.366   5.036   2.062 -0.1230  1.1473 -0.8961
15236TIP3   OH267122   1.095   5.699  16.564  1.2666 -0.5629 -0.5133
15236TIP3    H167123   1.132   5.741  16.486  0.1012 -1.0963 -1.3616
15236TIP3    H267124   1.051   5.770  16.611  1.4626 -0.3565 -0.6413
15237TIP3   OH267125   2.153   2.904  12.850 -0.3025  0.2149 -0.0044
15237TIP3    H167126   2.245   2.906  12.823 -0.8701  0.2543 -2.0850
15237TIP3    H267127   2.117   2.986  12.816 -1.4705 -0.5485 -0.6568
15238TIP3   OH267128   5.289   1.850   6.429 -0.5889  0.3257 -0.4927
15238TIP3    H167129   5.373   1.849   6.384 -0.0411  0.9296  0.4903
15238TIP3    H267130   5.246   1.769   6.402  0.9065 -0.6934  0.0974
15239TIP3   OH267131   3.231   2.189  12.975 -0.4135 -0.2268 -0.2228
15239TIP3    H167132   3.300   2.156  13.033 -1.4908 -0.8110  0.7678
15239TIP3    H267133   3.277   2.224  12.899  1.3326  4.3250  2.7228
15240TIP3   OH267134   2.463   2.905  12.782  0.1667 -0.0256 -0.4390
15240TIP3    H167135   2.526   2.968  12.816 -1.8888  2.4329 -1.0551
15240TIP3    H267136   2.454   2.927  12.689 -0.6814 -1.1484 -0.6380
15241TIP3   OH267137   0.146   0.155  14.220 -0.0429  0.2142 -0.5145
15241TIP3    H167138   0.077   0.093  14.245  0.3777 -0.2597 -0.5294
15241TIP3    H267139   0.099   0.236  14.200 -0.5328  0.1050  0.1818
15242TIP3   OH267140   0.776   1.361   2.345  0.1257  0.5516 -1.3752
15242TIP3    H167141   0.803   1.324   2.429 -0.6013 -2.7493 -2.5198
15242TIP3    H267142   0.685   1.386   2.358 -0.2653 -0.7934 -1.3909
15243TIP3   OH267143   0.180   2.898  16.176  0.5670  0.1724 -0.3317
15243TIP3    H167144   0.094   2.901  16.217 -0.0646 -0.9645 -1.5271
15243TIP3    H267145   0.242   2.895  16.249 -0.3909  1.1675  0.5276
15244TIP3   OH267146   4.960   5.707   0.929 -0.2119 -1.2713  0.0600
15244TIP3    H167147   4.913   5.733   0.850 -0.3735  1.4054  0.9953
15244TIP3    H267148   5.044   5.753   0.923  0.6932 -2.8273  0.3777
15245TIP3   OH267149   6.711   0.087   1.613  0.3677  0.1980  0.1307
15245TIP3    H167150   6.630   0.136   1.629  1.0798  1.5440 -0.3575
15245TIP3    H267151   6.681   0.001   1.582 -0.8584  1.1486 -1.3981
15246TIP3   OH267152   5.777   6.124   1.081 -0.6010  0.1995 -0.4501
15246TIP3    H167153   5.746   6.212   1.101  0.7631  0.4317  0.7398
15246TIP3    H267154   5.872   6.134   1.069 -0.5452 -0.9720 -1.0996
15247TIP3   OH267155   4.187   2.907   5.993  0.4119  0.7602  0.2999
15247TIP3    H167156   4.198   2.853   6.071  0.7965 -0.4336 -0.5771
15247TIP3    H267157   4.164   2.994   6.028  0.3087  0.1802  1.7249
15248TIP3   OH267158   0.091   1.647  14.688  0.0666 -0.3467 -0.1477
15248TIP3    H167159   0.020   1.696  14.646 -0.5040 -0.7038  0.4030
15248TIP3    H267160   0.047   1.577  14.737  0.8117 -0.7354 -0.0247
15249TIP3   OH267161   2.953   4.359  12.274 -0.1387 -0.2232  0.5275
15249TIP3    H167162   2.978   4.279  12.228 -1.4569 -0.5991  0.4423
15249TIP3    H267163   2.945   4.425  12.206  0.2161 -0.2062  0.5034
15250TIP3   OH267164   0.958   6.667  16.090  0.9120 -0.6096 -0.4354
15250TIP3    H167165   0.962   6.757  16.058  1.1212 -0.5756 -0.3169
15250TIP3    H267166   0.978   6.673  16.183 -2.5791 -0.3667  0.3687
15251TIP3   OH267167   1.032   5.505   3.530  0.0115 -0.5677 -0.1210
15251TIP3    H167168   1.050   5.541   3.443 -0.8065 -0.8439 -0.4075
15251TIP3    H267169   0.937   5.506   3.536  0.0368 -1.5627  0.3533
15252TIP3   OH267170   6.360   6.002   4.438 -0.2099  0.1184  0.0276
15252TIP3    H167171   6.391   5.962   4.357  2.2466  1.6587  0.1715
15252TIP3    H267172   6.438   6.042   4.477 -1.2528 -0.9427  3.3739
15253TIP3   OH267173   5.201   1.629  13.817 -0.1277 -0.3646 -0.0637
15253TIP3    H167174   5.210   1.598  13.907  1.8559  0.4280  0.0505
15253TIP3    H267175   5.137   1.571  13.777 -0.4676 -1.1955  1.6512
15254TIP3   OH267176   6.601   5.707   1.721 -0.0725 -0.2365 -0.5845
15254TIP3    H167177   6.689   5.745   1.728  0.1586 -0.4756 -1.9354
15254TIP3    H267178   6.558   5.731   1.803  0.5472  1.7107 -0.7910
15255TIP3   OH267179   3.533   0.226   2.450 -0.4891  0.5607 -0.2521
15255TIP3    H167180   3.483   0.176   2.515 -0.2581  0.3695 -0.2214
15255TIP3    H267181   3.476   0.230   2.373 -0.4956  0.2251 -0.2648
15256TIP3   OH267182   4.555   4.120   3.954 -0.3828  0.1011 -0.3671
15256TIP3    H167183   4.523   4.143   4.042  1.1453  2.2502 -0.3325
15256TIP3    H267184   4.622   4.054   3.970  1.2714  1.9067  0.2711
15257TIP3   OH267185   2.612   4.577  14.438 -0.6813  0.1529 -0.1748
15257TIP3    H167186   2.521   4.605  14.424 -0.1724  1.7441 -0.3726
15257TIP3    H267187   2.652   4.581  14.351  0.8563  4.1596  0.6389
15258TIP3   OH267188   1.819   5.462  11.622  0.1853 -0.0117 -0.0376
15258TIP3    H167189   1.842   5.394  11.558  0.0327  0.9462 -1.1187
15258TIP3    H267190   1.869   5.539  11.595 -1.0199  0.8431  0.1093
15259TIP3   OH267191   1.630   4.074   0.855 -0.1581 -0.0858 -0.0236
15259TIP3    H167192   1.689   4.021   0.907  2.9850  1.6801 -1.5811
15259TIP3    H267193   1.609   4.020   0.779  0.7600 -0.1801 -0.2187
15260TIP3   OH267194   2.350   2.980   5.023  0.2260  0.4294  0.0413
15260TIP3    H167195   2.301   2.925   4.962  0.1551 -0.7871  1.1897
15260TIP3    H267196   2.439   2.944   5.022  0.4084  0.8636  0.1143
15261TIP3   OH267197   6.750   0.614   3.967  0.3614 -0.2001 -0.0905
15261TIP3    H167198   6.715   0.679   3.906  1.1037 -0.0247 -0.3399
15261TIP3    H267199   6.735   0.651   4.054 -0.4301 -0.3144 -0.1795
15262TIP3   OH267200   5.824   5.115  14.559  0.2397  0.0207  0.2576
15262TIP3    H167201   5.730   5.112  14.576  0.1413  0.5887 -0.1768
15262TIP3    H267202   5.836   5.062  14.480  0.4655 -1.1607  1.0707
15263TIP3   OH267203   1.238   1.931  13.125 -0.2211  0.4340 -0.6910
15263TIP3    H167204   1.305   1.908  13.190 -1.1050  0.6277  0.2980
15263TIP3    H267205   1.181   1.993  13.171 -1.3573 -0.0995 -1.3712
15264TIP3   OH267206   5.349   3.488  14.206 -0.6439 -0.0155 -0.0508
15264TIP3    H167207   5.394   3.427  14.265 -0.5932 -1.0784 -1.1816
15264TIP3    H267208   5.330   3.564  14.261  1.4668 -0.0315  0.7514
15265TIP3   OH267209   4.244   6.558   2.280  0.3396 -0.0185 -0.2161
15265TIP3    H167210   4.281   6.492   2.339  0.0889 -0.2728 -0.3384
15265TIP3    H267211   4.192   6.614   2.337  1.3294  0.6566  0.0396
15266TIP3   OH267212   5.045   0.577  15.387  0.1722 -0.1752  0.3447
15266TIP3    H167213   5.036   0.666  15.420  1.0377  0.6201 -1.5016
15266TIP3    H267214   5.139   0.566  15.373 -0.1157 -0.6281 -1.3740
15267TIP3   OH267215   2.937   0.034  14.409 -0.3773  0.6639  0.0004
15267TIP3    H167216   2.911   0.044  14.501  1.7092 -0.8912  0.7934
15267TIP3    H267217   2.917  -0.058  14.388  0.3296  0.6687 -0.7223
15268TIP3   OH267218   3.456   3.615   1.687 -0.2849 -0.5740 -1.0141
15268TIP3    H167219   3.362   3.621   1.672 -0.2785  0.9514 -0.4490
15268TIP3    H267220   3.466   3.601   1.781  0.0447 -1.0895 -1.1206
15269TIP3   OH267221   0.216   3.114  14.203  0.0385 -0.1603  0.2339
15269TIP3    H167222   0.229   3.208  14.196  1.3036 -0.1849  1.8308
15269TIP3    H267223   0.192   3.086  14.115 -0.8989  1.7264 -0.1332
15270TIP3   OH267224   3.736   4.412   1.580 -0.3616  0.2014  0.0138
15270TIP3    H167225   3.741   4.410   1.484  1.0192 -2.1444  0.0806
15270TIP3    H267226   3.784   4.491   1.605  0.2614  0.2237 -1.1946
15271TIP3   OH267227   5.194   3.036   3.450 -0.3144  0.3582  0.8436
15271TIP3    H167228   5.255   2.989   3.507 -0.2021  1.5996  1.7702
15271TIP3    H267229   5.213   3.128   3.466  0.4291  0.7361 -2.0054
15272TIP3   OH267230   4.625   3.710   4.487  0.3646  0.5123  0.0947
15272TIP3    H167231   4.662   3.791   4.522  0.6028 -0.2371  1.5997
15272TIP3    H267232   4.670   3.699   4.402  1.6125  1.0377  0.6682
15273TIP3   OH267233   6.036   2.702   2.009  1.4974  0.4649  0.0056
15273TIP3    H167234   5.981   2.634   2.046  1.5928 -0.0343 -0.7530
15273TIP3    H267235   5.996   2.722   1.924  1.7249  1.0310  0.0295
15274TIP3   OH267236   5.966   6.359   0.264 -0.2883  0.0869  0.1288
15274TIP3    H167237   5.883   6.317   0.286 -0.1899  0.4998  1.3534
15274TIP3    H267238   5.942   6.451   0.250 -0.2163 -0.0180 -0.6797
15275TIP3   OH267239   5.065   1.300   0.249 -0.3381 -0.0849  0.2051
15275TIP3    H167240   5.039   1.258   0.168 -0.2549  3.6483 -1.8507
15275TIP3    H267241   5.156   1.274   0.262 -0.1220 -0.0678 -1.2913
15276TIP3   OH267242   0.094   5.800  15.506  0.1503 -0.2544  0.3496
15276TIP3    H167243   0.069   5.744  15.580  0.4528  1.4342  1.7822
15276TIP3    H267244   0.170   5.850  15.539  0.7671 -0.0323 -1.3736
15277TIP3   OH267245   1.812   4.630  12.113 -0.0700  0.5108 -0.4960
15277TIP3    H167246   1.780   4.560  12.055 -0.9227 -0.4934  1.1648
15277TIP3    H267247   1.784   4.710  12.069 -0.7682 -0.2405 -1.4704
15278TIP3   OH267248   0.696   6.777  15.133  0.1248  0.0609  0.4673
15278TIP3    H167249   0.693   6.681  15.139  0.1941  0.0472  0.2855
15278TIP3    H267250   0.681   6.795  15.040 -1.3235  0.2903  0.7362
15279TIP3   OH267251   3.865   2.752   0.675  0.2359 -0.1094 -0.0260
15279TIP3    H167252   3.776   2.772   0.703  0.0354  0.6175 -1.1674
15279TIP3    H267253   3.921   2.792   0.742 -0.2849 -0.9669  0.9431
15280TIP3   OH267254   1.563   4.852   0.226 -0.0787  0.2268 -0.3035
15280TIP3    H167255   1.512   4.861   0.145 -0.7671  0.8909  0.2064
15280TIP3    H267256   1.588   4.759   0.228 -3.0340 -0.6102  0.4916
15281TIP3   OH267257   0.978   2.831   4.726  0.3621  0.1763  0.2913
15281TIP3    H167258   0.997   2.740   4.748  1.3736  0.7113  1.7168
15281TIP3    H267259   0.899   2.852   4.775 -1.4819 -0.7221 -2.1818
15282TIP3   OH267260   4.570   2.493   1.523 -0.0958 -0.4551  0.7796
15282TIP3    H167261   4.595   2.420   1.579  1.1860 -1.6636 -1.2964
15282TIP3    H267262   4.653   2.533   1.497 -0.6038 -0.4966 -0.9897
15283TIP3   OH267263   3.103   1.500  11.766 -0.4241  0.4814  0.4781
15283TIP3    H167264   3.071   1.583  11.802  0.0861  1.1746 -0.6371
15283TIP3    H267265   3.037   1.476  11.701  0.7096  1.3325 -1.0161
15284TIP3   OH267266   2.039   1.039  14.041  1.1516 -0.2646 -0.6523
15284TIP3    H167267   2.042   1.117  13.985 -0.9359 -0.7835 -1.5391
15284TIP3    H267268   2.098   0.977  13.999  1.7357  0.3164 -0.7118
15285TIP3   OH267269   1.016   4.710  12.526 -0.1294 -0.2298  0.2501
15285TIP3    H167270   0.940   4.736  12.579 -0.5504 -2.1355  0.6119
15285TIP3    H267271   0.983   4.707  12.437  0.1287  1.2405  0.0927
15286TIP3   OH267272   6.075   6.505  12.551  0.6776 -0.3591  0.1553
15286TIP3    H167273   6.013   6.578  12.563  1.5742  0.6055 -0.9579
15286TIP3    H267274   6.039   6.435  12.605 -1.9735 -0.1926 -1.2951
15287TIP3   OH267275   1.551   5.913   3.469  0.8245  0.2197  0.0430
15287TIP3    H167276   1.465   5.954   3.476  1.2652  1.0605  0.5424
15287TIP3    H267277   1.538   5.824   3.502  0.4054  0.6955  1.1653
15288TIP3   OH267278   5.163   1.865   2.013  0.1309 -0.0597  0.0316
15288TIP3    H167279   5.247   1.903   1.988  0.6081  0.1602  1.8963
15288TIP3    H267280   5.126   1.928   2.075 -0.9534 -0.6407 -0.0269
15289TIP3   OH267281   2.904   0.192  11.942  0.2061 -0.4408  0.2128
15289TIP3    H167282   2.962   0.262  11.913  0.9786 -1.8079 -1.7007
15289TIP3    H267283   2.872   0.153  11.860 -2.3180 -0.6026  1.2354
15290TIP3   OH267284   6.354   3.787   6.544 -0.1573 -0.2857  0.0781
15290TIP3    H167285   6.436   3.828   6.516 -1.2963  1.2269 -1.1274
15290TIP3    H267286   6.375   3.746   6.627  1.7200  0.4573 -0.0056
15291TIP3   OH267287   1.016   0.674  12.531  0.1107  0.2930 -0.1524
15291TIP3    H167288   1.012   0.605  12.464 -0.7383  0.1576  0.0382
15291TIP3    H267289   0.952   0.739  12.503 -0.8450 -0.1564  0.9700
15292TIP3   OH267290   4.169   0.083   4.848 -0.2860 -0.2161 -0.0642
15292TIP3    H167291   4.081   0.119   4.854 -0.1119  0.2639 -0.3745
15292TIP3    H267292   4.164   0.017   4.778 -0.4350 -0.3066  0.0314
15293TIP3   OH267293   6.701   4.058  14.928  0.0377 -0.1134  0.2615
15293TIP3    H167294   6.665   4.030  15.012  1.1962  0.0170  0.8051
15293TIP3    H267295   6.789   4.089  14.948  1.1464 -2.1047 -1.3288
15294TIP3   OH267296   1.916   4.596   1.180  0.3259  0.0395 -0.1691
15294TIP3    H167297   1.837   4.625   1.225  0.4723  0.4543 -0.1821
15294TIP3    H267298   1.885   4.527   1.121 -0.2509  1.1253 -1.1570
15295TIP3   OH267299   5.529   1.276   4.736 -0.9122  0.0872  0.2734
15295TIP3    H167300   5.582   1.278   4.656 -0.0060 -0.6430  0.8583
15295TIP3    H267301   5.483   1.192   4.732  0.4787 -0.7341  1.3924
15296TIP3   OH267302   0.264   2.206  16.258  0.2553  0.4423  0.5256
15296TIP3    H167303   0.256   2.181  16.351  0.5057  1.2308  0.7582
15296TIP3    H267304   0.358   2.209  16.242  0.2885  3.3273  1.0708
15297TIP3   OH267305   6.525   3.929   0.791  0.2548 -0.4143  0.3174
15297TIP3    H167306   6.602   3.894   0.835  1.3250  0.9175 -0.4437
15297TIP3    H267307   6.514   3.873   0.714  1.3258  0.2521 -0.3334
15298TIP3   OH267308   3.933   5.780   4.598  0.6087  0.1981 -0.2316
15298TIP3    H167309   3.858   5.838   4.607  0.9165  0.9874 -2.4189
15298TIP3    H267310   3.898   5.692   4.613 -0.1366  0.7926  1.6728
15299TIP3   OH267311   2.005   2.269   0.083 -0.7600  0.2049 -0.4462
15299TIP3    H167312   1.979   2.235   0.168 -1.1588 -3.8024 -2.0452
15299TIP3    H267313   2.097   2.246   0.074  0.3092  3.8836  0.3360
15300TIP3   OH267314   4.717   3.798   1.089 -1.2606  0.5799  0.1717
15300TIP3    H167315   4.766   3.869   1.047 -0.1569 -0.2918 -0.0475
15300TIP3    H267316   4.713   3.824   1.181  1.1162 -0.1290  0.5173
15301TIP3   OH267317   3.861   0.244  14.322 -0.1872  0.1379  0.1086
15301TIP3    H167318   3.900   0.184  14.260  0.1097  1.0706 -0.6238
15301TIP3    H267319   3.935   0.294  14.358 -0.4741  0.3878  0.3625
15302TIP3   OH267320   2.161   3.828  13.090 -0.5946 -0.1402  0.1862
15302TIP3    H167321   2.248   3.867  13.093 -0.8387  0.2602  2.7634
15302TIP3    H267322   2.109   3.891  13.039  0.5093 -0.1921 -1.0195
15303TIP3   OH267323   4.420   0.433  16.293 -0.1990  0.1285 -1.0566
15303TIP3    H167324   4.384   0.502  16.349 -0.7239 -1.3640  0.5149
15303TIP3    H267325   4.498   0.402  16.341  1.1900  0.9783 -2.7271
15304TIP3   OH267326   6.165   5.629  10.581 -0.4285  0.3572 -0.2903
15304TIP3    H167327   6.251   5.662  10.609 -1.0419  2.1888 -0.5116
15304TIP3    H267328   6.179   5.535  10.566  1.9087  0.8786 -1.6863
15305TIP3   OH267329   1.842   5.722   4.439  0.1261 -0.2859  0.1050
15305TIP3    H167330   1.779   5.700   4.371 -0.4265  1.2566  0.1004
15305TIP3    H267331   1.838   5.649   4.500  1.4137 -2.2135 -2.0464
15306TIP3   OH267332   4.591   2.735   5.704 -0.1767 -0.3489 -0.1874
15306TIP3    H167333   4.566   2.777   5.621 -1.8651 -1.9696 -0.5074
15306TIP3    H267334   4.579   2.804   5.770 -1.4623  0.1311 -0.9104
15307TIP3   OH267335   2.324   1.701  11.220 -0.2062  0.0941  0.1955
15307TIP3    H167336   2.303   1.608  11.226  0.6014  0.0414  2.4193
15307TIP3    H267337   2.247   1.740  11.178 -0.5302 -1.5698 -0.7851
15308TIP3   OH267338   6.556   3.803   2.278  0.1151  0.3436  0.0237
15308TIP3    H167339   6.494   3.839   2.214  0.4602  1.2255  0.1917
15308TIP3    H267340   6.504   3.790   2.357 -1.0006 -3.3286 -1.2097
15309TIP3   OH267341   4.452   0.875  12.994  0.4080  0.4616 -0.0817
15309TIP3    H167342   4.412   0.950  12.951  0.3867  0.1875 -0.5447
15309TIP3    H267343   4.425   0.882  13.085  0.1719  0.8575 -0.1838
15310TIP3   OH267344   4.874   5.978   5.748  0.0391 -0.3569  0.2932
15310TIP3    H167345   4.844   6.058   5.791 -0.1202 -1.4488  2.2717
15310TIP3    H267346   4.803   5.915   5.762  0.2248 -0.9013 -1.1140
15311TIP3   OH267347   0.581   4.434   4.570  0.2967  0.2194  0.0498
15311TIP3    H167348   0.502   4.449   4.622  0.2723  1.6706 -0.3933
15311TIP3    H267349   0.568   4.346   4.533 -1.1375  0.4458 -0.0408
15312TIP3   OH267350   4.304   5.856   4.293 -0.0673  0.1632 -0.3436
15312TIP3    H167351   4.288   5.932   4.237 -0.3363  0.7284  0.4965
15312TIP3    H267352   4.357   5.797   4.239  1.4809  1.6261 -0.4519
15313TIP3   OH267353   0.466   6.411   5.285 -0.0312 -0.4289  0.3231
15313TIP3    H167354   0.519   6.339   5.251  0.8716  0.2337  0.2870
15313TIP3    H267355   0.443   6.384   5.374  1.2071 -0.3164  0.7004
15314TIP3   OH267356   0.696   0.160  13.719 -0.3438  0.4979 -0.2393
15314TIP3    H167357   0.680   0.143  13.811 -1.6680  1.2723 -0.3111
15314TIP3    H267358   0.672   0.079  13.674 -1.3656  0.6964 -0.0638
15315TIP3   OH267359   0.235   0.915   0.481  0.1871  1.1555 -0.5294
15315TIP3    H167360   0.142   0.913   0.459 -0.0204  1.8777  0.2606
15315TIP3    H267361   0.270   0.987   0.428  0.0199  1.7759  0.1859
15316TIP3   OH267362   1.799   1.432  14.666  0.1757 -0.1535 -0.2957
15316TIP3    H167363   1.882   1.435  14.619  2.2470  0.8416  3.2780
15316TIP3    H267364   1.773   1.524  14.674 -1.1449 -0.4407 -1.1236
15317TIP3   OH267365   1.829   0.152  12.313  0.3899  0.3464  0.3837
15317TIP3    H167366   1.801   0.089  12.379 -0.3378  0.0988 -0.1643
15317TIP3    H267367   1.749   0.198  12.288  0.7343  0.7261 -0.0257
15318TIP3   OH267368   1.343   0.573  13.025  0.1207  0.3416 -0.1160
15318TIP3    H167369   1.429   0.609  13.046 -1.6516  5.6559 -1.2046
15318TIP3    H267370   1.340   0.570  12.930 -1.1891  1.1323 -0.1189
15319TIP3   OH267371   4.134   0.311  14.410 -0.1409  0.0271 -0.4223
15319TIP3    H167372   4.227   0.294  14.428 -0.6067 -1.5880  0.5661
15319TIP3    H267373   4.131   0.328  14.316  0.8970 -1.9834 -0.8483
15320TIP3   OH267374   4.709   0.380  11.862  0.6819  0.6453 -0.1259
15320TIP3    H167375   4.799   0.408  11.843  1.1783 -0.2532  0.8881
15320TIP3    H267376   4.679   0.341  11.780  1.0419  1.3908 -0.6241
15321TIP3   OH267377   4.015   1.017   5.330  0.4505 -0.1871  0.2215
15321TIP3    H167378   4.032   0.925   5.347  0.1769 -0.1495  0.7248
15321TIP3    H267379   4.093   1.063   5.361  0.5751 -0.2481 -0.0053
15322TIP3   OH267380   3.457   1.617   5.139  0.0934  0.0063 -0.0738
15322TIP3    H167381   3.461   1.591   5.047 -0.7558 -1.7480  0.3607
15322TIP3    H267382   3.365   1.609   5.163  0.6992 -2.5075  1.7024
15323TIP3   OH267383   2.944   2.028   5.662 -0.9952 -0.4763 -0.4110
15323TIP3    H167384   2.965   2.086   5.735 -1.9323  0.3182 -0.7709
15323TIP3    H267385   2.905   2.085   5.596 -0.6580 -1.2808 -1.3210
15324TIP3   OH267386   1.777   0.732   4.430  0.1131  0.4744  0.0842
15324TIP3    H167387   1.779   0.755   4.522 -1.2526  0.2698  0.1732
15324TIP3    H267388   1.691   0.761   4.399 -0.0865 -0.9153 -0.7345
15325TIP3   OH267389   6.207   5.276  13.396  0.2954 -0.0097 -0.1638
15325TIP3    H167390   6.215   5.234  13.481  1.3080  0.6163  0.0584
15325TIP3    H267391   6.113   5.292  13.386  0.1932  0.1316  0.9486
15326TIP3   OH267392   5.255   0.545   5.988 -0.0237  0.0993 -0.3111
15326TIP3    H167393   5.164   0.574   5.991 -0.4298 -1.2085  0.4341
15326TIP3    H267394   5.260   0.490   5.909 -0.3158 -1.1815  0.5397
15327TIP3   OH267395   5.092   5.848  13.004 -0.1013  0.6405  0.1315
15327TIP3    H167396   5.183   5.825  12.984 -0.1781 -0.4690  0.9967
15327TIP3    H267397   5.064   5.903  12.931  1.0512  0.4315 -0.4770
15328TIP3   OH267398   2.518   4.181   5.612 -0.5505 -0.0178 -0.3682
15328TIP3    H167399   2.506   4.276   5.604 -1.0714  0.1319  1.7090
15328TIP3    H267400   2.564   4.156   5.533  0.7892  2.1872 -0.3379
15329TIP3   OH267401   2.771   1.450  14.863 -0.4993  0.0467  0.5266
15329TIP3    H167402   2.772   1.406  14.948 -0.6763 -0.8273  0.0847
15329TIP3    H267403   2.697   1.411  14.817 -0.8573  1.0473  0.2392
15330TIP3   OH267404   2.127   5.700  17.085 -0.1769 -0.0498  0.3726
15330TIP3    H167405   2.049   5.744  17.120  1.1782  2.4384  0.3830
15330TIP3    H267406   2.201   5.747  17.125  1.3345 -1.5762 -0.5878
15331TIP3   OH267407   6.615   1.855  13.366 -0.3269 -0.5081  0.6215
15331TIP3    H167408   6.648   1.900  13.288  1.2258 -0.3006  1.3700
15331TIP3    H267409   6.654   1.768  13.361  0.6364 -0.1502  1.6978
15332TIP3   OH267410   5.875   2.267   5.477 -0.4622  0.7151  0.4775
15332TIP3    H167411   5.876   2.188   5.422 -2.1459  1.2950 -0.4295
15332TIP3    H267412   5.898   2.236   5.564  3.3150 -0.0824 -0.7167
15333TIP3   OH267413   4.475   3.288  15.219 -0.0572 -0.1571 -0.0892
15333TIP3    H167414   4.467   3.382  15.203  0.1138 -0.1198  0.0303
15333TIP3    H267415   4.551   3.280  15.277 -0.0604 -0.3712 -0.1111
15334TIP3   OH267416   1.537   0.598  13.859  0.1313  0.0925  0.0884
15334TIP3    H167417   1.524   0.688  13.889 -1.0577  0.2506 -0.8395
15334TIP3    H267418   1.529   0.545  13.938  0.6193  0.7885  0.6086
15335TIP3   OH267419   6.212   1.464  16.088  0.2831  0.2664 -0.6114
15335TIP3    H167420   6.164   1.412  16.154  0.3491  0.0893 -0.6986
15335TIP3    H267421   6.284   1.407  16.062 -0.2232 -0.0068 -1.4488
15336TIP3   OH267422   0.449   6.088   3.219 -0.0606  0.0629  0.1746
15336TIP3    H167423   0.387   6.028   3.260  0.4918 -0.6983 -0.0818
15336TIP3    H267424   0.425   6.174   3.251 -2.2641 -0.0208 -1.1680
15337TIP3   OH267425   2.644   5.010  14.049  0.4175 -0.5258  0.0686
15337TIP3    H167426   2.723   5.054  14.016  0.1115  0.9344  1.2433
15337TIP3    H267427   2.607   4.966  13.973  3.1650 -2.4569 -0.2215
15338TIP3   OH267428   5.273   6.360   0.653  0.3636 -0.6599 -0.0299
15338TIP3    H167429   5.322   6.304   0.713 -0.1632 -1.9117 -0.7360
15338TIP3    H267430   5.339   6.405   0.601  0.7814 -1.9865 -0.6625
15339TIP3   OH267431   6.330   6.607   0.765  0.4677 -0.6394  0.0474
15339TIP3    H167432   6.375   6.586   0.683  0.6766 -0.8233  0.2079
15339TIP3    H267433   6.239   6.620   0.739  0.5354 -0.6863 -0.2172
15340TIP3   OH267434   2.762   2.932  11.888  0.0755 -0.3350 -0.4377
15340TIP3    H167435   2.783   2.854  11.940  2.1056  1.5111  1.6184
15340TIP3    H267436   2.681   2.965  11.927  0.8546  0.2693  0.6995
15341TIP3   OH267437   3.833   3.826  16.355 -0.0662  0.0626 -0.1805
15341TIP3    H167438   3.895   3.804  16.285  1.0463  2.4956 -0.0233
15341TIP3    H267439   3.783   3.900  16.320  0.5606  1.3653  1.6079
15342TIP3   OH267440   0.635   5.005   5.806  0.1330 -0.1766 -0.4559
15342TIP3    H167441   0.700   5.003   5.876  0.3056 -1.7639 -0.6475
15342TIP3    H267442   0.630   4.915   5.774 -1.2351  0.1729 -1.3023
15343TIP3   OH267443   1.979   1.220  14.954  0.0289 -0.7350 -0.3161
15343TIP3    H167444   2.010   1.163  14.883  0.8507  1.1884 -1.5538
15343TIP3    H267445   2.057   1.267  14.983 -0.4604 -0.8926  1.3302
15344TIP3   OH267446   1.243   2.437  10.907  0.5123  0.1713  0.4489
15344TIP3    H167447   1.274   2.429  10.817 -2.1211 -0.5327 -0.4380
15344TIP3    H267448   1.206   2.525  10.912  1.2259  0.4439  1.0415
15345TIP3   OH267449   5.653   0.667   1.115  0.1691  0.1589 -0.3571
15345TIP3    H167450   5.644   0.572   1.102  2.1599 -0.1100 -0.0484
15345TIP3    H267451   5.640   0.704   1.028  0.0604 -0.4592 -0.6100
15346TIP3   OH267452   3.361   6.286  16.420 -0.1057  0.4303 -0.3078
15346TIP3    H167453   3.280   6.329  16.448 -0.5458  0.3419 -1.4119
15346TIP3    H267454   3.350   6.274  16.326  1.4453  0.9557 -0.5625
15347TIP3   OH267455   4.122   2.464   4.646  0.2600 -0.0717  0.6358
15347TIP3    H167456   4.051   2.491   4.704 -0.4383 -0.7795  0.1318
15347TIP3    H267457   4.159   2.546   4.614 -0.2480  0.3052  1.0070
15348TIP3   OH267458   4.236   1.237  15.691 -0.5108  0.0266  0.3273
15348TIP3    H167459   4.306   1.172  15.681  0.1743  0.6767  0.8199
15348TIP3    H267460   4.179   1.222  15.616 -0.0834 -0.8134  0.1633
15349TIP3   OH267461   3.398   1.938  14.103  0.1809 -0.2654 -0.0379
15349TIP3    H167462   3.419   1.906  14.191  2.2617 -0.0477 -0.4543
15349TIP3    H267463   3.306   1.913  14.091  0.2937 -1.6115  1.6190
15350TIP3   OH267464   1.993   3.714  11.513 -0.4076  0.0724  0.1809
15350TIP3    H167465   1.918   3.712  11.572 -0.6455 -1.8463 -0.1415
15350TIP3    H267466   2.062   3.758  11.563 -1.0843 -0.0943  1.2830
15351TIP3   OH267467   1.058   0.915   4.784  0.1839  0.1416 -0.3110
15351TIP3    H167468   1.120   0.919   4.712  1.5702 -2.2099  0.7040
15351TIP3    H267469   0.972   0.909   4.742  0.8570  0.3548 -1.7432
15352TIP3   OH267470   3.684   0.079  16.547 -0.1101  0.4422 -0.8758
15352TIP3    H167471   3.775   0.085  16.519  0.1344 -0.3745 -0.3050
15352TIP3    H267472   3.685   0.008  16.612 -1.4217 -0.6338 -1.9941
15353TIP3   OH267473   4.518   0.470  15.668 -0.2373 -0.2159 -0.8212
15353TIP3    H167474   4.607   0.501  15.683 -0.1399 -0.5958 -0.5976
15353TIP3    H267475   4.503   0.405  15.737 -0.4176 -0.7007 -1.3102
15354TIP3   OH267476   1.846   6.489  12.053  0.0995 -0.7935 -0.1128
15354TIP3    H167477   1.784   6.503  12.125 -0.2520  0.6946 -0.6916
15354TIP3    H267478   1.801   6.521  11.975  1.0494 -1.0387 -0.7764
15355TIP3   OH267479   3.440   0.767   3.515  0.0431  0.7056  0.3984
15355TIP3    H167480   3.492   0.688   3.530 -1.7149 -0.4480  0.4945
15355TIP3    H267481   3.379   0.742   3.446 -1.5913  1.4909  1.5468
15356TIP3   OH267482   3.017   3.639  12.338  0.2614  0.0586  0.1194
15356TIP3    H167483   3.073   3.657  12.414  0.0333 -1.7313  0.7198
15356TIP3    H267484   3.010   3.724  12.294  0.9125  0.9821  1.7376
15357TIP3   OH267485   1.955   0.041   1.736 -0.3892 -0.3931  0.1670
15357TIP3    H167486   1.878   0.003   1.694  0.0700  0.9832 -1.9708
15357TIP3    H267487   2.029   0.003   1.689  0.2249 -0.5938  1.2631
15358TIP3   OH267488   4.406   0.865   1.408 -0.2568 -0.1849  0.4942
15358TIP3    H167489   4.313   0.844   1.420 -0.1602 -1.4494 -0.8161
15358TIP3    H267490   4.407   0.960   1.394 -1.4023 -0.1995  0.2116
15359TIP3   OH267491   0.033   5.073   4.541 -0.2835 -0.0167  0.3607
15359TIP3    H167492   0.017   5.167   4.538 -3.9729 -0.4867  2.0588
15359TIP3    H267493   0.045   5.054   4.635  0.7961 -1.1911 -0.0045
15360TIP3   OH267494   1.496   0.904   6.052 -0.3035 -0.6737 -0.0987
15360TIP3    H167495   1.505   0.986   6.003  0.2867 -0.6062  0.1109
15360TIP3    H267496   1.554   0.915   6.127 -2.3992 -0.1284  1.4888
15361TIP3   OH267497   5.960   0.512  15.939  0.0067 -0.1292 -0.4747
15361TIP3    H167498   5.931   0.513  15.847  1.7214  1.3931 -1.0282
15361TIP3    H267499   6.050   0.481  15.935  0.1972  0.2576  0.6731
15362TIP3   OH267500   6.262   4.182   2.599 -0.1660  0.4147  0.2436
15362TIP3    H167501   6.356   4.177   2.580  0.0391  1.0121  1.0636
15362TIP3    H267502   6.221   4.191   2.514  0.5710  0.7590 -0.0798
15363TIP3   OH267503   6.056   4.919  14.889 -0.0942  0.6476 -0.5608
15363TIP3    H167504   5.986   4.922  14.954  0.0873  0.0396 -0.3396
15363TIP3    H267505   6.128   4.969  14.928 -0.0974  0.5489 -0.4286
15364TIP3   OH267506   4.640   0.692  13.396 -0.0814  0.3765  0.4673
15364TIP3    H167507   4.583   0.640  13.340  0.7834  1.2483 -1.2754
15364TIP3    H267508   4.728   0.672  13.365  0.4084  1.0068  1.4216
15365TIP3   OH267509   2.249   3.698   1.484  0.3754 -0.5760  0.7457
15365TIP3    H167510   2.219   3.743   1.562 -0.9100 -0.1026 -0.0069
15365TIP3    H267511   2.170   3.687   1.430  1.2429 -0.8601 -0.4996
15366TIP3   OH267512   6.407   0.203   1.975 -0.3504 -0.1168  0.1470
15366TIP3    H167513   6.386   0.112   1.991  0.4063 -0.5628 -1.2915
15366TIP3    H267514   6.354   0.252   2.039 -1.7934 -1.4632  0.0078
15367TIP3   OH267515   0.278   4.747  15.189  0.1593 -0.2658  0.4001
15367TIP3    H167516   0.187   4.728  15.167  0.1382 -0.0246  0.2713
15367TIP3    H267517   0.278   4.761  15.283 -0.2739  1.5757  0.1517
15368TIP3   OH267518   5.758   3.151   6.765  0.0672  0.1974  0.0040
15368TIP3    H167519   5.668   3.119   6.776  0.1150 -0.8024 -2.3577
15368TIP3    H267520   5.752   3.217   6.697  1.2035 -0.1813 -0.4686
15369TIP3   OH267521   6.292   1.752  11.902  0.0401 -0.4223  0.1790
15369TIP3    H167522   6.342   1.814  11.956  2.8777 -0.2742 -2.4728
15369TIP3    H267523   6.297   1.669  11.950  0.7302  0.1812  1.1658
15370TIP3   OH267524   4.257   3.131  11.673 -0.5018 -0.1069 -0.0429
15370TIP3    H167525   4.244   3.204  11.733  1.0887  0.4853 -0.3975
15370TIP3    H267526   4.169   3.108  11.644 -0.9123  3.0424 -1.5283
15371TIP3   OH267527   2.743   2.177  13.866  0.6777  0.4127 -0.3174
15371TIP3    H167528   2.733   2.234  13.790  2.1477  0.9199 -0.1439
15371TIP3    H267529   2.792   2.102  13.833 -1.0868 -0.7041 -0.5008
15372TIP3   OH267530   5.755   2.907  15.978  0.1002 -0.3045  0.2002
15372TIP3    H167531   5.822   2.905  16.045 -0.5538 -2.9491  0.8483
15372TIP3    H267532   5.799   2.943  15.900  1.5477  0.3106  1.2924
15373TIP3   OH267533   5.109   3.011  14.049 -0.2253 -0.2220 -0.0657
15373TIP3    H167534   5.124   3.030  14.142  0.1611  1.1585 -0.3926
15373TIP3    H267535   5.154   3.082  14.003 -1.2935 -0.3272 -1.2848
15374TIP3   OH267536   3.336   4.038  14.566  0.3610 -0.0820 -0.0931
15374TIP3    H167537   3.352   4.024  14.659 -1.9056 -0.3161  0.3088
15374TIP3    H267538   3.307   3.953  14.534 -0.5272  0.4114 -0.6170
15375TIP3   OH267539   1.809   3.661   6.412 -0.8599  0.0216 -0.0037
15375TIP3    H167540   1.767   3.575   6.419 -2.8742  0.9869 -0.0481
15375TIP3    H267541   1.766   3.715   6.478 -0.0695  1.1877 -0.4146
15376TIP3   OH267542   3.158   0.420   4.455 -0.6915  0.1133 -0.6929
15376TIP3    H167543   3.150   0.460   4.369  1.2620  1.1863 -0.4087
15376TIP3    H267544   3.173   0.328   4.438 -2.2547 -0.0093 -1.4394
15377TIP3   OH267545   3.186   5.210  12.275  0.5221  0.4745 -0.6489
15377TIP3    H167546   3.212   5.128  12.317  1.3344  0.5688 -0.9535
15377TIP3    H267547   3.228   5.279  12.328 -0.4672  0.7126 -0.1720
15378TIP3   OH267548   1.762   5.413   0.912  0.7111 -0.0023  0.4054
15378TIP3    H167549   1.761   5.372   0.826  0.0400 -0.9681  0.8517
15378TIP3    H267550   1.827   5.363   0.962  1.4145  0.8335  0.3261
15379TIP3   OH267551   5.779   3.885   4.575  0.3503 -0.1661 -0.4918
15379TIP3    H167552   5.790   3.979   4.562 -1.2814 -0.1328 -1.8802
15379TIP3    H267553   5.864   3.847   4.552  0.4137  0.8105 -1.9450
15380TIP3   OH267554   2.110   3.953   2.857  0.2500  0.2019 -0.2454
15380TIP3    H167555   2.048   3.991   2.919  0.4461  1.4911 -0.8347
15380TIP3    H267556   2.062   3.881   2.817 -0.2921  0.1288  0.5208
15381TIP3   OH267557   5.060   2.097   5.157 -0.4934  0.4264  0.1781
15381TIP3    H167558   5.070   2.039   5.081 -0.5159  0.7995 -0.1089
15381TIP3    H267559   5.015   2.043   5.223  2.7337 -1.0918  1.2557
15382TIP3   OH267560   3.388   4.230  13.948 -0.3629  0.6685  0.2494
15382TIP3    H167561   3.462   4.170  13.945 -0.4005  0.6707 -1.0105
15382TIP3    H267562   3.329   4.199  13.880 -2.4592 -0.5099  2.5463
15383TIP3   OH267563   0.702   3.277   2.610 -0.2195  0.7060 -0.0639
15383TIP3    H167564   0.735   3.244   2.693 -0.0795 -0.8085 -0.7125
15383TIP3    H267565   0.669   3.365   2.630  0.4883  0.6313  1.4234
15384TIP3   OH267566   3.778   1.664   3.941  0.1513 -0.1188 -0.1469
15384TIP3    H167567   3.767   1.728   4.012 -0.8310  1.0496 -1.3293
15384TIP3    H267568   3.859   1.618   3.963  0.6235  1.2060  0.9746
15385TIP3   OH267569   0.219   5.851   3.762 -0.2517  0.0588 -0.3155
15385TIP3    H167570   0.170   5.877   3.684  0.0166 -1.7117 -1.1021
15385TIP3    H267571   0.195   5.760   3.776 -0.4593  0.4337  1.8211
15386TIP3   OH267572   1.271   5.340   2.348 -0.3984  0.2693 -0.5024
15386TIP3    H167573   1.259   5.248   2.326 -2.5181  0.7277 -1.3083
15386TIP3    H267574   1.192   5.383   2.317  0.4858  2.3440  0.0425
15387TIP3   OH267575   2.759   0.943  11.677  0.1800 -0.1012  0.0485
15387TIP3    H167576   2.765   0.943  11.582 -0.1419  2.3676  0.0006
15387TIP3    H267577   2.679   0.894  11.696 -0.0886 -0.0583 -0.9845
15388TIP3   OH267578   0.342   4.576  14.735  0.6433 -0.6118 -0.1287
15388TIP3    H167579   0.297   4.661  14.729  1.6111 -0.1080 -0.4035
15388TIP3    H267580   0.418   4.586  14.678  0.4602 -1.8709 -0.5912
15389TIP3   OH267581   4.790   2.034  14.569 -0.6614  0.0985 -0.0596
15389TIP3    H167582   4.748   1.978  14.503 -2.2768  2.2067 -0.8829
15389TIP3    H267583   4.815   2.113  14.521  1.9012 -0.0342  1.0076
15390TIP3   OH267584   4.529   0.931   1.658 -0.3839 -0.0274 -0.1362
15390TIP3    H167585   4.622   0.921   1.638 -0.2896 -1.5139  0.9721
15390TIP3    H267586   4.485   0.916   1.574  0.3353  0.2643 -0.5760
15391TIP3   OH267587   6.513   4.840   3.101  0.2178  0.2258  0.3649
15391TIP3    H167588   6.454   4.844   3.177  1.0686 -1.2267  1.1147
15391TIP3    H267589   6.600   4.837   3.139  0.5892 -2.1320 -0.6431
15392TIP3   OH267590   1.582   6.375   1.588  0.2287  0.0786  0.4957
15392TIP3    H167591   1.507   6.423   1.624 -0.7519 -0.7563 -0.3975
15392TIP3    H267592   1.555   6.352   1.500  0.1710 -3.2477  1.3399
15393TIP3   OH267593   2.253   3.812  14.824  0.0388 -0.3740 -0.0683
15393TIP3    H167594   2.246   3.774  14.911 -0.2585 -0.5489 -0.1680
15393TIP3    H267595   2.162   3.826  14.797  0.1051 -1.2644 -0.7686
15394TIP3   OH267596   6.598   2.717  17.145 -0.1713 -0.4269 -0.0216
15394TIP3    H167597   6.668   2.775  17.175 -1.0582  0.1720  0.9046
15394TIP3    H267598   6.574   2.752  17.059 -0.5185  0.4290  0.4170
15395TIP3   OH267599   1.034   1.676   1.275 -0.2909 -0.2968 -0.6764
15395TIP3    H167600   1.046   1.715   1.189 -0.9147  0.7140 -0.3238
15395TIP3    H267601   1.026   1.582   1.259  1.0778 -0.2678 -1.5592
15396TIP3   OH267602   4.137   0.334  16.527 -0.1444 -0.2616 -0.1450
15396TIP3    H167603   4.091   0.276  16.588  0.8309  0.0707  0.9281
15396TIP3    H267604   4.229   0.329  16.554  0.1764  0.5638 -1.0538
15397TIP3   OH267605   5.076   1.028  11.842  0.3210  0.1355  0.3017
15397TIP3    H167606   5.060   1.119  11.816  2.3138  0.8194  1.3151
15397TIP3    H267607   5.171   1.018  11.834  0.2484 -1.4796  1.3710
15398TIP3   OH267608   2.425   0.871   1.041  0.1299 -0.0074  0.4551
15398TIP3    H167609   2.422   0.778   1.063  0.2514  0.1852  1.3024
15398TIP3    H267610   2.390   0.876   0.952  2.5745 -1.1660 -0.6211
15399TIP3   OH267611   2.264   5.891  11.540 -0.0662  0.8381 -0.5659
15399TIP3    H167612   2.331   5.958  11.553 -0.9869  1.4665  1.1385
15399TIP3    H267613   2.181   5.939  11.545 -0.7129 -0.3039 -0.1498
15400TIP3   OH267614   2.392   0.381   6.663 -0.0037  0.3975  0.1201
15400TIP3    H167615   2.315   0.436   6.679  0.3685  0.7045  0.8925
15400TIP3    H267616   2.380   0.348   6.574 -0.4308  1.4034 -0.1997
15401TIP3   OH267617   1.931   2.452   1.862 -0.1002  0.6163 -0.2974
15401TIP3    H167618   1.886   2.383   1.812 -0.3330  0.9063 -0.4933
15401TIP3    H267619   2.003   2.479   1.805  0.8274 -0.4185  0.3666
15402TIP3   OH267620   1.093   4.295  14.682  0.2441  0.1156  0.1886
15402TIP3    H167621   1.157   4.271  14.615  1.3739  2.0078  0.5624
15402TIP3    H267622   1.107   4.388  14.696 -3.6491  0.9340 -0.8302
15403TIP3   OH267623   6.395   1.814  14.072  0.2170  0.4235 -0.4750
15403TIP3    H167624   6.331   1.773  14.013 -2.2267  0.0880  2.3020
15403TIP3    H267625   6.449   1.741  14.103  0.6898  0.4165 -1.3059
15404TIP3   OH267626   3.290   1.528  14.580  0.0105 -0.7330  0.0041
15404TIP3    H167627   3.383   1.547  14.588 -0.3954  1.1979  0.4296
15404TIP3    H267628   3.274   1.455  14.640  0.9984 -0.1784  0.9549
15405TIP3   OH267629   2.366   2.722   1.150  0.0260  0.1585  0.5735
15405TIP3    H167630   2.428   2.711   1.078  1.6790  0.1258  1.9657
15405TIP3    H267631   2.328   2.635   1.162  0.4080 -0.0476  0.3137
15406TIP3   OH267632   3.795   5.281  13.179  0.1415 -0.0397 -0.6519
15406TIP3    H167633   3.855   5.337  13.130 -0.3516  0.4632 -0.6908
15406TIP3    H267634   3.709   5.321  13.166 -0.4317 -1.6414 -1.8595
15407TIP3   OH267635   4.189   6.462   3.884  0.3875  0.3644 -0.1794
15407TIP3    H167636   4.229   6.450   3.970  0.6679 -1.0586 -0.5038
15407TIP3    H267637   4.222   6.547   3.854  2.2661 -0.2442  0.0706
15408TIP3   OH267638   3.570   6.369  12.517  0.3546  0.3654 -0.1346
15408TIP3    H167639   3.488   6.415  12.494  0.0873 -0.1711 -0.2614
15408TIP3    H267640   3.609   6.423  12.585  0.4050  1.1787 -0.7962
15409TIP3   OH267641   0.237   1.949   6.781  0.5649 -0.0867 -0.4483
15409TIP3    H167642   0.164   1.901   6.741 -0.2386  0.3845  0.4156
15409TIP3    H267643   0.308   1.942   6.718  0.3113 -1.9984 -0.5369
15410TIP3   OH267644   4.520   1.320   4.207 -0.2930  0.6850  0.0953
15410TIP3    H167645   4.611   1.349   4.218 -0.1296 -0.1595  1.1161
15410TIP3    H267646   4.502   1.268   4.286 -0.7069 -1.5863 -1.4502
15411TIP3   OH267647   0.227   6.264  16.996  0.1927  0.2188 -0.3046
15411TIP3    H167648   0.155   6.317  16.963 -0.3554 -0.5925 -0.4480
15411TIP3    H267649   0.289   6.327  17.031 -0.3579  0.9594 -0.6317
15412TIP3   OH267650   5.846   1.119  14.980 -0.0121  0.2436  0.0805
15412TIP3    H167651   5.853   1.074  15.064  0.1313  0.5006  0.2065
15412TIP3    H267652   5.765   1.085  14.941 -1.2886  1.7736  1.3059
15413TIP3   OH267653   0.517   1.702   0.883  0.1969 -0.2842 -0.3859
15413TIP3    H167654   0.560   1.689   0.798  0.3786 -1.4733 -0.1227
15413TIP3    H267655   0.480   1.616   0.904 -1.0958  0.3702  0.0603
15414TIP3   OH267656   0.357   2.938  15.925 -0.1960  0.0796  0.0985
15414TIP3    H167657   0.307   3.006  15.879 -0.6019  1.0371  1.9111
15414TIP3    H267658   0.294   2.902  15.989  0.7360 -0.3190  0.7980
15415TIP3   OH267659   3.729   3.591  15.552 -0.8146 -0.2327  0.1179
15415TIP3    H167660   3.721   3.591  15.647  0.6056 -0.6592  0.2495
15415TIP3    H267661   3.641   3.609  15.520 -1.4257 -0.7329  1.5067
15416TIP3   OH267662   1.368   2.642   1.854  0.1297 -0.3175 -0.3566
15416TIP3    H167663   1.362   2.631   1.759  2.5934 -0.8763 -0.4778
15416TIP3    H267664   1.372   2.736   1.868  0.1808 -0.2507 -0.8303
15417TIP3   OH267665   5.426   2.678   5.497  0.2775 -0.4736 -0.4425
15417TIP3    H167666   5.432   2.653   5.405  1.2834 -0.6535 -0.3396
15417TIP3    H267667   5.434   2.774   5.497 -0.7635 -0.3842 -0.6190
15418TIP3   OH267668   6.363   6.028   0.341  0.0745  0.3948 -0.4100
15418TIP3    H167669   6.344   6.119   0.317 -1.5643 -0.2129 -1.4673
15418TIP3    H267670   6.352   6.026   0.436 -1.2085  1.0185 -0.5285
15419TIP3   OH267671   6.551   0.687   4.532  0.3662  0.0731  0.0082
15419TIP3    H167672   6.490   0.651   4.596  0.2040  3.1329  1.6678
15419TIP3    H267673   6.636   0.652   4.558  0.0444 -0.0970  0.8528
15420TIP3   OH267674   1.436   1.766  15.961 -1.0106  0.0952  0.0834
15420TIP3    H167675   1.457   1.858  15.942 -0.1741 -0.2316 -0.5964
15420TIP3    H267676   1.488   1.716  15.899 -0.8730 -0.8702  0.9618
15421TIP3   OH267677   1.900   4.323  16.101  0.8163  0.1770  0.1444
15421TIP3    H167678   1.938   4.275  16.028  0.2376  0.2134 -0.1799
15421TIP3    H267679   1.941   4.410  16.098  2.3217 -0.4852  1.1008
15422TIP3   OH267680   2.302   1.180  16.601  0.7146  0.2363 -0.2532
15422TIP3    H167681   2.361   1.157  16.673  0.4570 -1.1307 -0.4678
15422TIP3    H267682   2.221   1.133  16.620 -0.0536  1.4909 -0.3710
15423TIP3   OH267683   1.859   5.538  10.813  0.4298 -0.0459 -0.1936
15423TIP3    H167684   1.867   5.554  10.719  1.7834 -0.9568 -0.2571
15423TIP3    H267685   1.800   5.463  10.820  0.5959 -0.1890 -0.3335
15424TIP3   OH267686   1.852   2.560  17.188 -0.0267  0.0057 -0.0221
15424TIP3    H167687   1.936   2.517  17.174 -1.0022 -2.1178  0.5351
15424TIP3    H267688   1.857   2.594  17.278  0.6368  0.8310 -0.3672
15425TIP3   OH267689   3.971   0.212   0.251 -0.2419 -0.1468  0.0630
15425TIP3    H167690   4.049   0.252   0.289 -0.2184 -0.7269  0.6334
15425TIP3    H267691   3.904   0.221   0.318 -0.0692 -1.6081  0.4489
15426TIP3   OH267692   6.602   1.393  12.715  0.1153  0.1939  0.0351
15426TIP3    H167693   6.594   1.395  12.810 -0.7039 -0.1248 -0.0256
15426TIP3    H267694   6.532   1.451  12.684 -0.0372 -0.2220 -0.3978
15427TIP3   OH267695   1.490   0.064   0.856  0.0657  0.2472 -0.0768
15427TIP3    H167696   1.561   0.103   0.907 -0.8190  1.6153  0.1417
15427TIP3    H267697   1.432   0.024   0.922  0.4147 -0.5269 -0.2282
15428TIP3   OH267698   2.751   3.065   3.867 -0.2552 -0.7172 -0.5870
15428TIP3    H167699   2.746   3.061   3.962  1.4897  0.2103 -0.4404
15428TIP3    H267700   2.842   3.090   3.848 -0.6770 -0.4953 -2.4713
15429TIP3   OH267701   0.859   3.470  13.214 -0.0881  0.0899 -0.0210
15429TIP3    H167702   0.878   3.396  13.155  0.1220  1.7929 -2.1358
15429TIP3    H267703   0.855   3.546  13.156 -0.9248  1.6539  2.0591
15430TIP3   OH267704   5.417   3.975  12.924 -0.8043  0.2880 -0.0277
15430TIP3    H167705   5.437   3.888  12.960  1.7097  0.6915 -0.3551
15430TIP3    H267706   5.423   4.034  12.998 -2.4507  0.2382  0.1796
15431TIP3   OH267707   3.575   1.079   4.332 -0.4209  0.8223 -0.0085
15431TIP3    H167708   3.531   1.006   4.289  0.9559 -0.6424  1.0392
15431TIP3    H267709   3.665   1.075   4.301 -0.2186  1.7929  0.4275
15432TIP3   OH267710   3.748   1.025  16.495  0.2176  0.1196  0.1909
15432TIP3    H167711   3.698   1.063  16.567  0.4105  0.3278  0.2157
15432TIP3    H267712   3.702   1.052  16.416  0.5983  0.7693  0.1869
15433TIP3   OH267713   0.363   0.526   2.666 -0.1950 -0.0099  0.6400
15433TIP3    H167714   0.354   0.432   2.652  1.0344 -0.1399  0.6592
15433TIP3    H267715   0.387   0.535   2.759  1.0490  0.2229  0.3057
15434TIP3   OH267716   1.269   0.839   3.432  0.1866 -0.0708 -0.2281
15434TIP3    H167717   1.293   0.847   3.340  0.5894  1.4425  0.0052
15434TIP3    H267718   1.239   0.926   3.457 -2.9404 -1.2021  0.2322
15435TIP3   OH267719   0.562   6.612  12.919  0.6519 -0.1574  0.0158
15435TIP3    H167720   0.649   6.638  12.950  0.3004  2.1465 -0.8447
15435TIP3    H267721   0.557   6.647  12.830 -0.5999 -1.5700 -0.4695
15436TIP3   OH267722   4.858   5.728   2.010  0.4702 -0.0934  0.0573
15436TIP3    H167723   4.784   5.710   1.952  0.5957 -0.9614  0.1537
15436TIP3    H267724   4.896   5.642   2.028  0.8670  0.2374  0.8510
15437TIP3   OH267725   3.775   3.998  16.081  0.2446 -0.4790 -0.2984
15437TIP3    H167726   3.845   4.062  16.065 -0.1543  0.2729  0.8888
15437TIP3    H267727   3.748   3.969  15.994 -1.2374  2.7964 -1.0101
15438TIP3   OH267728   0.893   4.437   2.943 -0.0300 -0.4940 -0.7017
15438TIP3    H167729   0.944   4.360   2.918 -0.3386 -1.0138  0.2796
15438TIP3    H267730   0.937   4.471   3.021 -1.4510 -1.2142  0.4243
15439TIP3   OH267731   1.183   2.566   1.241 -0.1965 -0.3601 -0.2674
15439TIP3    H167732   1.273   2.596   1.256 -0.7283  1.6225 -0.9213
15439TIP3    H267733   1.128   2.634   1.280 -1.4317 -1.2593 -0.4061
15440TIP3   OH267734   2.232   2.816   5.346 -0.0222  0.7680 -0.2118
15440TIP3    H167735   2.298   2.760   5.304 -1.3151 -0.8617 -0.1312
15440TIP3    H267736   2.153   2.802   5.293 -1.6593 -1.2063  2.6210
15441TIP3   OH267737   3.798   5.018   1.761 -0.0202  0.0564  0.1799
15441TIP3    H167738   3.822   5.084   1.696 -0.4136 -0.7493 -0.7967
15441TIP3    H267739   3.703   5.029   1.772  0.2280  1.0086  1.5482
15442TIP3   OH267740   4.066   1.352  11.792  0.2333  0.0951 -0.1172
15442TIP3    H167741   4.150   1.307  11.782 -0.2395 -0.5577 -1.2028
15442TIP3    H267742   4.054   1.359  11.887  1.5565  0.2825  0.0479
15443TIP3   OH267743   2.609   1.652  14.565 -0.4180  0.0254  0.6792
15443TIP3    H167744   2.562   1.584  14.614 -1.4969 -1.4126 -2.2206
15443TIP3    H267745   2.544   1.722  14.553 -0.8095 -0.4885 -0.3482
15444TIP3   OH267746   1.514   4.978  14.094  0.0437  0.3585  0.0086
15444TIP3    H167747   1.463   5.058  14.084  0.4220  0.6008 -0.0075
15444TIP3    H267748   1.469   4.929  14.163  0.1599  0.8607  0.4403
15445TIP3   OH267749   5.023   1.587   4.390  0.5245 -0.0159  0.6148
15445TIP3    H167750   4.993   1.616   4.304  0.2791  0.4040  0.8419
15445TIP3    H267751   5.015   1.665   4.446  0.9848 -0.1998  0.9405
15446TIP3   OH267752   0.706   1.586   1.893 -0.1370 -0.1971 -0.0668
15446TIP3    H167753   0.697   1.507   1.840 -0.6132 -0.4028  0.3162
15446TIP3    H267754   0.795   1.580   1.930  0.1354 -0.1309 -0.7088
15447TIP3   OH267755   5.685   1.227   1.331  0.2713  0.5159 -0.6326
15447TIP3    H167756   5.735   1.302   1.363 -0.2753  1.1836 -1.3060
15447TIP3    H267757   5.598   1.239   1.368  0.1953  0.1997 -0.7107
15448TIP3   OH267758   3.120   5.545  16.052 -0.1224 -0.1159 -0.0238
15448TIP3    H167759   3.082   5.460  16.077 -0.3611 -0.2409 -0.8056
15448TIP3    H267760   3.153   5.531  15.964  1.7655 -0.0105  0.6483
15449TIP3   OH267761   1.637   2.490   5.125 -0.4220 -0.6733  0.2381
15449TIP3    H167762   1.617   2.422   5.190 -0.2553 -0.2163  0.7780
15449TIP3    H267763   1.551   2.522   5.098 -0.5547 -2.2463 -1.2691
15450TIP3   OH267764   5.964   3.900  14.741  0.2477  0.5698 -0.7684
15450TIP3    H167765   5.883   3.941  14.771  0.3602  0.6935 -0.6307
15450TIP3    H267766   6.015   3.973  14.705  0.9976  0.7686  0.6821
15451TIP3   OH267767   3.342   0.189   5.800 -0.3014 -0.3967 -0.2898
15451TIP3    H167768   3.416   0.218   5.746  0.2934 -0.2717  0.5596
15451TIP3    H267769   3.276   0.258   5.790  0.0644 -0.0509 -0.3472
15452TIP3   OH267770   2.942   4.469   1.675  0.2460  0.1678  0.2179
15452TIP3    H167771   2.877   4.488   1.743  0.3852 -0.1012  0.4277
15452TIP3    H267772   2.895   4.483   1.593  0.0347  0.3552  0.3678
15453TIP3   OH267773   4.269   5.583  13.633  0.3780  0.0541 -0.1028
15453TIP3    H167774   4.176   5.594  13.652  0.0660  0.6705 -1.8458
15453TIP3    H267775   4.286   5.643  13.560  2.8554  2.3591  2.2044
15454TIP3   OH267776   5.245   5.858  14.219 -0.2636 -0.4550 -0.0839
15454TIP3    H167777   5.280   5.946  14.211 -1.8603  0.2136  0.2346
15454TIP3    H267778   5.260   5.818  14.133  1.5592 -0.3117  0.1317
15455TIP3   OH267779   4.907   3.523   3.228  0.2965 -0.1871  0.4618
15455TIP3    H167780   4.939   3.433   3.226  0.7078 -0.0164 -1.1116
15455TIP3    H267781   4.846   3.525   3.302 -2.1854 -2.6175 -1.3976
15456TIP3   OH267782   0.639   1.795   3.295  1.0805  0.1056 -0.3406
15456TIP3    H167783   0.613   1.821   3.384  2.8474  2.7339 -0.5194
15456TIP3    H267784   0.604   1.864   3.239  2.7409  0.2273 -1.2764
15457TIP3   OH267785   3.184   1.071  12.648 -0.5484 -0.1259  0.0685
15457TIP3    H167786   3.174   1.055  12.554 -1.5270  0.0499  0.1315
15457TIP3    H267787   3.165   0.986  12.688  0.5051 -0.3580  0.0729
15458TIP3   OH267788   0.923   3.240  12.461  0.0502 -0.5330 -0.6215
15458TIP3    H167789   0.863   3.190  12.516 -0.6571  1.4542  0.4783
15458TIP3    H267790   1.004   3.244  12.510  1.9138 -5.0749 -3.0610
15459TIP3   OH267791   4.107   4.309  10.298  0.1845 -0.6678  0.0718
15459TIP3    H167792   4.175   4.374  10.280  0.4898 -0.4531  1.8992
15459TIP3    H267793   4.154   4.225  10.301  0.5444 -0.4021  2.3041
15460TIP3   OH267794   5.021   2.074  14.809 -0.3589  0.1034  0.4200
15460TIP3    H167795   5.093   2.019  14.778 -1.0125 -0.6759  0.2566
15460TIP3    H267796   5.002   2.133  14.736 -0.7039 -0.5223  0.0044
15461TIP3   OH267797   4.899   0.777  14.941  0.4246  0.3227  0.6137
15461TIP3    H167798   4.933   0.733  15.019  1.6895 -0.1728 -0.1819
15461TIP3    H267799   4.941   0.730  14.868 -2.3975 -0.6175 -0.4457
15462TIP3   OH267800   0.425   1.978   2.313  0.6402  0.5553 -0.6033
15462TIP3    H167801   0.487   2.050   2.300  0.7722  0.3059 -1.3882
15462TIP3    H267802   0.364   2.010   2.379 -0.0555  1.8849 -1.8500
15463TIP3   OH267803   1.937   3.058   5.437  0.2068  0.3986  0.3656
15463TIP3    H167804   1.899   3.050   5.524  0.8526  1.2588  0.7409
15463TIP3    H267805   1.942   2.968   5.404  0.9242 -0.0380  1.6409
15464TIP3   OH267806   2.463   2.656   5.602  0.0967 -0.0148  0.4994
15464TIP3    H167807   2.486   2.724   5.539  3.2458 -1.1048  0.3944
15464TIP3    H267808   2.447   2.704   5.684  2.9400  0.8501  0.6002
15465TIP3   OH267809   5.401   6.620   0.614  0.0686  0.1774 -0.1957
15465TIP3    H167810   5.466   6.690   0.618  0.1045  0.1311  0.0218
15465TIP3    H267811   5.361   6.619   0.701  0.4886 -0.4742 -0.0042
15466TIP3   OH267812   5.025   1.668   2.656  0.2159 -0.9880  0.4631
15466TIP3    H167813   5.028   1.711   2.741  1.5294 -0.4027  0.1255
15466TIP3    H267814   4.973   1.726   2.600  0.9300 -0.4484  0.3551
15467TIP3   OH267815   3.830   5.151  12.838 -0.5001  0.1037  0.4939
15467TIP3    H167816   3.853   5.184  12.751 -0.7014  0.7292  0.6726
15467TIP3    H267817   3.741   5.184  12.852 -0.7621 -0.6535  0.6114
15468TIP3   OH267818   5.809   0.924  15.778 -0.4881  0.2865  0.0121
15468TIP3    H167819   5.856   0.863  15.836  0.5988 -0.5869 -1.7368
15468TIP3    H267820   5.875   0.989  15.754 -0.8609  0.4865 -0.4747
15469TIP3   OH267821   5.771   6.377  14.494  0.6295 -0.4947 -0.1183
15469TIP3    H167822   5.866   6.363  14.491  0.4679 -2.0810  1.1406
15469TIP3    H267823   5.755   6.411  14.582  0.1029  0.4549 -0.5789
15470TIP3   OH267824   1.249   4.799   2.472 -0.2811  0.0369 -0.2100
15470TIP3    H167825   1.161   4.833   2.453 -0.6212 -1.6790 -1.7991
15470TIP3    H267826   1.250   4.712   2.433  1.6041 -0.5930  1.1884
15471TIP3   OH267827   5.173   6.012   4.421  0.6613  0.1768  0.0936
15471TIP3    H167828   5.176   6.045   4.331 -0.6694  0.6816  0.2116
15471TIP3    H267829   5.264   5.993   4.443  1.1300  1.1253 -0.9654
15472TIP3   OH267830   5.836   3.661   6.526 -0.2521 -0.1751 -0.8151
15472TIP3    H167831   5.899   3.590   6.538 -1.0029 -0.6272  0.4720
15472TIP3    H267832   5.890   3.741   6.529  0.0791 -0.4635  1.9914
15473TIP3   OH267833   4.704   2.785  16.552 -0.0355 -0.0845  0.5608
15473TIP3    H167834   4.621   2.772  16.599 -0.0542  1.2879  0.9252
15473TIP3    H267835   4.683   2.850  16.484 -0.1267 -2.4072 -1.6952
15474TIP3   OH267836   4.315   1.797  15.866  0.1555  0.1399  0.1928
15474TIP3    H167837   4.298   1.728  15.929 -1.9323  0.4194 -0.0360
15474TIP3    H267838   4.265   1.872  15.898  1.1936  1.0961 -0.3713
15475TIP3   OH267839   2.190   3.897   1.924 -0.3332  0.4679 -0.1153
15475TIP3    H167840   2.211   3.984   1.957 -0.3735  0.8309 -1.0376
15475TIP3    H267841   2.191   3.906   1.829  0.8274 -0.8115 -0.2420
15476TIP3   OH267842   0.180   3.799   3.558  0.5851 -0.1214 -0.2919
15476TIP3    H167843   0.098   3.750   3.548  0.7414 -1.0526  2.3420
15476TIP3    H267844   0.199   3.834   3.471 -1.2179 -2.1061 -1.5319
15477TIP3   OH267845   3.676   1.946   2.734  0.3046  0.1308 -0.0735
15477TIP3    H167846   3.595   1.897   2.721 -0.8151  1.5825  1.1129
15477TIP3    H267847   3.689   1.993   2.652  0.9190 -1.4806 -0.9032
15478TIP3   OH267848   0.091   6.123  11.009 -0.1562  0.4805 -0.1668
15478TIP3    H167849   0.090   6.210  11.049  0.1429  0.6045 -0.4330
15478TIP3    H267850   0.092   6.139  10.915  0.0322  0.1909 -0.2159
15479TIP3   OH267851   5.779   1.058  17.030  0.0334 -0.5803  0.2775
15479TIP3    H167852   5.734   1.117  17.090  1.4928  0.2687  0.5613
15479TIP3    H267853   5.784   1.106  16.947 -1.0195 -1.3244 -0.2318
15480TIP3   OH267854   3.927   6.693  11.881 -0.1580  0.9966 -0.1428
15480TIP3    H167855   3.898   6.602  11.869  1.9456  0.7045 -3.7510
15480TIP3    H267856   4.015   6.685  11.917 -0.0039  1.6109 -0.3860
15481TIP3   OH267857   3.518   5.516  11.296  0.1948 -0.4191  0.4159
15481TIP3    H167858   3.451   5.459  11.333 -1.0167  0.3989 -0.4681
15481TIP3    H267859   3.588   5.516  11.360 -1.4106  0.1436  2.2109
15482TIP3   OH267860   5.070   2.194  17.119 -0.1517  0.2520 -0.1741
15482TIP3    H167861   5.137   2.262  17.123 -0.5804  0.7317 -0.9871
15482TIP3    H267862   5.111   2.118  17.160  1.2496  0.2281 -1.5955
15483TIP3   OH267863   1.214   6.076  12.371 -0.5464  0.7859 -0.5112
15483TIP3    H167864   1.191   6.021  12.296 -1.4453 -0.1204  0.4150
15483TIP3    H267865   1.143   6.063  12.433  1.9320 -1.3376  2.0178
15484TIP3   OH267866   2.372   4.634   2.162  0.2221 -0.1729 -0.0556
15484TIP3    H167867   2.389   4.545   2.191 -1.4317 -0.5987 -0.3850
15484TIP3    H267868   2.405   4.689   2.234  0.0973 -1.0761  0.6947
15485TIP3   OH267869   5.486   6.539   3.333  0.2370 -0.2629  0.0462
15485TIP3    H167870   5.545   6.613   3.320 -0.1789  0.1182  0.3494
15485TIP3    H267871   5.460   6.514   3.245  1.3301 -0.8205 -0.1292
15486TIP3   OH267872   3.830   5.162  17.008  0.3894 -0.6088 -0.1796
15486TIP3    H167873   3.748   5.123  17.039  0.3492 -0.6821 -0.3778
15486TIP3    H267874   3.891   5.088  17.001  0.3706 -0.6073 -0.3655
15487TIP3   OH267875   6.670   1.326   5.063  0.6085 -0.0269  0.0799
15487TIP3    H167876   6.629   1.320   5.150 -0.5230  0.6542 -0.3958
15487TIP3    H267877   6.761   1.347   5.082  0.0831  1.4864  1.0851
15488TIP3   OH267878   3.787   1.533  11.311 -0.1131 -0.4341 -0.0057
15488TIP3    H167879   3.767   1.561  11.222 -1.0087 -1.9117 -0.2763
15488TIP3    H267880   3.774   1.612  11.364  1.7490  0.8272 -1.3203
15489TIP3   OH267881   4.311   6.423   4.124 -0.0348 -0.5354 -0.0220
15489TIP3    H167882   4.382   6.368   4.156  0.4957  2.5507  4.5226
15489TIP3    H267883   4.231   6.385   4.161 -0.1139 -0.4744 -0.1304
15490TIP3   OH267884   3.929   3.708   0.518  0.2363 -0.1253  0.3445
15490TIP3    H167885   3.897   3.797   0.529 -0.9104 -0.2579 -1.5765
15490TIP3    H267886   4.013   3.718   0.473  0.1000 -0.0128  0.1152
15491TIP3   OH267887   2.053   2.246  15.568 -0.1214  0.5895 -0.1810
15491TIP3    H167888   2.123   2.304  15.599 -1.7757  1.8338  1.3571
15491TIP3    H267889   2.014   2.211  15.649 -0.2642 -1.3407 -1.0513
15492TIP3   OH267890   3.481   6.715   1.320  0.1908 -0.4261  0.1466
15492TIP3    H167891   3.462   6.755   1.235 -1.9258 -1.3830  0.1339
15492TIP3    H267892   3.429   6.765   1.383  0.4673 -0.7641  0.6487
15493TIP3   OH267893   5.855   6.118  13.500 -0.3203  0.3780  0.0156
15493TIP3    H167894   5.875   6.154  13.414 -0.6635 -1.2716 -0.7679
15493TIP3    H267895   5.928   6.059  13.518 -0.5808  0.2232  0.5682
15494TIP3   OH267896   4.863   4.248   5.476 -0.6950 -0.1113  0.0223
15494TIP3    H167897   4.815   4.328   5.494 -2.7773 -0.9666 -1.4525
15494TIP3    H267898   4.903   4.224   5.560  0.7080  2.8930  0.2764
15495TIP3   OH267899   3.660   1.279   4.969 -0.2781 -0.5970  0.3536
15495TIP3    H167900   3.614   1.275   5.053  0.2891  0.3087  0.7085
15495TIP3    H267901   3.711   1.198   4.966 -1.9712 -1.6595 -0.0909
15496TIP3   OH267902   0.808   4.752  15.376  0.5631  0.5289 -0.0734
15496TIP3    H167903   0.866   4.705  15.317  2.6603  1.3955  1.2662
15496TIP3    H267904   0.855   4.832  15.398 -1.3076  1.4400  0.7162
15497TIP3   OH267905   5.183   2.125  13.820  0.2262 -0.5088 -0.0873
15497TIP3    H167906   5.208   2.195  13.881 -0.0923  3.0655 -3.8786
15497TIP3    H267907   5.266   2.095  13.784  0.1225  0.9771 -1.6287
15498TIP3   OH267908   4.099   5.792   4.821 -0.5420  0.0030  0.1033
15498TIP3    H167909   4.192   5.786   4.801 -0.7082 -0.6387 -0.4689
15498TIP3    H267910   4.054   5.754   4.745 -1.2954  0.9175  0.0803
15499TIP3   OH267911   0.187   4.906   0.924  0.0327  0.0928  0.3518
15499TIP3    H167912   0.244   4.965   0.973  0.3396  0.9827 -1.0317
15499TIP3    H267913   0.159   4.958   0.848 -1.6958 -0.7181  0.4103
15500TIP3   OH267914   5.178   3.674   6.546  0.2867  0.3636 -0.4381
15500TIP3    H167915   5.101   3.646   6.496  0.0828  1.8470 -0.9975
15500TIP3    H267916   5.157   3.763   6.574  1.2695  0.2975  0.5289
15501TIP3   OH267917   5.467   5.869   1.135  0.3079  0.6726  0.4705
15501TIP3    H167918   5.449   5.953   1.176 -1.7927  0.6557 -0.3646
15501TIP3    H267919   5.532   5.828   1.192  0.6369  2.4437  1.4056
15502TIP3   OH267920   3.385   5.135  10.856 -0.0355 -0.0723  0.1337
15502TIP3    H167921   3.450   5.086  10.907 -0.1890 -1.0425 -0.5848
15502TIP3    H267922   3.359   5.074  10.787 -0.0194  1.1375 -0.9518
15503TIP3   OH267923   5.021   5.505   5.625  0.1071 -0.2080  0.5701
15503TIP3    H167924   5.030   5.600   5.618  0.6330 -0.2455  0.7382
15503TIP3    H267925   5.010   5.489   5.719 -1.4283 -0.1889  0.4100
15504TIP3   OH267926   1.422   3.157  16.764  0.0959  0.8056  0.1416
15504TIP3    H167927   1.390   3.068  16.748 -0.7562  0.9133  1.2053
15504TIP3    H267928   1.441   3.159  16.858 -0.4157  1.9097  0.2289
15505TIP3   OH267929   2.465   4.235  12.796 -0.2105 -0.1629 -0.1299
15505TIP3    H167930   2.424   4.300  12.853 -1.9664 -1.7892  0.5348
15505TIP3    H267931   2.424   4.152  12.822  0.5014 -1.2301 -2.3310
15506TIP3   OH267932   3.677   4.381   3.666 -0.5877 -0.0130  0.4524
15506TIP3    H167933   3.631   4.464   3.649  0.4641  0.2239 -1.3507
15506TIP3    H267934   3.743   4.404   3.731  1.7020  1.3122 -2.2169
15507TIP3   OH267935   2.023   6.341  12.412  0.3491 -0.3735  0.2910
15507TIP3    H167936   2.025   6.415  12.473  2.7509 -0.9286  0.9648
15507TIP3    H267937   2.055   6.267  12.464 -1.2662 -1.7268 -0.5924
15508TIP3   OH267938   5.645   2.252  11.821  0.6917  0.4126 -0.2886
15508TIP3    H167939   5.602   2.337  11.816 -0.1398 -0.0120 -0.3171
15508TIP3    H267940   5.605   2.207  11.895  1.0994  0.0228 -0.2953
15509TIP3   OH267941   0.077   5.304  16.495 -0.0812  0.1114 -0.0095
15509TIP3    H167942   0.052   5.216  16.468 -1.9094  0.1145  1.5649
15509TIP3    H267943   0.114   5.292  16.582 -0.2967  0.8888  0.1894
15510TIP3   OH267944   0.234   0.613   5.353  0.4093  0.0984 -0.3246
15510TIP3    H167945   0.238   0.702   5.388 -0.8118  0.0719 -0.1080
15510TIP3    H267946   0.184   0.621   5.272  1.1140 -0.2476 -0.8029
15511TIP3   OH267947   0.369   2.791  14.175 -0.4264  0.6403  1.2775
15511TIP3    H167948   0.424   2.854  14.222  1.0237  1.8319 -1.8123
15511TIP3    H267949   0.431   2.726  14.142 -1.1585  0.7166 -0.2945
15512TIP3   OH267950   0.907   3.450   3.211 -0.3831 -0.4020  0.5336
15512TIP3    H167951   0.955   3.384   3.262 -1.3633 -1.4891  0.0794
15512TIP3    H267952   0.896   3.524   3.271  0.9666 -0.5472  0.9651
15513TIP3   OH267953   2.950   4.917   1.746 -0.4509 -0.4274  0.2767
15513TIP3    H167954   2.993   4.864   1.813 -1.3296  0.3624  1.4645
15513TIP3    H267955   2.857   4.896   1.755 -0.5257 -0.7068 -1.0465
15514TIP3   OH267956   0.686   5.844   3.933 -0.4642 -0.8620 -0.1050
15514TIP3    H167957   0.723   5.932   3.939 -1.4459 -0.3876 -0.9646
15514TIP3    H267958   0.716   5.800   4.013  2.1367 -0.5712 -0.9118
15515TIP3   OH267959   0.406   6.460  17.047 -0.6968 -0.3078 -0.5462
15515TIP3    H167960   0.387   6.504  17.130 -0.6725  0.0174 -0.7111
15515TIP3    H267961   0.425   6.531  16.986 -2.1480 -0.4727 -1.2069
15516TIP3   OH267962   4.765   4.696  13.609  0.1927  0.2341 -0.2186
15516TIP3    H167963   4.762   4.789  13.586 -1.2021 -0.4380 -2.8393
15516TIP3    H267964   4.801   4.696  13.698  0.2316  3.2720 -0.1558
15517TIP3   OH267965   4.767   0.593  13.937  0.1448  0.8206  0.2561
15517TIP3    H167966   4.821   0.573  13.860  0.1169  1.5698  0.0449
15517TIP3    H267967   4.830   0.625  14.002  0.5657 -2.2937  1.4739
15518TIP3   OH267968   4.755   0.660   2.398  0.4463 -0.2805  0.4859
15518TIP3    H167969   4.740   0.580   2.448  0.1061 -0.0380  0.7777
15518TIP3    H267970   4.805   0.632   2.321  0.4364 -0.7504  0.6522
15519TIP3   OH267971   1.716   6.345   4.998  0.2603  0.3652 -0.6282
15519TIP3    H167972   1.773   6.332   5.073  1.6918 -0.7263 -1.8838
15519TIP3    H267973   1.639   6.389   5.034  0.0075 -1.9540  1.8502
15520TIP3   OH267974   4.052   1.040   3.588  0.6247 -0.5110  0.2685
15520TIP3    H167975   4.087   1.110   3.644  0.9124 -0.1352 -0.3733
15520TIP3    H267976   4.050   1.079   3.500  0.2434 -1.1200  0.0059
15521TIP3   OH267977   2.884   5.579  15.023 -0.4735  0.6591 -0.6481
15521TIP3    H167978   2.947   5.561  15.093 -0.3839  2.4165 -0.2486
15521TIP3    H267979   2.817   5.633  15.065 -1.3404  0.2543 -1.4957
15522TIP3   OH267980   3.914   2.966  17.163 -0.1323 -0.3033 -0.6585
15522TIP3    H167981   3.956   3.008  17.087 -2.2301  0.8220 -1.2459
15522TIP3    H267982   3.838   3.022  17.182 -1.3919 -2.2915  0.3223
15523TIP3   OH267983   1.778   6.109   1.876 -0.0724  0.1661 -0.0733
15523TIP3    H167984   1.701   6.155   1.844  0.8574  1.0033 -1.1808
15523TIP3    H267985   1.816   6.168   1.942  0.7815  0.7444 -1.0571
15524TIP3   OH267986   4.844   1.005  13.970  0.1610  0.0087  0.2315
15524TIP3    H167987   4.914   1.069  13.953 -0.5596  0.2423 -2.0475
15524TIP3    H267988   4.765   1.058  13.978 -0.4612 -0.5617 -1.7823
15525TIP3   OH267989   2.463   2.160   6.153 -0.0491 -0.3168  0.0288
15525TIP3    H167990   2.466   2.138   6.246 -2.1060  0.6407  0.3543
15525TIP3    H267991   2.400   2.099   6.116 -0.7230  0.5813 -0.3358
15526TIP3   OH267992   0.394   2.445   2.726 -0.1234  0.7598  0.9356
15526TIP3    H167993   0.426   2.523   2.681 -0.4462 -0.2659 -1.1767
15526TIP3    H267994   0.438   2.373   2.681 -2.5684 -0.4621  0.4054
15527TIP3   OH267995   0.650   0.334  14.629  0.1708  0.0143  0.7837
15527TIP3    H167996   0.721   0.332  14.564 -0.1687  0.9968  0.3773
15527TIP3    H267997   0.605   0.250  14.618  1.4494 -0.7477  1.2476
15528TIP3   OH267998   1.948   2.483  11.935  0.5732  0.1193  0.1933
15528TIP3    H167999   1.860   2.463  11.967  0.1126  2.3031  0.3961
15528TIP3    H268000   1.983   2.545  11.999  2.0193 -0.2228 -0.2399
15529TIP3   OH268001   5.366   2.984  14.972  0.3417 -0.0294  0.5928
15529TIP3    H168002   5.322   2.982  14.887 -1.9414  1.3021  1.6837
15529TIP3    H268003   5.357   2.895  15.006 -2.9378  0.5390  1.4258
15530TIP3   OH268004   5.603   5.622  12.285  0.6076 -0.0957 -0.4599
15530TIP3    H168005   5.608   5.664  12.371 -0.9552 -1.4926  0.3502
15530TIP3    H268006   5.694   5.609  12.259  1.1396 -2.1129  2.2476
15531TIP3   OH268007   1.511   2.532  10.766 -0.0216  0.0110 -0.2976
15531TIP3    H168008   1.501   2.627  10.768 -1.6523 -0.1157 -1.5983
15531TIP3    H268009   1.603   2.518  10.744  0.2724  1.2926  0.1042
15532TIP3   OH268010   5.282   3.789  11.292  0.4005 -0.0574  0.0618
15532TIP3    H168011   5.260   3.882  11.295 -0.5998 -0.2959  0.1930
15532TIP3    H268012   5.236   3.756  11.215  0.3075 -0.5605  0.3319
15533TIP3   OH268013   1.089   5.622   6.005  0.5176  0.0426 -0.1606
15533TIP3    H168014   1.117   5.706   6.040  0.6451 -0.6171  1.3573
15533TIP3    H268015   1.002   5.639   5.969  0.2430  0.6628  0.7797
15534TIP3   OH268016   3.415   2.428  12.542 -0.1329  0.4796 -0.0023
15534TIP3    H168017   3.498   2.462  12.509 -0.4793 -0.1924 -1.6361
15534TIP3    H268018   3.372   2.391  12.465 -0.3429 -2.4668  1.4631
15535TIP3   OH268019   5.630   5.362  13.436  0.2006 -0.2906 -0.4343
15535TIP3    H168020   5.703   5.317  13.479  0.3429  0.8768  0.5934
15535TIP3    H268021   5.671   5.437  13.393 -0.3038  0.0271 -0.3630
15536TIP3   OH268022   6.560   4.729  14.750  0.0167  0.0701 -0.1564
15536TIP3    H168023   6.633   4.703  14.694  1.4478  0.2202  1.6063
15536TIP3    H268024   6.512   4.648  14.766  0.4127 -0.2254 -0.4495
15537TIP3   OH268025   4.321   3.899  11.040 -0.5937 -0.2235  0.0206
15537TIP3    H168026   4.339   3.915  10.948 -2.8651 -0.9329 -0.5790
15537TIP3    H268027   4.299   3.806  11.044  1.6045 -0.7233  1.6556
15538TIP3   OH268028   5.011   2.228  12.434  0.3136 -0.0175 -0.2396
15538TIP3    H168029   5.083   2.244  12.495 -1.4009  0.3778  1.7341
15538TIP3    H268030   5.007   2.307  12.381  2.0841 -0.5321 -1.1612
15539TIP3   OH268031   1.668   5.549  13.482  0.3524  0.1222 -0.8377
15539TIP3    H168032   1.751   5.559  13.528  0.9002 -1.8562 -1.3288
15539TIP3    H268033   1.692   5.539  13.390 -0.4677  0.2107 -1.0684
15540TIP3   OH268034   5.848   1.422  12.777  0.2872 -0.1429  0.2205
15540TIP3    H168035   5.895   1.401  12.858 -2.3017 -2.0661  1.3176
15540TIP3    H268036   5.807   1.508  12.795 -0.2387 -0.5381  0.9683
15541TIP3   OH268037   4.796   6.207  15.354  0.8463  0.1357 -0.3180
15541TIP3    H168038   4.742   6.249  15.421  0.6827 -0.6470  0.0406
15541TIP3    H268039   4.841   6.137  15.400  0.4473 -0.6485 -1.1053
15542TIP3   OH268040   5.474   4.577   2.363 -0.1049  0.0563  0.0277
15542TIP3    H168041   5.481   4.492   2.320 -1.2692  0.8484 -1.8196
15542TIP3    H268042   5.396   4.569   2.419 -0.9167  0.2562 -1.0500
15543TIP3   OH268043   2.018   3.593  13.004 -0.0812  0.4464 -0.2053
15543TIP3    H168044   2.087   3.652  13.035 -0.5151  1.0468 -0.3688
15543TIP3    H268045   2.059   3.545  12.932  0.4682  0.1036  0.3274
15544TIP3   OH268046   0.652   1.608   4.593 -0.2041 -0.0794 -0.0253
15544TIP3    H168047   0.724   1.550   4.617 -0.9365 -1.2773 -0.7051
15544TIP3    H268048   0.638   1.662   4.671  2.2696  1.0687 -0.3182
15545TIP3   OH268049   6.555   2.888   1.256  0.2511 -0.4808  0.2321
15545TIP3    H168050   6.609   2.914   1.330  1.2896 -1.1930 -0.2699
15545TIP3    H268051   6.610   2.902   1.179 -1.3876  1.7940 -0.5710
15546TIP3   OH268052   4.059   4.809   1.582 -0.2908 -0.4235 -0.4594
15546TIP3    H168053   4.107   4.811   1.499  0.3626  1.4833 -0.0472
15546TIP3    H268054   4.013   4.893   1.585 -0.3964 -0.5287  1.0707
15547TIP3   OH268055   4.091   3.118  16.368  0.4709 -0.5614 -0.0966
15547TIP3    H168056   4.044   3.165  16.299  1.0976  0.8222  0.4089
15547TIP3    H268057   4.126   3.186  16.425 -0.2289 -1.7073  1.7318
15548TIP3   OH268058   5.552   0.518  14.233  0.2741 -0.7412 -0.3167
15548TIP3    H168059   5.474   0.561  14.199  1.6177  0.6149 -1.7618
15548TIP3    H268060   5.544   0.427  14.202 -0.0227 -0.2513 -1.7352
15549TIP3   OH268061   6.204   5.709  15.847  0.2396  0.0383 -0.0631
15549TIP3    H168062   6.219   5.616  15.865  0.0788  0.1334  0.5536
15549TIP3    H268063   6.205   5.714  15.751 -1.6953 -0.9305 -0.1624
15550TIP3   OH268064   3.222   1.576   5.258 -0.4658 -0.2642  0.1013
15550TIP3    H168065   3.280   1.564   5.333 -1.1997 -1.0306  0.5678
15550TIP3    H268066   3.176   1.658   5.276  0.4681  0.3457 -0.2725
15551TIP3   OH268067   0.269   6.203   3.635  0.3292  0.2746  0.2347
15551TIP3    H168068   0.258   6.295   3.658  3.9121  0.2468  2.5382
15551TIP3    H268069   0.333   6.204   3.564 -1.6382 -0.3352 -1.5900
15552TIP3   OH268070   3.696   2.584   3.875  0.0152  1.0087  0.9795
15552TIP3    H168071   3.735   2.670   3.863  0.0151  0.9711  0.7015
15552TIP3    H268072   3.628   2.597   3.942  0.4642  1.0827  1.4198
15553TIP3   OH268073   1.514   3.062  14.350 -0.0096  0.3990 -0.5022
15553TIP3    H168074   1.442   3.001  14.366  1.0310 -0.0975  2.5983
15553TIP3    H268075   1.478   3.148  14.372 -0.0259  0.2966 -0.1238
15554TIP3   OH268076   6.359   3.063  11.098  0.5785 -0.7790  0.0860
15554TIP3    H168077   6.264   3.068  11.084  0.5236  3.6330  1.2597
15554TIP3    H268078   6.397   3.098  11.017  1.1315 -0.9436  0.2734
15555TIP3   OH268079   0.133   2.803   2.752 -0.0838  0.2348 -0.4074
15555TIP3    H168080   0.122   2.886   2.800 -0.0836  0.2960 -0.5136
15555TIP3    H268081   0.133   2.829   2.660  2.4998  0.4166 -0.3860
15556TIP3   OH268082   4.151   5.958  14.936  0.2572 -0.6608 -0.0130
15556TIP3    H168083   4.061   5.991  14.929  0.7913  1.1099  1.0698
15556TIP3    H268084   4.141   5.866  14.958 -1.2901 -0.9430 -1.7179
15557TIP3   OH268085   6.723   4.440   0.286  0.4473  0.2970  0.9751
15557TIP3    H168086   6.753   4.356   0.251 -2.4170 -1.0726  1.6850
15557TIP3    H268087   6.705   4.422   0.378  0.9499  2.0277  1.4253
15558TIP3   OH268088   0.816   2.049  16.224 -0.1569  0.2916  0.2678
15558TIP3    H168089   0.801   2.094  16.308  0.3914  0.8585  0.0607
15558TIP3    H268090   0.910   2.054  16.211 -0.2948  0.6401 -0.6257
15559TIP3   OH268091   0.694   3.013  15.040  0.5283 -0.2487  0.1447
15559TIP3    H168092   0.640   3.027  14.963  0.7645 -1.4172 -0.2521
15559TIP3    H268093   0.755   3.086  15.041 -0.3470  0.4891 -0.0179
15560TIP3   OH268094   6.607   5.855  11.002  0.3721 -0.3198  0.4548
15560TIP3    H168095   6.690   5.816  11.028 -0.0559 -0.4375  1.6700
15560TIP3    H268096   6.567   5.791  10.945  1.9051  0.4879 -1.5853
15561TIP3   OH268097   6.489   6.509   3.966 -0.1354 -0.1832  0.1848
15561TIP3    H168098   6.520   6.496   3.876  0.2312 -0.5720  0.3712
15561TIP3    H268099   6.564   6.545   4.013  0.4392 -2.3248  0.9480
15562TIP3   OH268100   4.665   4.147   2.935  0.2542  0.2491 -0.1683
15562TIP3    H168101   4.606   4.192   2.875 -0.4835  1.4783  1.4440
15562TIP3    H268102   4.668   4.203   3.013  0.9012 -1.4790  1.0942
15563TIP3   OH268103   4.618   3.061   4.715  0.4581  0.1906  0.3470
15563TIP3    H168104   4.585   3.101   4.635  0.4726 -1.9185 -0.7500
15563TIP3    H268105   4.653   3.134   4.765 -1.1862  1.7931 -0.7481
15564TIP3   OH268106   3.528   3.804   4.325 -0.2613 -0.1309 -0.0478
15564TIP3    H168107   3.457   3.763   4.275 -0.9625  1.2012 -0.1755
15564TIP3    H268108   3.486   3.878   4.369  0.8669  0.1328  0.5921
15565TIP3   OH268109   5.488   6.265  12.456 -0.5286  0.0087 -0.1747
15565TIP3    H168110   5.441   6.226  12.530 -0.3083  2.5315  1.3629
15565TIP3    H268111   5.421   6.315  12.409 -0.2383  0.1327 -0.4565
15566TIP3   OH268112   1.814   4.555  11.364  0.1734 -0.7096 -0.0459
15566TIP3    H168113   1.768   4.489  11.312 -0.5245 -0.7972  0.6731
15566TIP3    H268114   1.826   4.629  11.304 -0.0143 -1.0720 -0.5280
15567TIP3   OH268115   6.528   3.713  17.085  0.1361  0.4826  0.1058
15567TIP3    H168116   6.476   3.746  17.158  0.8988  2.5679 -0.2448
15567TIP3    H268117   6.527   3.784  17.021  0.8186 -0.6798 -1.2335
15568TIP3   OH268118   6.582   1.316   3.375  0.2204  0.0985  0.2554
15568TIP3    H168119   6.503   1.336   3.325  0.0251  1.2683  1.0012
15568TIP3    H268120   6.649   1.297   3.309 -0.2310  0.8494 -0.4223
15569TIP3   OH268121   6.514   1.627  14.993 -0.3800  0.2351  0.3433
15569TIP3    H168122   6.523   1.562  15.062 -3.1313  0.5529  1.0298
15569TIP3    H268123   6.555   1.706  15.028 -1.5173  0.3136  1.5315
15570TIP3   OH268124   4.745   3.932  13.583 -0.1512 -1.3127 -0.5135
15570TIP3    H168125   4.735   4.016  13.538  2.1039 -0.6700  0.0984
15570TIP3    H268126   4.679   3.875  13.543 -0.7411  0.3341 -1.9469
15571TIP3   OH268127   5.283   4.223  14.214  0.2491 -0.0954  0.6968
15571TIP3    H168128   5.237   4.233  14.131  2.2942  2.7742 -0.1662
15571TIP3    H268129   5.316   4.133  14.213  0.5863  0.0398 -1.7752
15572TIP3   OH268130   6.654   0.112   3.262  0.0807 -0.3703 -0.0839
15572TIP3    H168131   6.651   0.188   3.319 -1.6421 -1.1053  0.8336
15572TIP3    H268132   6.693   0.043   3.315  0.6734 -0.4244 -0.5761
15573TIP3   OH268133   6.119   0.930  14.208  0.2401  0.0802  0.3551
15573TIP3    H168134   6.061   0.859  14.235  0.7084 -0.0511  1.0153
15573TIP3    H268135   6.078   1.009  14.244 -0.4419  0.1949 -0.6290
15574TIP3   OH268136   3.495   1.862   2.165 -0.1906 -0.2424  0.1160
15574TIP3    H168137   3.533   1.839   2.250  0.5369 -0.6800 -0.3242
15574TIP3    H268138   3.434   1.791   2.145 -0.0242 -0.3705  0.0634
15575TIP3   OH268139   6.759   4.255  13.557  0.3443  0.4480  0.1155
15575TIP3    H168140   6.768   4.321  13.626  0.4989 -1.0131  1.5291
15575TIP3    H268141   6.832   4.195  13.572 -0.8916 -1.0953  0.0588
15576TIP3   OH268142   2.012   5.677   3.174  0.0445 -0.4554 -0.2089
15576TIP3    H168143   1.926   5.649   3.144  0.2268 -0.7832 -0.4391
15576TIP3    H268144   2.057   5.596   3.197  0.5430 -0.3470 -0.7797
15577TIP3   OH268145   5.040   1.405   2.157  0.0454  0.3184  0.1535
15577TIP3    H168146   5.080   1.324   2.187  0.3418  0.6937  0.7619
15577TIP3    H268147   5.066   1.470   2.221 -0.5184  0.8168 -0.1212
15578TIP3   OH268148   5.219   3.361   0.180 -0.1258 -0.0849 -0.0718
15578TIP3    H168149   5.211   3.273   0.144  1.1620  0.3947 -1.5535
15578TIP3    H268150   5.301   3.360   0.230 -0.9316 -0.1838  1.2894
15579TIP3   OH268151   3.486   4.306   6.206 -0.2525  0.0123  0.6242
15579TIP3    H168152   3.460   4.247   6.276 -2.0993 -0.3748 -0.3723
15579TIP3    H268153   3.487   4.251   6.127 -0.5935  0.9954 -0.0684
15580TIP3   OH268154   3.211   1.020   1.350  0.4336 -0.0775  0.3892
15580TIP3    H168155   3.166   0.968   1.283 -0.0348 -0.3405  0.9072
15580TIP3    H268156   3.221   0.961   1.424 -1.2369  0.9171  1.4532
15581TIP3   OH268157   4.820   0.267   5.753 -0.2315 -0.4017 -0.4618
15581TIP3    H168158   4.883   0.196   5.745 -0.4153 -0.4651 -1.3798
15581TIP3    H268159   4.752   0.232   5.811  0.4928 -0.3772  0.4338
15582TIP3   OH268160   0.652   2.154  15.768  0.5340 -0.1368 -0.3723
15582TIP3    H168161   0.581   2.189  15.821 -0.0550 -1.7361 -0.0646
15582TIP3    H268162   0.698   2.231  15.734  0.5258  0.9255  1.9190
15583TIP3   OH268163   0.084   5.525  14.978  0.3556  0.0372 -0.3925
15583TIP3    H168164   0.075   5.606  15.028  3.2602 -0.7689  1.5586
15583TIP3    H268165   0.014   5.529  14.913 -0.9995  3.0050  1.1602
15584TIP3   OH268166   4.472   0.821   0.177 -0.3832  0.5187 -0.0874
15584TIP3    H168167   4.507   0.896   0.226 -1.4613  0.9742  0.0066
15584TIP3    H268168   4.455   0.856   0.090  0.7705 -0.0793 -0.5525
15585TIP3   OH268169   0.692   5.227   1.136  0.0412 -0.2071 -0.0173
15585TIP3    H168170   0.614   5.265   1.175  0.0042  0.9268 -1.1361
15585TIP3    H268171   0.706   5.145   1.183 -1.9390 -0.5268  0.0438
15586TIP3   OH268172   4.216   0.413  14.925  0.2716 -0.3468  0.5326
15586TIP3    H168173   4.286   0.431  14.988 -1.4345  1.7714  1.9237
15586TIP3    H268174   4.161   0.348  14.969  0.9587 -1.4827 -0.2634
15587TIP3   OH268175   2.280   0.851  16.395  0.0023 -0.2700  0.5765
15587TIP3    H168176   2.209   0.886  16.449  0.1559  1.4868 -0.3260
15587TIP3    H268177   2.345   0.921  16.393  0.8533 -1.0694 -0.3102
15588TIP3   OH268178   5.126   6.658   5.060  0.1630 -0.4204  0.1009
15588TIP3    H168179   5.060   6.607   5.107  0.9572 -1.0160  0.5708
15588TIP3    H268180   5.075   6.722   5.010 -0.7025  0.2207  1.7573
15589TIP3   OH268181   3.520   2.180  14.330  0.0838 -0.8396  0.7282
15589TIP3    H168182   3.558   2.210  14.248 -0.0104  3.0023  2.0193
15589TIP3    H268183   3.591   2.135  14.375  1.0478 -0.0723 -0.0119
15590TIP3   OH268184   4.158   4.165  11.095  0.3255  0.2522  0.2918
15590TIP3    H168185   4.064   4.148  11.098 -0.1549  2.3750 -1.4848
15590TIP3    H268186   4.197   4.084  11.062 -1.0505 -0.0776 -0.5485
15591TIP3   OH268187   1.613   6.156   2.910  0.2924  0.1742  0.2415
15591TIP3    H168188   1.697   6.109   2.917  0.2656  0.0504 -0.2835
15591TIP3    H268189   1.587   6.145   2.819 -1.3323 -1.5773  0.8807
15592TIP3   OH268190   4.119   4.056   6.606  0.0886  0.2029 -0.3008
15592TIP3    H168191   4.050   4.109   6.565  0.9459  0.4849 -1.3978
15592TIP3    H268192   4.153   4.002   6.535 -0.1491 -1.1752  0.6111
15593TIP3   OH268193   6.025   4.051  14.351  0.4791  0.6275 -0.1518
15593TIP3    H168194   6.073   4.115  14.298 -0.6457 -0.0546 -2.0635
15593TIP3    H268195   5.943   4.039  14.303  0.3043 -1.5515  0.6802
15594TIP3   OH268196   1.803   5.472  13.228  0.1516 -0.0551 -0.0336
15594TIP3    H168197   1.845   5.391  13.197 -2.1266 -1.4114  0.2870
15594TIP3    H268198   1.731   5.486  13.166  0.3248  1.5752  0.1177
15595TIP3   OH268199   4.701   6.151   1.612 -0.7279  0.3382  0.2255
15595TIP3    H168200   4.716   6.130   1.520 -1.8767  1.0736 -0.1308
15595TIP3    H268201   4.748   6.233   1.625  2.0545 -1.3097  1.1081
15596TIP3   OH268202   1.744   0.052  11.369  0.1511 -0.5718  0.6488
15596TIP3    H168203   1.769   0.141  11.347  0.4592 -0.6830  0.5582
15596TIP3    H268204   1.792  -0.003  11.308  0.7918 -0.8640  1.4027
15597TIP3   OH268205   4.042   0.619  14.423  0.1912  0.0506 -0.2833
15597TIP3    H168206   4.078   0.614  14.512  1.1659 -2.8198 -0.7949
15597TIP3    H268207   4.119   0.626  14.366 -0.4057  1.3559 -0.9702
15598TIP3   OH268208   1.525   1.729   1.841  0.3051 -0.1717 -0.4004
15598TIP3    H168209   1.536   1.634   1.835  0.1622 -0.1805 -0.5182
15598TIP3    H268210   1.536   1.761   1.751  1.3036  0.0246 -0.2160
15599TIP3   OH268211   6.366   3.598  12.991  0.6545 -0.6638 -0.5009
15599TIP3    H168212   6.441   3.653  12.968 -1.2936  3.0290  1.5535
15599TIP3    H268213   6.318   3.587  12.909  1.5853 -0.0932 -1.1299
15600TIP3   OH268214   5.911   6.141  12.346 -0.7586  0.4674 -0.3645
15600TIP3    H168215   5.891   6.221  12.297  0.7340  0.7188 -0.5794
15600TIP3    H268216   5.832   6.088  12.339 -0.1843  0.0214 -3.9672
15601TIP3   OH268217   4.583   1.277   4.695  0.6828 -0.0076  0.5998
15601TIP3    H168218   4.583   1.369   4.670  0.1042  0.1811  1.3263
15601TIP3    H268219   4.645   1.272   4.768 -1.4810  0.3156  2.4958
15602TIP3   OH268220   2.725   2.974  15.430  0.5164 -0.4704 -0.0486
15602TIP3    H168221   2.808   2.972  15.478  0.8292  0.0017 -0.5716
15602TIP3    H268222   2.723   3.059  15.388 -0.1798 -0.5297 -0.1470
15603TIP3   OH268223   6.161   2.323   4.838  0.1277 -0.1556 -0.0477
15603TIP3    H168224   6.136   2.243   4.790 -0.1571 -0.3262  0.3895
15603TIP3    H268225   6.253   2.308   4.861  0.2610 -0.0842 -0.5167
15604TIP3   OH268226   2.663   2.990  13.604  0.5093 -0.3913  0.1142
15604TIP3    H168227   2.606   2.915  13.617  0.5538 -0.8092 -1.8989
15604TIP3    H268228   2.624   3.060  13.657 -1.6106 -0.8012 -0.8548
15605TIP3   OH268229   0.579   6.639  11.925 -0.1256  0.2214 -0.0388
15605TIP3    H168230   0.646   6.587  11.881  1.1925  0.7837  1.2674
15605TIP3    H268231   0.618   6.726  11.934 -0.7904  0.4023  1.2558
15606TIP3   OH268232   1.604   0.748   1.257 -0.6531  0.5639 -0.0782
15606TIP3    H168233   1.612   0.688   1.182 -1.4437  0.8919 -0.4253
15606TIP3    H268234   1.695   0.768   1.281 -0.3826 -1.3392  0.5017
15607TIP3   OH268235   0.084   0.040  11.275 -0.1037  0.1438 -0.2005
15607TIP3    H168236   0.169   0.005  11.247  1.0297  1.6253  1.2699
15607TIP3    H268237   0.104   0.091  11.354 -2.2464  1.1408 -0.2624
15608TIP3   OH268238   6.567   3.957   5.802 -0.3677 -0.1927 -0.0625
15608TIP3    H168239   6.586   3.971   5.894  0.5449  1.4315 -0.4794
15608TIP3    H268240   6.652   3.936   5.762 -0.5282  0.4438 -0.7572
15609TIP3   OH268241   1.835   0.476  14.746 -0.0198 -0.2630  0.0960
15609TIP3    H168242   1.910   0.531  14.765  0.5095 -0.8488 -0.2820
15609TIP3    H268243   1.761   0.536  14.744  0.0211 -0.0477  3.0754
15610TIP3   OH268244   6.301   3.149   3.171 -0.3927  0.1307 -0.1057
15610TIP3    H168245   6.339   3.224   3.126  1.1090 -1.1710 -1.0555
15610TIP3    H268246   6.252   3.103   3.103  0.3092 -0.8033  0.0099
15611TIP3   OH268247   1.019   5.366   1.964 -0.0467 -0.1487 -0.0175
15611TIP3    H168248   1.084   5.418   1.917  0.4877  1.6671  2.6279
15611TIP3    H268249   0.951   5.429   1.988  0.3726 -0.7235  2.7983
15612TIP3   OH268250   1.839   1.142  15.232 -0.7451 -0.2293  0.2371
15612TIP3    H168251   1.809   1.224  15.270 -0.0441  0.0995  0.0822
15612TIP3    H268252   1.805   1.143  15.142 -2.1679 -0.8810  0.7411
15613TIP3   OH268253   1.401   3.475  14.318 -0.1688 -0.1400  0.4119
15613TIP3    H168254   1.427   3.437  14.402 -0.7418 -1.9075 -0.1764
15613TIP3    H268255   1.482   3.483  14.268  0.1634  0.8533  1.0962
15614TIP3   OH268256   4.194   5.002   1.384  0.6870 -0.0319  0.1683
15614TIP3    H168257   4.244   4.932   1.343 -1.5889  0.0205 -2.8276
15614TIP3    H268258   4.214   5.080   1.332  0.6101  0.8719  1.4530
15615TIP3   OH268259   0.194   2.981  13.647 -0.9627  0.1181  0.5587
15615TIP3    H168260   0.170   3.040  13.576 -1.1971  1.2803  1.5832
15615TIP3    H268261   0.289   2.971  13.639 -1.1869 -1.0913 -0.9067
15616TIP3   OH268262   4.869   3.878   4.789  0.2288 -0.6505 -0.3625
15616TIP3    H168263   4.883   3.795   4.835  0.8259 -1.1971 -1.5090
15616TIP3    H268264   4.878   3.944   4.857  0.2042 -1.4968  0.4836
15617TIP3   OH268265   1.899   6.270  13.839  0.0376  0.3095 -0.3030
15617TIP3    H168266   1.965   6.255  13.771  0.0822  1.5258 -0.5478
15617TIP3    H268267   1.850   6.188  13.843  1.6791 -0.6821  0.0228
15618TIP3   OH268268   6.657   0.274   0.072  0.2020  0.1205  0.0855
15618TIP3    H168269   6.656   0.253  -0.021 -1.4144 -0.7428  0.2712
15618TIP3    H268270   6.621   0.363   0.077 -1.0550 -0.3701 -0.0135
15619TIP3   OH268271   1.099   0.534   4.335  0.4018  0.2089 -0.6754
15619TIP3    H168272   1.020   0.479   4.334 -1.1489  2.4026 -0.8710
15619TIP3    H268273   1.085   0.599   4.266  1.7782  1.4473  0.1799
15620TIP3   OH268274   3.325   4.845   1.723 -0.0757  0.4099  0.0642
15620TIP3    H168275   3.367   4.848   1.637 -0.7048  3.0668 -0.2159
15620TIP3    H268276   3.242   4.801   1.708  0.4818 -0.4953 -0.3827
15621TIP3   OH268277   4.509   0.489  11.292  0.4005 -0.7833 -0.2039
15621TIP3    H168278   4.530   0.569  11.244 -0.4187 -0.8200 -0.6418
15621TIP3    H268279   4.425   0.460  11.254  0.9349 -2.1139 -0.4181
15622TIP3   OH268280   0.877   5.893   1.011 -0.1165  0.7176 -0.1797
15622TIP3    H168281   0.813   5.882   1.081  0.5837  0.1829  0.3781
15622TIP3    H268282   0.957   5.922   1.055  0.5193 -0.2435 -0.6768
15623TIP3   OH268283   5.165   0.644  15.764  0.6123 -0.2878 -0.3952
15623TIP3    H168284   5.245   0.658  15.815  0.0012  1.9568 -0.0192
15623TIP3    H268285   5.159   0.549  15.755  1.2948 -0.6644  2.8058
15624TIP3   OH268286   4.360   1.101   0.103  0.5781 -0.8692  0.3046
15624TIP3    H168287   4.367   1.188   0.143 -0.0430 -0.0685 -1.3056
15624TIP3    H268288   4.298   1.054   0.158 -0.0021  0.1062  0.4844
15625TIP3   OH268289   4.008   5.403  12.138 -0.3265 -0.2692  0.2056
15625TIP3    H168290   4.050   5.372  12.218  2.0678  0.9794 -0.5053
15625TIP3    H268291   4.077   5.452  12.092 -2.2858  0.9482 -1.5362
15626TIP3   OH268292   0.909   3.622   1.898 -0.3530  0.1122  0.0197
15626TIP3    H168293   0.900   3.608   1.992  0.3789 -1.0379 -0.0775
15626TIP3    H268294   0.849   3.694   1.879 -0.6124  0.2569  1.3391
15627TIP3   OH268295   3.603   2.451  14.484 -0.3075  0.5036  0.3493
15627TIP3    H168296   3.583   2.541  14.510 -0.4633  0.4202  0.5296
15627TIP3    H268297   3.615   2.455  14.389  2.0270  1.1222  0.6475
15628TIP3   OH268298   1.484   6.469  11.023 -0.6355  0.1140  0.2701
15628TIP3    H168299   1.465   6.385  10.981 -1.0887 -0.4901  1.6545
15628TIP3    H268300   1.421   6.530  10.985 -0.4386 -0.2142 -0.5941
15629TIP3   OH268301   0.776   6.652  11.366  0.0328 -0.4580 -0.5357
15629TIP3    H168302   0.682   6.638  11.378 -0.2684  0.4241 -1.7802
15629TIP3    H268303   0.792   6.635  11.274  1.0249 -0.2367 -0.4150
15630TIP3   OH268304   1.455   6.039   3.123  0.7450  0.2049 -0.7100
15630TIP3    H168305   1.499   6.093   3.057 -0.0257  2.1117  0.3119
15630TIP3    H268306   1.523   5.979   3.154  2.0701  1.6968 -0.6572
15631TIP3   OH268307   2.381   4.688   2.837 -0.3644  0.0167 -0.2824
15631TIP3    H168308   2.450   4.702   2.772  0.0403 -1.1946 -0.1100
15631TIP3    H268309   2.312   4.642   2.789 -0.7272  0.5179 -0.2487
15632TIP3   OH268310   3.104   1.458   0.667  0.1862 -0.1937 -0.2111
15632TIP3    H168311   3.060   1.503   0.595 -0.2723  0.6330  0.5720
15632TIP3    H268312   3.033   1.438   0.729  0.5496 -1.0379 -0.0624
15633TIP3   OH268313   0.213   0.483   4.759  0.1713 -0.0674 -0.1680
15633TIP3    H168314   0.254   0.527   4.833 -0.8984  0.1869  0.2850
15633TIP3    H268315   0.268   0.405   4.744  1.7246  1.0899 -0.6012
15634TIP3   OH268316   2.131   3.224  16.852 -0.5604  0.1228  0.0316
15634TIP3    H168317   2.218   3.232  16.892 -0.0372 -2.1999 -0.5114
15634TIP3    H268318   2.070   3.225  16.925 -0.2978  3.8786  0.2918
15635TIP3   OH268319   2.242   0.715   1.870  0.2406  1.1187  0.0950
15635TIP3    H168320   2.328   0.675   1.855 -0.1579 -0.2741  1.4479
15635TIP3    H268321   2.251   0.762   1.952 -0.3809  0.6878  0.4134
15636TIP3   OH268322   2.368   1.668   1.071  0.4442  0.0337 -0.2204
15636TIP3    H168323   2.442   1.610   1.089  0.1348 -0.3505 -0.1716
15636TIP3    H268324   2.346   1.649   0.979 -0.4151 -0.8032  0.1424
15637TIP3   OH268325   0.763   1.509   3.565 -0.1012  0.2721 -0.1459
15637TIP3    H168326   0.747   1.593   3.608 -2.1672 -0.2815  0.1963
15637TIP3    H268327   0.703   1.448   3.607  0.2171 -1.0184 -1.5179
15638TIP3   OH268328   2.136   2.355   4.927  0.0054 -0.2068 -0.0831
15638TIP3    H168329   2.106   2.329   5.014  1.1288  1.1133  0.7116
15638TIP3    H268330   2.096   2.291   4.868  0.2695 -1.9029  1.5176
15639TIP3   OH268331   5.029   6.166  16.935 -0.3005 -0.3840  0.4333
15639TIP3    H168332   5.012   6.089  16.880 -1.0933  0.5365 -0.6234
15639TIP3    H268333   5.105   6.140  16.988  1.0486 -0.9911 -1.7182
15640TIP3   OH268334   1.977   6.117  12.616 -0.3132  0.2933  0.2917
15640TIP3    H168335   1.919   6.041  12.614 -0.0687  0.1091  0.1188
15640TIP3    H268336   2.002   6.126  12.708 -0.9472  0.6291  0.4326
15641TIP3   OH268337   2.343   5.273  10.430 -0.4214 -0.1204 -0.3876
15641TIP3    H168338   2.326   5.180  10.411  0.5642  0.1947 -3.0931
15641TIP3    H268339   2.439   5.279  10.432 -0.4824  0.7735  0.2423
15642TIP3   OH268340   5.516   1.960  15.874  0.5462 -0.3440  0.2830
15642TIP3    H168341   5.603   1.941  15.907  0.2122  1.0362  2.0182
15642TIP3    H268342   5.530   2.030  15.809  0.7101  0.0640  0.7548
15643TIP3   OH268343   4.852   2.309   0.019 -0.4196  0.2244  0.4055
15643TIP3    H168344   4.907   2.383   0.046 -0.6616 -0.4195  2.7969
15643TIP3    H268345   4.903   2.265  -0.048  2.3272 -0.7087  2.9863
15644TIP3   OH268346   6.208   5.072   2.290 -0.5384  0.2939  0.8381
15644TIP3    H168347   6.160   5.013   2.349  1.1892 -0.6042  1.3565
15644TIP3    H268348   6.148   5.145   2.276 -2.8042 -1.6231  0.0615
15645TIP3   OH268349   1.729   4.869  11.997  0.0509 -0.5486 -0.1712
15645TIP3    H168350   1.657   4.908  11.947 -1.7392 -1.8598  1.3318
15645TIP3    H268351   1.763   4.941  12.050 -0.8499 -0.1689 -0.1031
15646TIP3   OH268352   1.664   4.634   1.336  0.5103  0.1312  0.2187
15646TIP3    H168353   1.661   4.729   1.334 -0.5300  0.0956 -0.3802
15646TIP3    H268354   1.585   4.608   1.383  0.0462 -0.4616 -0.8543
15647TIP3   OH268355   1.191   3.266   5.223  0.1829 -1.0019  0.2300
15647TIP3    H168356   1.121   3.332   5.215  0.0210 -1.3422 -1.3245
15647TIP3    H268357   1.179   3.229   5.310 -0.9639 -0.3531  0.3608
15648TIP3   OH268358   5.506   4.880   4.801 -0.3022 -0.4041 -0.3439
15648TIP3    H168359   5.484   4.968   4.832 -0.8325 -0.1924 -1.2862
15648TIP3    H268360   5.589   4.891   4.754 -0.8748 -0.2017 -1.3339
15649TIP3   OH268361   3.068   0.498  15.008  0.0122  0.4252 -0.7314
15649TIP3    H168362   2.990   0.446  14.987  0.4256  0.1670 -1.6395
15649TIP3    H268363   3.033   0.580  15.045 -0.7316  0.8214 -2.2787
15650TIP3   OH268364   6.760   2.910   1.427 -0.6156 -0.1309  0.0961
15650TIP3    H168365   6.785   2.997   1.456  0.7347 -0.8982  1.2827
15650TIP3    H268366   6.739   2.862   1.507 -0.0037 -1.2972 -0.4164
15651TIP3   OH268367   3.566   0.699   2.799  0.1361 -0.0987 -0.3980
15651TIP3    H168368   3.600   0.612   2.821  1.8022  1.0176  1.5606
15651TIP3    H268369   3.471   0.688   2.799  0.3546 -2.1890 -1.3159
15652TIP3   OH268370   3.126   1.052   5.420 -0.1850  0.0414  0.2369
15652TIP3    H168371   3.079   1.058   5.337 -1.1027  1.0779  0.8144
15652TIP3    H268372   3.183   1.130   5.421 -0.8543  0.5240  0.9854
15653TIP3   OH268373   6.528   2.618  11.227  0.0927 -0.4440 -0.0677
15653TIP3    H168374   6.560   2.684  11.289 -1.5979 -0.0028  0.3686
15653TIP3    H268375   6.605   2.564  11.207  0.5218 -1.0247  2.9239
15654TIP3   OH268376   5.545   0.074  14.841  0.1763  0.0360 -0.1295
15654TIP3    H168377   5.591  -0.006  14.865 -0.0869  0.4294  1.6944
15654TIP3    H268378   5.461   0.069  14.886  0.0356  1.1842 -0.2514
15655TIP3   OH268379   3.434   4.369   0.645 -0.4502  0.7803  0.3883
15655TIP3    H168380   3.442   4.354   0.739  1.2460 -0.6215  0.0330
15655TIP3    H268381   3.439   4.282   0.606 -0.0179  1.4470 -1.0776
15656TIP3   OH268382   3.096   3.018  15.766  0.2383 -0.1330 -0.1167
15656TIP3    H168383   3.047   3.042  15.845  1.8713 -0.2019  0.9327
15656TIP3    H268384   3.167   3.083  15.761 -0.5135  0.5946 -2.1890
15657TIP3   OH268385   1.159   3.231  16.197  0.0106  0.5732 -0.7625
15657TIP3    H168386   1.201   3.295  16.255 -1.8560  0.1014  1.1887
15657TIP3    H268387   1.187   3.146  16.231 -0.5919  0.2977 -0.9512
15658TIP3   OH268388   0.529   0.781   5.191 -0.4223  0.0487  0.0094
15658TIP3    H168389   0.447   0.828   5.175 -0.1733  0.3610 -0.3712
15658TIP3    H268390   0.593   0.825   5.134  0.1688  0.2729  0.8473
15659TIP3   OH268391   1.526   1.912  15.606 -0.4911  0.1901  0.3395
15659TIP3    H168392   1.464   1.846  15.575 -0.1020  0.3802 -0.8764
15659TIP3    H268393   1.492   1.939  15.691 -1.4512 -0.5300  0.1929
15660TIP3   OH268394   1.443   4.951   5.909  0.1747 -0.1099 -0.1685
15660TIP3    H168395   1.471   4.880   5.851  1.6651  0.6397 -0.3936
15660TIP3    H268396   1.479   4.927   5.995  1.7254  0.9545 -0.4999
15661TIP3   OH268397   3.162   4.787   6.528 -0.2777 -0.1650 -0.3684
15661TIP3    H168398   3.155   4.881   6.547  0.1751 -0.4433  1.3217
15661TIP3    H268399   3.076   4.763   6.494 -0.9259  0.5457  0.7159
15662TIP3   OH268400   0.370   1.816   0.500  0.4087 -0.1153  0.0493
15662TIP3    H168401   0.310   1.807   0.574  1.8907  0.4626  1.3281
15662TIP3    H268402   0.371   1.729   0.460  0.0824 -0.5958  1.0688
15663TIP3   OH268403   3.501   2.594  13.379  0.2922  0.6661  0.0181
15663TIP3    H168404   3.547   2.635  13.452 -0.2884 -0.3347  0.9601
15663TIP3    H268405   3.412   2.580  13.411 -0.4930  1.9624 -1.5591
15664TIP3   OH268406   4.581   2.464  16.229  0.1417  0.3245  0.0490
15664TIP3    H168407   4.575   2.380  16.275 -1.4714 -0.3962 -1.4156
15664TIP3    H268408   4.658   2.456  16.173  0.1044 -0.1148  0.0582
15665TIP3   OH268409   0.569   4.056   3.042  0.0023 -0.1447  0.0789
15665TIP3    H168410   0.551   4.072   3.134  2.3893  0.1309  0.5490
15665TIP3    H268411   0.516   4.121   2.995 -3.3881 -2.0957  1.0378
15666TIP3   OH268412   0.320   1.828   5.944 -0.0319  0.1854 -0.1055
15666TIP3    H168413   0.309   1.733   5.955 -0.5321  0.2427 -0.1213
15666TIP3    H268414   0.238   1.866   5.974 -0.1730  0.5588 -0.9611
15667TIP3   OH268415   3.769   3.501   2.034 -0.3737  0.6231 -0.4515
15667TIP3    H168416   3.813   3.531   2.114 -1.2230  0.9474 -0.0939
15667TIP3    H268417   3.832   3.517   1.964  0.8993 -0.9374  0.3325
15668TIP3   OH268418   0.348   6.742  16.574 -0.6725  0.2312 -0.1301
15668TIP3    H168419   0.369   6.696  16.492 -2.3560 -0.2405 -0.3061
15668TIP3    H268420   0.327   6.672  16.636 -0.4435  0.6470  0.4200
15669TIP3   OH268421   2.986   1.298  10.629  0.2996  0.5585  0.5910
15669TIP3    H168422   2.928   1.252  10.568  0.2370  0.4944  0.6976
15669TIP3    H268423   2.961   1.390  10.621  0.0401  0.5053  0.7900
15670TIP3   OH268424   1.105   1.325   6.025 -0.6206  0.1551 -0.4148
15670TIP3    H168425   1.043   1.394   6.050  0.0674  0.3924  0.6719
15670TIP3    H268426   1.091   1.256   6.089  1.7204  1.1001  1.2243
15671TIP3   OH268427   2.508   4.599  12.178  0.5011  0.0839 -0.5203
15671TIP3    H168428   2.534   4.509  12.160  1.0006 -0.0975  1.0259
15671TIP3    H268429   2.590   4.649  12.174  0.3930  0.2844 -0.2797
15672TIP3   OH268430   6.247   1.999   3.535 -0.1574 -0.2664 -0.2633
15672TIP3    H168431   6.207   2.010   3.622 -0.5109  0.0979 -0.4695
15672TIP3    H268432   6.237   1.906   3.515  0.2273 -0.4147  0.2339
15673TIP3   OH268433   3.402   6.593  15.885  0.0593  0.2741 -0.7633
15673TIP3    H168434   3.450   6.614  15.965  0.3934  0.5152 -1.0287
15673TIP3    H268435   3.313   6.574  15.915  0.5082 -0.9809 -0.1762
15674TIP3   OH268436   5.155   6.545   5.384 -0.9989 -0.2007  0.4480
15674TIP3    H168437   5.116   6.614   5.330  0.0637 -2.1122 -2.8545
15674TIP3    H268438   5.105   6.466   5.363  1.0708 -1.5220  0.3244
15675TIP3   OH268439   2.219   4.501  16.889 -0.0930  0.0715  0.2331
15675TIP3    H168440   2.242   4.546  16.970 -2.7657  1.6712  0.1763
15675TIP3    H268441   2.207   4.572  16.825  0.0028 -1.0329 -1.0300
15676TIP3   OH268442   2.366   0.755  15.690  0.4539  0.2767  0.0828
15676TIP3    H168443   2.312   0.831  15.709 -0.7543 -0.2459 -1.1111
15676TIP3    H268444   2.410   0.777  15.607 -0.1604 -0.4368 -0.4422
15677TIP3   OH268445   3.503   2.479   4.972 -0.3537  0.0670 -0.3406
15677TIP3    H168446   3.556   2.402   4.993 -1.6713 -0.5849  0.6496
15677TIP3    H268447   3.487   2.473   4.878 -0.7632 -1.0679 -0.2009
15678TIP3   OH268448   1.105   2.439  14.392 -0.2176  0.7877 -0.7672
15678TIP3    H168449   1.166   2.454  14.465 -0.5464 -1.8615  0.1201
15678TIP3    H268450   1.162   2.430  14.315  0.3719  0.6172 -0.3196
15679TIP3   OH268451   3.158   1.237  13.653 -0.1398  0.1594 -0.0356
15679TIP3    H168452   3.143   1.142  13.656 -0.5592  0.2077 -0.5734
15679TIP3    H268453   3.117   1.270  13.733 -1.3881  0.0769 -0.6286
15680TIP3   OH268454   5.002   3.372   4.672 -0.2895 -0.4688 -0.0145
15680TIP3    H168455   5.096   3.384   4.669 -0.4189 -0.0373 -3.2075
15680TIP3    H268456   4.967   3.455   4.705  0.2050  0.8930 -2.7802
15681TIP3   OH268457   2.009   5.174  12.868  0.2487  0.3333 -0.1574
15681TIP3    H168458   1.967   5.104  12.917  2.1841 -1.1051 -0.5167
15681TIP3    H268459   1.962   5.177  12.785 -0.1408 -0.2264  0.0443
15682TIP3   OH268460   6.412   4.734  15.584 -0.3021 -0.8371 -0.5582
15682TIP3    H168461   6.330   4.761  15.625 -0.2792 -1.4214 -0.1254
15682TIP3    H268462   6.401   4.757  15.492 -0.4250  0.3064 -0.2568
15683TIP3   OH268463   4.964   1.167   0.038  0.1827 -0.3239  0.5197
15683TIP3    H168464   4.955   1.163  -0.057  1.5270  1.8203  0.2758
15683TIP3    H268465   4.908   1.097   0.070 -0.8117 -0.6413 -1.8221
15684TIP3   OH268466   5.888   2.817   4.545  0.1007  0.6103 -0.4181
15684TIP3    H168467   5.974   2.775   4.551  0.1249  0.7577  0.4023
15684TIP3    H268468   5.841   2.786   4.622 -0.1267  1.5359 -0.1762
15685TIP3   OH268469   0.009   0.320  15.204  0.2613 -0.0314  0.1251
15685TIP3    H168470  -0.038   0.367  15.273 -0.5421  0.3029 -0.6293
15685TIP3    H268471  -0.056   0.309  15.135  0.8408 -1.0428 -0.2623
15686TIP3   OH268472   5.774   1.483  13.757 -0.1856 -0.0652 -0.4411
15686TIP3    H168473   5.703   1.530  13.714  0.5378  0.6797 -0.8466
15686TIP3    H268474   5.783   1.527  13.842 -0.1231 -0.0675 -0.4458
15687TIP3   OH268475   1.747   2.634  13.110  0.0944 -0.3755 -0.0063
15687TIP3    H168476   1.660   2.634  13.150 -0.1380  2.2278 -0.4153
15687TIP3    H268477   1.730   2.649  13.017  1.0002  0.6555 -0.0164
15688TIP3   OH268478   2.372   3.200  16.981 -0.4073 -0.0729  0.3202
15688TIP3    H168479   2.425   3.175  16.905 -0.5354  1.4075 -0.2796
15688TIP3    H268480   2.325   3.120  17.005 -1.4138 -0.2468 -2.0227
15689TIP3   OH268481   2.132   1.858   0.192  0.1004  0.3392  0.1917
15689TIP3    H168482   2.163   1.891   0.108 -2.5271 -0.5272 -1.1752
15689TIP3    H268483   2.060   1.916   0.216 -1.0851 -1.1636  0.3793
15690TIP3   OH268484   4.764   2.879  15.628  0.2776 -0.5967  0.3029
15690TIP3    H168485   4.817   2.800  15.619 -0.0142 -1.0958  2.6706
15690TIP3    H268486   4.811   2.932  15.693 -0.8625  0.0123  0.6469
15691TIP3   OH268487   2.115   2.668   2.004 -0.3252 -0.7019 -0.1877
15691TIP3    H168488   2.171   2.742   2.029 -0.4058 -0.8660  0.5131
15691TIP3    H268489   2.111   2.671   1.909  1.7039 -1.2976 -0.2974
15692TIP3   OH268490   3.600   0.222   0.874  0.3029  0.0713 -0.0287
15692TIP3    H168491   3.589   0.163   0.800 -0.0598  0.2401 -0.1109
15692TIP3    H268492   3.526   0.282   0.869  1.0819  1.0209 -0.3959
15693TIP3   OH268493   4.718   6.462   5.331  0.2193 -0.3246  0.2015
15693TIP3    H168494   4.760   6.527   5.386 -1.3405  1.0984 -0.2551
15693TIP3    H268495   4.751   6.480   5.243 -1.9281  1.3509 -0.3039
15694TIP3   OH268496   0.272   3.216   2.016 -0.6227 -0.6214  0.1951
15694TIP3    H168497   0.282   3.298   2.065 -1.7381 -1.2646  1.5333
15694TIP3    H268498   0.202   3.233   1.954  0.4290  0.0241 -0.8472
15695TIP3   OH268499   1.596   0.300  13.344  0.0967 -0.0999 -0.5761
15695TIP3    H168500   1.613   0.394  13.345  3.9045 -0.7306  0.2071
15695TIP3    H268501   1.514   0.291  13.295 -0.6097  3.6279 -0.2240
15696TIP3   OH268502   4.376   3.797  11.374  0.0579  0.1449  0.3250
15696TIP3    H168503   4.390   3.882  11.416  1.6826  0.3803 -0.6556
15696TIP3    H268504   4.461   3.776  11.334 -0.3562 -1.8823  0.4674
15697TIP3   OH268505   4.343   3.874  12.531  0.3485  0.8514 -0.7281
15697TIP3    H168506   4.401   3.803  12.503 -0.0386  0.6871 -1.1016
15697TIP3    H268507   4.401   3.933  12.580  0.2286 -0.9001  1.6583
15698TIP3   OH268508   0.597   1.712   2.647  0.4342 -0.0993  0.6828
15698TIP3    H168509   0.595   1.700   2.552 -3.9978  0.9851  0.5237
15698TIP3    H268510   0.568   1.802   2.661 -0.3108 -0.6698  3.1237
15699TIP3   OH268511   5.844   1.799  12.417  0.5777 -0.1424  0.3268
15699TIP3    H168512   5.844   1.757  12.503  0.1765 -0.6443  0.0888
15699TIP3    H268513   5.801   1.883  12.432  0.9519 -0.0167  0.7134
15700TIP3   OH268514   3.207   6.705   3.673  0.3897  0.6254 -0.1752
15700TIP3    H168515   3.302   6.721   3.671  0.2920  1.3345  0.5043
15700TIP3    H268516   3.195   6.636   3.738  0.8314 -2.4934 -3.2454
15701TIP3   OH268517   3.896   1.867   2.238 -0.0559 -0.2924 -0.2783
15701TIP3    H168518   3.876   1.838   2.328  0.4808  1.4682  0.4293
15701TIP3    H268519   3.836   1.939   2.222  0.4660 -0.0125 -1.0113
15702TIP3   OH268520   0.520   0.399   3.398  0.4440  0.7903 -0.3290
15702TIP3    H168521   0.576   0.472   3.373  2.2151  1.2048  4.3286
15702TIP3    H268522   0.439   0.440   3.427 -0.1525  0.5634 -1.6221
15703TIP3   OH268523   5.753   2.275   4.794  0.0126 -0.1860  0.1532
15703TIP3    H168524   5.834   2.224   4.795  0.5306  0.6372  1.4429
15703TIP3    H268525   5.780   2.363   4.766 -0.8094 -0.5109 -1.6923
15704TIP3   OH268526   4.089   3.502   7.096 -0.2937  1.0368  0.7642
15704TIP3    H168527   4.082   3.478   7.003  2.2709  2.2934  0.2144
15704TIP3    H268528   4.099   3.597   7.095 -1.3959  1.1856  2.4237
15705TIP3   OH268529   4.716   5.518  11.030  0.0030 -0.2843 -0.0559
15705TIP3    H168530   4.785   5.452  11.032 -0.2768 -0.6043 -0.8313
15705TIP3    H268531   4.698   5.536  11.122 -0.2097 -1.5891  0.1737
15706TIP3   OH268532   1.750   5.288  10.820  0.4269 -0.0253  0.5091
15706TIP3    H168533   1.706   5.214  10.861 -0.0093  0.4447  0.8910
15706TIP3    H268534   1.819   5.248  10.767  0.7648 -0.6627  1.4013
15707TIP3   OH268535   4.564   1.502   3.611 -0.3762  0.6973  0.0425
15707TIP3    H168536   4.617   1.518   3.689 -0.9378  0.4760  0.4711
15707TIP3    H268537   4.597   1.419   3.576  0.1449  0.9978 -0.1843
15708TIP3   OH268538   1.533   6.456  14.343  0.1579  0.1656  0.1911
15708TIP3    H168539   1.534   6.539  14.391  0.5936  0.0429  0.3874
15708TIP3    H268540   1.441   6.445  14.319  0.1611  0.9113 -0.1918
15709TIP3   OH268541   0.943   2.324   2.467  0.1051  0.6504 -0.1385
15709TIP3    H168542   1.035   2.312   2.443 -0.1413 -0.2467 -0.6325
15709TIP3    H268543   0.906   2.375   2.396  0.1393  0.7297 -0.0995
15710TIP3   OH268544   5.335   4.785   5.300 -0.1311  0.1412 -0.3674
15710TIP3    H168545   5.250   4.791   5.256  0.1333  0.4603 -0.8374
15710TIP3    H268546   5.331   4.853   5.368 -0.0319  0.5576 -0.7696
15711TIP3   OH268547   0.079   5.427  13.844  1.1446 -0.1572 -0.5207
15711TIP3    H168548   0.042   5.513  13.829  3.6215  0.7724 -1.6437
15711TIP3    H268549   0.053   5.375  13.768 -0.0144 -0.3001 -0.0345
15712TIP3   OH268550   6.328   2.767  15.133 -0.1097 -0.0623  0.1161
15712TIP3    H168551   6.280   2.685  15.124 -2.9662  1.6298 -0.5511
15712TIP3    H268552   6.288   2.825  15.069  0.4108  2.5512  2.1125
15713TIP3   OH268553   2.786   2.918  12.969 -0.0439 -0.4094  0.3265
15713TIP3    H168554   2.747   2.877  13.047 -0.8520  1.8238  1.1329
15713TIP3    H268555   2.867   2.958  13.002 -0.6069  0.9124  0.1330
15714TIP3   OH268556   2.615   2.345   3.526 -0.1905  0.3433  0.0037
15714TIP3    H168557   2.537   2.335   3.472 -1.2321 -0.0980  1.5790
15714TIP3    H268558   2.641   2.436   3.514 -0.3879  0.2447 -1.2531
15715TIP3   OH268559   5.264   0.948   2.209  0.0334  0.0231  0.1987
15715TIP3    H168560   5.252   1.012   2.140  0.8281 -0.8914 -0.7983
15715TIP3    H268561   5.311   0.995   2.278  0.2937  0.6027 -0.3772
15716TIP3   OH268562   3.553   4.308   4.724  0.2794 -0.0736  0.0191
15716TIP3    H168563   3.530   4.284   4.814  0.0518 -0.1547 -0.0585
15716TIP3    H268564   3.629   4.255   4.703  1.5279  1.3580  0.8367
15717TIP3   OH268565   6.590   1.600   3.025  0.6609  0.0572  0.4234
15717TIP3    H168566   6.604   1.586   2.932 -0.0686  1.4912  0.0849
15717TIP3    H268567   6.563   1.692   3.032  2.6141  0.5266  2.2482
15718TIP3   OH268568   2.899   5.452   1.314  0.0535  0.0734 -0.6955
15718TIP3    H168569   2.953   5.397   1.370  0.0567  0.9977  0.2116
15718TIP3    H268570   2.889   5.534   1.362 -0.9432  0.4390 -1.5030
15719TIP3   OH268571   3.640   3.413  14.733 -0.1082  0.0045 -0.5904
15719TIP3    H168572   3.685   3.424  14.649  1.1365 -0.2281  0.0351
15719TIP3    H268573   3.581   3.338  14.719  1.0706 -0.8951 -0.8696
15720TIP3   OH268574   0.704   1.683  13.833 -0.0562 -0.6849  0.4288
15720TIP3    H168575   0.715   1.767  13.876  0.1267 -1.3694  1.7319
15720TIP3    H268576   0.760   1.689  13.755  1.4799 -0.3037  1.5217
15721TIP3   OH268577   6.581   1.603   5.172  0.2367  0.5719  0.8171
15721TIP3    H168578   6.664   1.557   5.187 -0.6977 -1.8441 -1.0032
15721TIP3    H268579   6.586   1.634   5.082 -0.1445  1.9455  1.2612
15722TIP3   OH268580   2.065   5.762  16.332 -0.4281  0.0759 -0.2229
15722TIP3    H168581   2.061   5.705  16.255 -0.2999  1.1955 -1.0613
15722TIP3    H268582   1.989   5.818  16.324 -0.9322 -0.4323  0.9746
15723TIP3   OH268583   1.389   4.311   4.662 -0.4638 -0.1770  0.2276
15723TIP3    H168584   1.399   4.216   4.660  1.1373 -0.0117 -0.5487
15723TIP3    H268585   1.477   4.344   4.683 -0.6310  1.1931 -1.1578
15724TIP3   OH268586   1.825   3.463   2.647  0.2004  0.0229  0.0939
15724TIP3    H168587   1.788   3.489   2.563 -0.7417 -0.4003  0.3704
15724TIP3    H268588   1.750   3.459   2.706  0.7559 -0.3692  0.7857
15725TIP3   OH268589   0.865   4.249  12.416  0.5509  0.4375 -0.6795
15725TIP3    H168590   0.903   4.227  12.331  1.3784 -1.2764  0.1241
15725TIP3    H268591   0.940   4.253  12.476 -0.4070 -2.0156  0.7300
15726TIP3   OH268592   1.094   5.443   2.648 -0.4558 -0.9621  0.0817
15726TIP3    H168593   1.044   5.504   2.701 -0.0909 -1.6678  1.2484
15726TIP3    H268594   1.166   5.495   2.612  0.1214 -0.7937  1.4449
15727TIP3   OH268595   4.939   5.761  15.144 -0.2444 -0.2106  0.2329
15727TIP3    H168596   4.993   5.817  15.200  0.5248  0.3371 -1.0573
15727TIP3    H268597   4.998   5.691  15.116 -0.4631 -0.1366 -0.4143
15728TIP3   OH268598   2.248   6.205  13.014 -0.1004 -0.0481 -0.1427
15728TIP3    H168599   2.314   6.238  13.075  1.5005  1.1547 -2.4149
15728TIP3    H268600   2.199   6.140  13.064 -0.0531  2.1810  2.9452
15729TIP3   OH268601   3.325   2.177  17.164 -0.1956  0.1499 -0.8590
15729TIP3    H168602   3.377   2.097  17.168 -0.3175  0.0900 -0.3352
15729TIP3    H268603   3.386   2.245  17.136  0.7901  0.5797  2.1161
15730TIP3   OH268604   5.401   4.324   2.730 -0.4741  0.3787  0.2138
15730TIP3    H168605   5.434   4.262   2.795 -0.3377  0.1798 -0.0421
15730TIP3    H268606   5.357   4.269   2.665  1.9872  0.2861 -1.4432
15731TIP3   OH268607   5.175   5.538   1.862  0.3111 -0.1355  0.2316
15731TIP3    H168608   5.080   5.525   1.864  0.5464 -1.7826  1.4417
15731TIP3    H268609   5.197   5.570   1.949  0.6428  2.1441 -0.6466
15732TIP3   OH268610   0.134   4.651   2.815  0.0548 -0.1202  0.2750
15732TIP3    H168611   0.173   4.661   2.729  0.3294 -2.4585  0.1054
15732TIP3    H268612   0.040   4.641   2.799 -0.0245  0.4731  0.3389
15733TIP3   OH268613   1.867   5.079  17.076  0.1326  0.0094  0.1098
15733TIP3    H168614   1.808   5.070  17.150 -0.6289 -2.2822 -0.7225
15733TIP3    H268615   1.816   5.128  17.011  0.2833  0.7587  0.5497
15734TIP3   OH268616   3.796   2.145   1.597  0.1636 -0.5619 -0.7319
15734TIP3    H168617   3.837   2.218   1.644 -1.2536 -0.7504  0.8462
15734TIP3    H268618   3.774   2.182   1.511  1.6718  0.1440 -0.8356
15735TIP3   OH268619   2.982   3.559   2.157  0.6292  0.1520  0.4118
15735TIP3    H168620   2.941   3.645   2.166 -0.2959 -0.1307 -0.9033
15735TIP3    H268621   2.985   3.523   2.246 -0.4065  0.8985  0.7450
15736TIP3   OH268622   5.823   3.243   1.267 -0.3247 -0.4773  0.3940
15736TIP3    H168623   5.746   3.248   1.212  0.2390  1.6555 -0.2585
15736TIP3    H268624   5.870   3.325   1.251 -0.1509  0.2624  4.0475
15737TIP3   OH268625   0.066   3.167   4.955 -0.3215  0.6555  0.7034
15737TIP3    H168626   0.061   3.072   4.958  3.1637  0.3783 -0.2488
15737TIP3    H268627   0.001   3.193   4.890 -0.9793 -1.0912  0.6513
15738TIP3   OH268628   5.684   3.435  15.542  0.0798 -0.3012  0.2105
15738TIP3    H168629   5.709   3.379  15.615 -0.6589 -1.8073 -0.6657
15738TIP3    H268630   5.589   3.439  15.545  0.0063 -0.8650 -1.0056
15739TIP3   OH268631   6.700   1.799  12.170  0.2925  0.0289  0.0041
15739TIP3    H168632   6.741   1.745  12.102  2.4574 -0.8053  1.8878
15739TIP3    H268633   6.681   1.882  12.127  2.4248 -0.1816 -1.4166
15740TIP3   OH268634   4.074   3.646   1.447 -1.2434 -0.1167  0.4127
15740TIP3    H168635   4.061   3.741   1.451  2.1070  0.4050  0.9371
15740TIP3    H268636   4.099   3.629   1.356 -0.0682 -0.1941  0.7374
15741TIP3   OH268637   2.716   5.091   1.418  0.2430  0.1532 -0.3958
15741TIP3    H168638   2.806   5.069   1.439  0.5798  1.1339 -0.8044
15741TIP3    H268639   2.713   5.093   1.322  0.0704  1.2540 -0.3734
15742TIP3   OH268640   6.589   5.808   1.315 -0.5088  0.5057  0.1326
15742TIP3    H168641   6.554   5.725   1.349  1.2298 -1.1754 -1.9911
15742TIP3    H268642   6.595   5.865   1.392 -4.0991 -0.4572  1.2094
15743TIP3   OH268643   4.892   1.859   2.515  0.7923 -0.2297 -0.1307
15743TIP3    H168644   4.860   1.904   2.594 -0.1065 -2.2787  0.6930
15743TIP3    H268645   4.817   1.858   2.456  0.7558 -0.8039 -0.0764
15744TIP3   OH268646   0.628   4.623   0.106 -0.0101  0.3548  0.3711
15744TIP3    H168647   0.547   4.673   0.116  0.3516  0.6743  1.8360
15744TIP3    H268648   0.673   4.665   0.032 -0.9992  0.4071 -0.2051
15745TIP3   OH268649   0.789   0.356   0.433 -0.3889  0.1404 -0.4086
15745TIP3    H168650   0.862   0.358   0.495 -0.6205 -0.2672 -0.1245
15745TIP3    H268651   0.772   0.448   0.414  0.0370  0.2464 -0.2828
15746TIP3   OH268652   5.368   5.095   5.356  0.2430 -0.6073 -0.0684
15746TIP3    H168653   5.435   5.157   5.382 -0.0270 -0.0336 -0.7078
15746TIP3    H268654   5.395   5.067   5.268  0.6470 -1.7970  0.4319
15747TIP3   OH268655   2.271   4.311   4.316  0.0198 -0.2923 -0.1953
15747TIP3    H168656   2.321   4.331   4.237 -1.7407  0.5993 -1.1184
15747TIP3    H268657   2.210   4.384   4.325 -1.3035 -1.4729  0.7261
15748TIP3   OH268658   1.897   4.184   5.982  0.1695  0.1508 -0.4170
15748TIP3    H168659   1.870   4.145   5.899 -0.7812 -0.7753  0.3004
15748TIP3    H268660   1.963   4.124   6.017 -1.7212 -1.2008  0.9671
15749TIP3   OH268661   6.310   6.025   6.156 -0.5762  0.1552  0.2664
15749TIP3    H168662   6.264   6.068   6.229  0.2539 -0.3414  1.0867
15749TIP3    H268663   6.275   5.936   6.154  0.3549 -0.2269  0.8989
15750TIP3   OH268664   5.928   1.150  13.278  0.2915  0.3504 -0.1672
15750TIP3    H168665   5.840   1.127  13.250  0.4483  1.2182 -1.4180
15750TIP3    H268666   5.985   1.094  13.226  0.4722 -0.2365  0.6701
15751TIP3   OH268667   0.406   1.353   2.900 -0.4893 -0.1354 -0.4446
15751TIP3    H168668   0.353   1.290   2.948  1.0021 -0.8541  0.2823
15751TIP3    H268669   0.367   1.438   2.921 -0.3765 -0.5186  1.3835
15752TIP3   OH268670   1.051   5.621  15.364  0.0427 -0.2008 -0.2170
15752TIP3    H168671   0.969   5.573  15.352 -1.4478  2.0241  0.6712
15752TIP3    H268672   1.105   5.564  15.419 -0.4041 -2.2250 -1.8351
15753TIP3   OH268673   3.120   5.034   0.408  0.0111  0.3017 -0.1036
15753TIP3    H168674   3.210   5.063   0.419  0.3322 -0.9188  0.5544
15753TIP3    H268675   3.116   4.949   0.451 -1.2457 -0.0379 -0.8469
15754TIP3   OH268676   2.874   0.696  14.024 -0.4594 -0.4902  0.2146
15754TIP3    H168677   2.915   0.610  14.013  0.3847 -0.1201  0.4834
15754TIP3    H268678   2.781   0.676  14.038  0.1551 -1.5269  3.2123
15755TIP3   OH268679   4.033   1.472  12.627 -0.2161 -0.1839 -0.0987
15755TIP3    H168680   4.055   1.437  12.541 -1.8684  1.0097 -1.0416
15755TIP3    H268681   4.100   1.539  12.643 -0.5172  0.3219 -0.9357
15756TIP3   OH268682   0.964   6.463   1.517  0.5380  0.5887  0.1743
15756TIP3    H168683   0.917   6.508   1.447 -2.0715 -1.5766  0.4380
15756TIP3    H268684   1.022   6.402   1.472  1.0736  1.3176 -0.1262
15757TIP3   OH268685   6.306   6.380   5.106 -0.3016 -0.2468 -0.3745
15757TIP3    H168686   6.339   6.348   5.190  0.6143  0.6487 -0.3867
15757TIP3    H268687   6.245   6.450   5.130  0.2470  0.2643 -0.4676
15758TIP3   OH268688   4.292   2.233   4.652 -0.6260  0.3244 -0.4161
15758TIP3    H168689   4.372   2.285   4.643 -0.5921  0.2186 -0.7253
15758TIP3    H268690   4.221   2.293   4.629 -0.7902  0.9650  1.6675
15759TIP3   OH268691   2.535   5.804   2.453 -0.2457  0.2933  0.6436
15759TIP3    H168692   2.549   5.712   2.430 -0.4138  0.7925 -1.5853
15759TIP3    H268693   2.515   5.846   2.369 -0.3247  2.3286  1.6746
15760TIP3   OH268694   4.305   5.387  14.003 -0.1428  0.0250 -0.4139
15760TIP3    H168695   4.376   5.378  13.940  0.4396  0.7436  0.1294
15760TIP3    H268696   4.346   5.430  14.078 -0.8695 -0.6512  0.3764
15761TIP3   OH268697   6.757   2.954  11.911  0.0414 -0.0198 -0.2227
15761TIP3    H168698   6.769   2.874  11.860  0.2418  0.1436 -0.4344
15761TIP3    H268699   6.705   2.927  11.986  1.9435 -0.8113  0.8637
15762TIP3   OH268700   2.936   0.124  14.079 -0.1643  0.0527 -0.0745
15762TIP3    H168701   2.927   0.031  14.097 -3.8157  0.3041 -0.1598
15762TIP3    H268702   3.002   0.154  14.140 -0.3776 -2.2332  1.3309
15763TIP3   OH268703   3.128   2.309  11.506  0.1435  0.3868 -0.3210
15763TIP3    H168704   3.072   2.351  11.441  0.2793  0.5757 -0.3180
15763TIP3    H268705   3.151   2.379  11.568  1.1833  0.5483 -0.8740
15764TIP3   OH268706   3.779   1.605   1.574  0.0622 -0.0064 -0.3303
15764TIP3    H168707   3.701   1.558   1.603  0.9053 -0.3192  1.4598
15764TIP3    H268708   3.746   1.690   1.544 -0.7491  0.6735  2.3604
15765TIP3   OH268709   2.600   6.191  12.621  0.3896 -0.2424 -0.6866
15765TIP3    H168710   2.634   6.190  12.531 -0.1679 -1.4799 -0.8840
15765TIP3    H268711   2.527   6.130  12.620 -0.4192  0.6904  0.3097
15766TIP3   OH268712   3.516   0.228   0.347  0.0844 -0.6329 -0.1831
15766TIP3    H168713   3.550   0.196   0.264 -3.9523  0.3931 -2.3660
15766TIP3    H268714   3.429   0.189   0.355 -0.8053  1.6393  2.0970
15767TIP3   OH268715   0.697   4.529  15.961 -0.4628  0.0666  0.3089
15767TIP3    H168716   0.701   4.442  16.002  0.9787 -0.9105 -1.8159
15767TIP3    H268717   0.692   4.590  16.035  1.4289 -1.6668  1.9247
15768TIP3   OH268718   1.703   0.039   4.264  0.1421 -0.0205  0.8379
15768TIP3    H168719   1.716   0.031   4.359  2.1683 -1.0008  0.4966
15768TIP3    H268720   1.693   0.133   4.249  0.9510  0.2462  1.8966
15769TIP3   OH268721   1.599   3.960  13.166 -0.3694  1.1526  1.1088
15769TIP3    H168722   1.640   3.953  13.252 -1.3707 -0.8283  1.4558
15769TIP3    H268723   1.505   3.961  13.185 -0.6732 -1.1880 -0.0235
15770TIP3   OH268724   6.360   4.159  11.570 -0.0875  0.4262  0.5591
15770TIP3    H168725   6.271   4.192  11.578 -0.5422 -0.4295 -0.7787
15770TIP3    H268726   6.415   4.226  11.610 -1.1342  1.9786 -0.5632
15771TIP3   OH268727   0.805   5.752  12.309 -0.2330  0.2333 -0.6033
15771TIP3    H168728   0.852   5.810  12.249 -0.9569 -1.1316 -2.5581
15771TIP3    H268729   0.723   5.732  12.263 -0.2277 -1.8913  0.2674
15772TIP3   OH268730   1.941   5.782   2.018  0.4951 -0.0667 -0.3337
15772TIP3    H168731   1.869   5.833   1.981  0.1415 -0.3217  0.0010
15772TIP3    H268732   2.007   5.847   2.042 -0.8956  0.4606  2.2569
15773TIP3   OH268733   5.172   1.450  14.257  0.2909 -0.1726 -0.1570
15773TIP3    H168734   5.218   1.502  14.191 -3.1977  1.9879 -0.9712
15773TIP3    H268735   5.194   1.492  14.340  1.2503 -0.3071 -0.3292
15774TIP3   OH268736   0.344   0.282  12.492  0.3579 -0.0526  0.0744
15774TIP3    H168737   0.418   0.222  12.488 -0.2967 -0.7855 -1.2879
15774TIP3    H268738   0.303   0.264  12.576  1.2963 -0.1475  0.5211
15775TIP3   OH268739   5.380   2.557  11.426  0.1242 -0.2984  0.3814
15775TIP3    H168740   5.456   2.523  11.378  1.2057 -1.8891  3.1158
15775TIP3    H268741   5.305   2.512  11.388  0.8341 -0.6363 -0.6335
15776TIP3   OH268742   5.158   3.038   6.354  0.1099 -0.1062 -0.1232
15776TIP3    H168743   5.180   2.948   6.378 -0.2977 -0.0100  0.6207
15776TIP3    H268744   5.105   3.029   6.275  0.8301 -0.4686 -0.5716
15777TIP3   OH268745   3.290   1.754   0.468 -0.2350  0.5279 -0.8392
15777TIP3    H168746   3.281   1.702   0.548 -1.3096  0.5496 -0.9329
15777TIP3    H268747   3.327   1.693   0.404 -1.2292 -0.0574 -0.8710
15778TIP3   OH268748   0.136   0.257   5.635  0.5701  0.0052 -0.0140
15778TIP3    H168749   0.151   0.185   5.697 -1.0067 -1.3553 -1.1549
15778TIP3    H268750   0.106   0.213   5.555  1.0000  1.8497 -1.2079
15779TIP3   OH268751   3.998   6.600  16.366  0.3521 -0.3482 -0.0801
15779TIP3    H168752   3.926   6.553  16.408 -0.4717  0.7984 -0.1751
15779TIP3    H268753   3.998   6.568  16.276  1.7158 -2.3487  0.5884
15780TIP3   OH268754   0.596   5.998   2.012  0.2185 -0.4075  0.4357
15780TIP3    H168755   0.666   6.052   2.048 -0.7842  3.0092 -2.4909
15780TIP3    H268756   0.574   6.039   1.928 -3.2196 -3.1504 -0.1348
15781TIP3   OH268757   2.348   5.253  14.364 -0.0380 -0.0660  0.0175
15781TIP3    H168758   2.253   5.267  14.367  0.3241  3.5161 -2.0588
15781TIP3    H268759   2.360   5.187  14.295 -1.0437 -0.9465  0.6690
15782TIP3   OH268760   1.229   0.979   1.140  0.0688  0.2375  0.4680
15782TIP3    H168761   1.314   1.019   1.122  0.2863 -0.3595  0.1608
15782TIP3    H268762   1.193   0.960   1.054  1.2275 -2.8613  0.5948
15783TIP3   OH268763   1.800   0.725  15.769  0.1243 -0.1230  0.0387
15783TIP3    H168764   1.852   0.719  15.849  0.2996  1.3038  0.0558
15783TIP3    H268765   1.865   0.741  15.700 -0.0470 -1.0832 -0.3433
15784TIP3   OH268766   6.485   1.441  13.539  0.3170  0.2549  0.0305
15784TIP3    H168767   6.478   1.504  13.467  0.8159  0.5707  0.2528
15784TIP3    H268768   6.432   1.367  13.511  0.9152  0.1697 -0.8839
15785TIP3   OH268769   1.352   4.858   1.872  0.4408 -0.1996  0.1507
15785TIP3    H168770   1.302   4.910   1.809  0.1817 -1.3724 -0.6242
15785TIP3    H268771   1.427   4.826   1.822  0.0029 -1.4975  0.3085
15786TIP3   OH268772   2.800   4.762  13.036 -0.3913  0.0317  0.7947
15786TIP3    H168773   2.720   4.813  13.029  0.3499  0.7504 -5.6043
15786TIP3    H268774   2.775   4.673  13.009  0.4057 -0.3935  1.4272
15787TIP3   OH268775   5.380   4.455  12.912  0.0160 -0.6269 -0.0919
15787TIP3    H168776   5.340   4.518  12.973  1.1007 -1.1203  1.1534
15787TIP3    H268777   5.421   4.509  12.845 -0.1577 -0.0408  0.2639
15788TIP3   OH268778   6.555   3.620  12.475  0.0224  0.0534 -0.3923
15788TIP3    H168779   6.523   3.700  12.434 -1.2789 -0.8317 -1.1313
15788TIP3    H268780   6.546   3.553  12.407 -1.9179 -1.3775  1.2032
15789TIP3   OH268781   0.597   3.549   2.649 -0.0447  0.0443 -0.1806
15789TIP3    H168782   0.512   3.526   2.687 -0.4565  0.5266 -0.8017
15789TIP3    H268783   0.643   3.593   2.720  0.5116 -2.1020  0.8227
15790TIP3   OH268784   4.836   2.914   2.253  0.1591  0.9104  0.7799
15790TIP3    H168785   4.863   2.837   2.203 -0.4536  0.3111  1.3810
15790TIP3    H268786   4.913   2.972   2.249  0.0964  0.9250 -0.9382
15791TIP3   OH268787   5.895   6.583  13.656 -0.3898 -0.1169  0.3499
15791TIP3    H168788   5.875   6.663  13.607  0.9554 -0.0598 -0.1045
15791TIP3    H268789   5.955   6.534  13.600 -0.3444 -0.9410  1.1063
15792TIP3   OH268790   1.198   5.299   1.172 -0.2593  0.1592 -0.0257
15792TIP3    H168791   1.176   5.292   1.079 -0.8237 -0.6641  0.1614
15792TIP3    H268792   1.210   5.392   1.187 -1.3705  0.4092 -0.6544
15793TIP3   OH268793   2.826   0.518   6.916 -0.3271  0.3726 -0.2308
15793TIP3    H168794   2.898   0.497   6.857  0.6827 -0.7241  1.3623
15793TIP3    H268795   2.747   0.499   6.865  0.5272 -0.3109 -1.3190
15794TIP3   OH268796   1.681   4.280  11.363  0.0679  0.7475 -0.4725
15794TIP3    H168797   1.585   4.276  11.360  0.1107  0.8405 -2.7028
15794TIP3    H268798   1.709   4.237  11.282  1.9445 -0.0624  0.5768
15795TIP3   OH268799   3.620   3.006  12.118  0.4396 -0.5729 -0.1014
15795TIP3    H168800   3.552   3.031  12.055  0.1550 -0.1183  0.3843
15795TIP3    H268801   3.682   2.955  12.066 -1.2740 -2.7071 -0.1181
15796TIP3   OH268802   0.242   0.889  11.487 -0.0541  0.2796 -0.3779
15796TIP3    H168803   0.268   0.863  11.399  0.9709  0.4176 -0.1159
15796TIP3    H268804   0.146   0.878  11.488 -0.3058  2.1670 -2.1177
15797TIP3   OH268805   2.395   4.025   2.575 -0.1589  0.0175 -0.6021
15797TIP3    H168806   2.467   3.980   2.531  1.3580  0.9195  0.8900
15797TIP3    H268807   2.343   3.955   2.614  1.5351 -0.5398  0.7288
15798TIP3   OH268808   2.275   2.205   1.356 -0.3561  0.4573 -0.0383
15798TIP3    H168809   2.226   2.237   1.432 -1.0065 -0.5360 -0.0287
15798TIP3    H268810   2.295   2.114   1.378  0.1981  0.4244 -0.6912
15799TIP3   OH268811   6.355   1.226  14.715 -0.3452 -0.1124  0.6832
15799TIP3    H168812   6.263   1.223  14.688  0.1334 -1.0850 -0.9141
15799TIP3    H268813   6.398   1.282  14.650  0.6526 -1.6982 -0.0531
15800TIP3   OH268814   0.078   5.406  12.087 -0.5237 -0.2301  0.2926
15800TIP3    H168815   0.091   5.387  11.995  2.2259 -1.1174  0.8336
15800TIP3    H268816   0.011   5.475  12.088 -0.7647 -0.3964 -2.3311
15801TIP3   OH268817   1.448   4.408  11.980 -0.0822  0.4643 -0.0391
15801TIP3    H168818   1.401   4.473  12.032 -0.8452  0.0460 -0.1881
15801TIP3    H268819   1.414   4.420  11.891 -1.6766 -1.4219  0.2841
15802TIP3   OH268820   5.404   4.177  17.017  1.1608  0.3752 -0.2996
15802TIP3    H168821   5.475   4.113  17.010  1.7987  1.1884 -1.4644
15802TIP3    H268822   5.448   4.260  17.036  0.1298 -0.0383  4.2942
15803TIP3   OH268823   6.661   4.358  11.267  0.0165 -0.1629  0.1929
15803TIP3    H168824   6.584   4.373  11.212  0.5261  0.7416 -0.2773
15803TIP3    H268825   6.684   4.444  11.301  1.0547 -0.3667  0.0188
15804TIP3   OH268826   0.042   6.143   6.587 -0.1522  0.1484  0.1936
15804TIP3    H168827  -0.038   6.195   6.571  0.7347  1.6367  0.4553
15804TIP3    H268828   0.083   6.136   6.501 -1.0028 -1.3840 -0.1008
15805TIP3   OH268829   0.638   0.322   5.227  0.1415 -0.2174  0.6100
15805TIP3    H168830   0.704   0.386   5.202 -1.8199  1.3911 -0.6561
15805TIP3    H268831   0.567   0.374   5.266 -1.7548 -1.5102 -0.9773
15806TIP3   OH268832   2.413   2.617   1.483  1.0982  0.7456  0.7756
15806TIP3    H168833   2.394   2.557   1.555  1.0835  0.7212  0.7510
15806TIP3    H268834   2.328   2.656   1.462  0.3030 -2.3459 -2.0553
15807TIP3   OH268835   5.012   2.975   1.339 -0.3739 -0.4981  0.2779
15807TIP3    H168836   4.938   3.031   1.364 -0.4852 -0.3301 -0.4080
15807TIP3    H268837   5.081   2.997   1.402 -0.2822  0.7155 -0.2288
15808TIP3   OH268838   1.039   6.335  13.994  0.1477  0.5281  0.5439
15808TIP3    H168839   1.064   6.423  13.966  1.3412 -0.5330 -1.8686
15808TIP3    H268840   1.112   6.306  14.049  0.0754  0.7838  0.7764
15809TIP3   OH268841   0.089   5.871   3.492  0.8631  0.2552  0.3951
15809TIP3    H168842   0.022   5.934   3.466  0.8842  0.7581  1.5575
15809TIP3    H268843   0.042   5.789   3.506  0.4039  0.7238  1.6819
15810TIP3   OH268844   6.675   4.764   2.370  0.9151  0.3132  0.0437
15810TIP3    H168845   6.759   4.810   2.368  1.4055 -0.6288 -1.8495
15810TIP3    H268846   6.615   4.823   2.323  0.5291  0.9482  1.3225
15811TIP3   OH268847   1.602   6.569  16.904 -0.0871 -0.1374 -0.1523
15811TIP3    H168848   1.616   6.593  16.812 -3.5699 -0.2008 -0.7598
15811TIP3    H268849   1.552   6.487  16.900 -0.8037  0.1912  1.8038
15812TIP3   OH268850   2.407   1.886   3.528  0.4196 -0.5185 -0.2449
15812TIP3    H168851   2.344   1.816   3.546  0.8641 -1.1398 -1.0509
15812TIP3    H268852   2.443   1.908   3.614 -0.1483 -0.8774  0.0901
15813TIP3   OH268853   1.273   5.394   4.052 -0.2547  0.4034  0.4012
15813TIP3    H168854   1.294   5.368   3.963 -1.6862  1.6136 -0.3004
15813TIP3    H268855   1.271   5.490   4.050  0.2795  0.4693  1.8655
15814TIP3   OH268856   3.330   0.311  16.349  0.6829  0.2480 -0.0525
15814TIP3    H168857   3.290   0.254  16.284  0.8794 -0.9297  0.8347
15814TIP3    H268858   3.317   0.399  16.316 -2.7056 -0.0814  0.2399
15815TIP3   OH268859   3.860   0.346   3.461 -0.1854 -0.3365  0.0666
15815TIP3    H168860   3.844   0.254   3.438 -1.9924  0.1219 -0.5758
15815TIP3    H268861   3.918   0.378   3.392  0.1019 -0.8558  0.0572
15816TIP3   OH268862   1.299   0.331   1.920  0.3606  0.3782 -0.1794
15816TIP3    H168863   1.391   0.319   1.944 -0.0278 -0.6272  0.8341
15816TIP3    H268864   1.302   0.357   1.828  1.5376 -2.5136 -1.0403
15817TIP3   OH268865   2.300   4.124  11.740 -0.0477 -0.4637 -0.0627
15817TIP3    H168866   2.340   4.136  11.826  1.4028 -1.2995 -0.6000
15817TIP3    H268867   2.373   4.134  11.678 -1.3772  1.7841 -1.3186
15818TIP3   OH268868   3.669   4.904  12.562 -0.2021 -0.3358  0.2376
15818TIP3    H168869   3.642   4.985  12.518  0.0430 -0.4469 -0.1121
15818TIP3    H268870   3.745   4.874  12.513 -0.6340 -1.0916  0.0134
15819TIP3   OH268871   0.673   2.430  12.270  0.4026 -0.1298  0.1522
15819TIP3    H168872   0.751   2.376  12.256  0.1453 -0.4513 -0.0596
15819TIP3    H268873   0.680   2.499  12.205  1.6479  1.1318  1.6008
15820TIP3   OH268874   6.053   3.543  14.154 -0.7424 -0.4312 -0.1775
15820TIP3    H168875   6.047   3.638  14.144 -1.5645 -0.6179 -1.5689
15820TIP3    H268876   6.130   3.518  14.103  0.7720 -0.2786  1.9728
15821TIP3   OH268877   0.135   3.544   4.490 -0.2801  0.1227  0.5213
15821TIP3    H168878   0.110   3.577   4.404  0.4096 -0.4413  0.0946
15821TIP3    H268879   0.052   3.530   4.536 -0.7054 -0.6789 -0.4690
15822TIP3   OH268880   3.249   5.079   1.331 -0.3175  0.3219  0.5798
15822TIP3    H168881   3.310   5.042   1.395 -0.9692  1.5207  1.9209
15822TIP3    H268882   3.250   5.017   1.258  0.5687 -0.9826  1.6840
15823TIP3   OH268883   1.641   6.126   2.429  0.7397  0.3951 -0.0235
15823TIP3    H168884   1.553   6.160   2.414  0.7012  0.7499  0.9256
15823TIP3    H268885   1.672   6.099   2.343  0.1751  1.3996 -0.5501
15824TIP3   OH268886   1.247   0.039  11.723 -0.3796  0.0240  0.3398
15824TIP3    H168887   1.166   0.082  11.748 -0.6188 -0.7654  0.9436
15824TIP3    H268888   1.297   0.031  11.804  0.7261  1.3676 -0.1918
15825TIP3   OH268889   3.618   0.014  13.805  0.3729 -0.2030 -0.7316
15825TIP3    H168890   3.705   0.034  13.772  0.2425  0.3325 -0.7477
15825TIP3    H268891   3.631  -0.060  13.865  0.9211  0.2678 -0.2669
15826TIP3   OH268892   0.571   1.957  12.397 -0.0548  0.1740  0.6364
15826TIP3    H168893   0.661   1.952  12.430 -0.3355  0.4894  1.4436
15826TIP3    H268894   0.542   1.865  12.393  0.3434  0.0617  0.2456
15827TIP3   OH268895   0.420   4.984   0.151  0.0263  0.2929 -0.4876
15827TIP3    H168896   0.340   4.931   0.154  0.4756 -0.4856 -1.8081
15827TIP3    H268897   0.474   4.950   0.221 -0.7899  0.8254  0.4198
15828TIP3   OH268898   6.096   1.860  13.500  0.6833 -0.5963  0.1896
15828TIP3    H168899   6.080   1.953  13.517 -0.5750 -0.6922 -0.4567
15828TIP3    H268900   6.180   1.842  13.543  0.5467  0.6421  0.9915
15829TIP3   OH268901   2.207   4.106  15.664 -0.3345 -0.0978  0.3688
15829TIP3    H168902   2.275   4.174  15.662  0.9103 -1.0577  4.5420
15829TIP3    H268903   2.254   4.026  15.691 -2.4789 -1.6693 -0.3951
15830TIP3   OH268904   3.154   0.165   4.937 -0.4416  0.8483 -0.3683
15830TIP3    H168905   3.095   0.171   4.862 -1.1007  0.8454  0.1346
15830TIP3    H268906   3.224   0.227   4.919 -1.1603  1.6358 -0.4944
15831TIP3   OH268907   0.430   1.545   1.496  0.2458  0.1447  0.3349
15831TIP3    H168908   0.483   1.625   1.505 -0.4781  0.4949  1.6800
15831TIP3    H268909   0.473   1.482   1.554  0.3418 -0.1791 -0.0941
15832TIP3   OH268910   1.315   1.289  17.199  0.1693 -0.0812  0.1442
15832TIP3    H168911   1.390   1.271  17.143 -0.9346  0.3251 -1.4877
15832TIP3    H268912   1.341   1.367  17.249 -0.1333  1.6073 -2.2643
15833TIP3   OH268913   5.091   5.857   1.911 -0.2791 -0.8724 -0.0592
15833TIP3    H168914   5.130   5.918   1.974 -0.4620 -1.0014  0.1796
15833TIP3    H268915   5.018   5.817   1.958  0.0764 -1.5588 -0.0810
15834TIP3   OH268916   1.995   5.818   0.079 -0.3871  0.0865  0.0304
15834TIP3    H168917   2.054   5.876   0.128  1.7917 -0.9880 -1.2319
15834TIP3    H268918   1.947   5.770   0.146  2.1353 -0.9591  1.1524
15835TIP3   OH268919   5.705   3.468   2.511  0.6701 -0.3702  0.5979
15835TIP3    H168920   5.683   3.532   2.579 -1.2713 -0.0335 -0.2920
15835TIP3    H268921   5.667   3.386   2.543 -0.5732 -0.1308 -0.2159
15836TIP3   OH268922   1.302   5.349   3.792 -0.8452 -0.0290  0.3727
15836TIP3    H168923   1.262   5.263   3.804  0.8592 -0.8407  0.3213
15836TIP3    H268924   1.366   5.336   3.722  0.0605  1.0556  0.9808
15837TIP3   OH268925   1.630   6.474  15.304  0.0906  0.1740 -0.4162
15837TIP3    H168926   1.666   6.508  15.222 -0.0698 -0.9008 -0.9481
15837TIP3    H268927   1.677   6.522  15.372 -1.5253  2.8652 -1.1294
15838TIP3   OH268928   5.603   3.745  14.138  0.1804  0.6852 -0.4092
15838TIP3    H168929   5.579   3.672  14.081  0.2616  2.3773 -2.6876
15838TIP3    H268930   5.664   3.707  14.201 -1.5903 -1.7213 -0.0387
15839TIP3   OH268931   4.683   5.147   4.303  0.5528  0.1619 -0.0782
15839TIP3    H168932   4.668   5.210   4.233  0.8626 -0.7749 -0.9961
15839TIP3    H268933   4.777   5.133   4.304  0.4949 -0.2373  0.1726
15840TIP3   OH268934   3.924   2.170   5.088 -0.1546 -0.1056 -0.1514
15840TIP3    H168935   3.935   2.085   5.046 -0.2578  0.9045 -2.2946
15840TIP3    H268936   3.869   2.152   5.164 -0.7084 -1.8555 -0.9351
15841TIP3   OH268937   5.015   5.354  12.828 -0.5381  0.2657  0.2249
15841TIP3    H168938   5.086   5.408  12.795 -1.3718  0.3634 -1.4343
15841TIP3    H268939   4.937   5.385  12.783 -1.0410 -2.2808 -0.7411
15842TIP3   OH268940   2.077   2.097   3.818 -0.2253 -0.4217 -0.2626
15842TIP3    H168941   2.118   2.140   3.892  0.7832  1.2886 -1.7678
15842TIP3    H268942   1.984   2.097   3.839 -0.0888  1.1906  0.4610
15843TIP3   OH268943   5.836   4.125   2.840  0.1626  0.1813 -0.2452
15843TIP3    H168944   5.866   4.034   2.827  1.1125  0.7060 -1.9735
15843TIP3    H268945   5.884   4.155   2.917  0.2530 -0.6048  0.0153
15844TIP3   OH268946   5.091   3.309  13.133 -0.3671  0.0665 -0.3032
15844TIP3    H168947   4.999   3.289  13.113 -0.1046  1.7526 -3.3295
15844TIP3    H268948   5.139   3.234  13.098 -0.4603 -0.1911  0.1104
15845TIP3   OH268949   1.112   5.008   3.104  0.4033 -0.7008 -0.2853
15845TIP3    H168950   1.040   4.955   3.138  0.2572 -0.1345  0.3108
15845TIP3    H268951   1.092   5.097   3.134  1.5579 -0.6018  0.2230
15846TIP3   OH268952   2.326   5.006  14.551  0.0604 -0.4463 -0.2624
15846TIP3    H168953   2.240   4.994  14.592 -0.6801  0.5301 -1.4962
15846TIP3    H268954   2.355   5.092  14.581 -0.0016 -0.1932 -0.9215
15847TIP3   OH268955   1.225   4.590  11.196  0.1550  0.1833  0.1138
15847TIP3    H168956   1.315   4.567  11.174  0.5055  0.6620  1.0453
15847TIP3    H268957   1.197   4.649  11.126  0.0701 -1.1133 -0.9641
15848TIP3   OH268958   5.494   4.831  15.902  0.0042 -0.1904 -0.1871
15848TIP3    H168959   5.447   4.754  15.934  1.1166 -0.7791  0.0369
15848TIP3    H268960   5.434   4.904  15.919 -0.2705 -0.7591  1.3410
15849TIP3   OH268961   1.287   5.651  15.768 -1.1382  0.0015  0.2907
15849TIP3    H168962   1.296   5.668  15.675 -1.1291 -0.0302  0.2854
15849TIP3    H268963   1.369   5.608  15.793 -1.1775 -0.0723  0.2940
15850TIP3   OH268964   2.160   0.090  15.561  0.4512 -0.1091  0.1540
15850TIP3    H168965   2.237   0.148  15.557  0.5858 -0.3290 -0.4732
15850TIP3    H268966   2.197   0.004  15.583  0.1416  0.2522  2.1821
15851TIP3   OH268967   0.977   3.035  15.480 -0.0777  0.5201 -0.4218
15851TIP3    H168968   0.923   3.114  15.483 -0.9380 -0.0906  2.2604
15851TIP3    H268969   1.065   3.065  15.505 -0.4290  0.6366  0.7118
15852TIP3   OH268970   5.924   6.311  12.693 -0.3077  0.2935  0.1665
15852TIP3    H168971   5.874   6.302  12.774 -0.3640  1.5588  0.2835
15852TIP3    H268972   5.859   6.330  12.626  0.0638  2.8422  0.4760
15853TIP3   OH268973   2.864   2.914  12.351 -0.1557 -0.6334 -0.2001
15853TIP3    H168974   2.780   2.959  12.343  0.1592  0.4392  2.0893
15853TIP3    H268975   2.918   2.953  12.282 -0.5594  1.0041  0.3703
15854TIP3   OH268976   1.011   5.372   2.243 -0.4830 -0.3279 -0.3783
15854TIP3    H168977   0.962   5.290   2.255 -0.4890 -0.5970 -2.2067
15854TIP3    H268978   1.025   5.379   2.149  0.7672  1.0636 -0.1135
15855TIP3   OH268979   1.337   2.762   0.997 -0.1438  0.0851 -0.0274
15855TIP3    H168980   1.307   2.674   0.973 -1.1913  0.5909 -0.6338
15855TIP3    H268981   1.369   2.752   1.087 -0.1744 -0.9304 -0.1155
15856TIP3   OH268982   4.505   4.796   1.463  0.3099 -0.3812 -0.4146
15856TIP3    H168983   4.549   4.868   1.418  0.8427  0.5510  1.5550
15856TIP3    H268984   4.566   4.723   1.457  1.2618  0.3200  0.5232
15857TIP3   OH268985   4.310   5.601  11.907  0.2520 -0.2334  0.0893
15857TIP3    H168986   4.400   5.585  11.933 -0.4817 -1.2291  2.1106
15857TIP3    H268987   4.263   5.617  11.988 -1.5402 -0.4555 -0.8618
15858TIP3   OH268988   0.535   4.986  15.580 -0.3510 -0.1358 -0.0073
15858TIP3    H168989   0.625   4.976  15.613 -0.8626 -1.8592  0.8769
15858TIP3    H268990   0.547   5.016  15.490  1.1064  0.1183  0.2433
15859TIP3   OH268991   4.731   6.239   1.055  0.2184  0.2464 -0.7534
15859TIP3    H168992   4.797   6.189   1.008  0.7894 -0.7020  0.9864
15859TIP3    H268993   4.766   6.328   1.061  0.7491  0.0492 -0.9654
15860TIP3   OH268994   2.766   5.531   2.869  0.1679  0.4250  0.0457
15860TIP3    H168995   2.750   5.568   2.782  0.4083  1.9066  0.6145
15860TIP3    H268996   2.855   5.495   2.864  0.3559  0.9233 -0.1768
15861TIP3   OH268997   3.801   6.635  16.660  0.2356  0.7929 -0.0042
15861TIP3    H168998   3.850   6.560  16.625  1.1893  1.5325 -0.2868
15861TIP3    H268999   3.709   6.613  16.645  0.4380 -0.9010  1.0827
15862TIP3   OH269000   1.948   2.456   1.509  0.6614  0.7428 -0.7766
15862TIP3    H169001   1.912   2.398   1.441 -0.9854  1.3691 -0.4535
15862TIP3    H269002   2.009   2.401   1.558 -1.2437 -0.8576 -0.1760
15863TIP3   OH269003   1.774   3.308  13.620  0.1237  0.4192 -0.1121
15863TIP3    H169004   1.690   3.299  13.664  0.0072  1.9264  0.0071
15863TIP3    H269005   1.823   3.230  13.645 -1.1995 -0.4215 -0.1064
15864TIP3   OH269006   1.559   2.724   2.946 -0.1791  0.1517 -0.3370
15864TIP3    H169007   1.489   2.747   2.886  1.5504  0.2595 -2.3986
15864TIP3    H269008   1.627   2.790   2.930  0.8064 -0.5641  0.8240
15865TIP3   OH269009   4.112   1.756  11.924 -0.0346  0.8049 -0.4135
15865TIP3    H169010   4.177   1.700  11.965 -1.5781 -0.1474  0.8241
15865TIP3    H269011   4.093   1.715  11.840 -0.0855  0.2816 -0.1475
15866TIP3   OH269012   4.924   6.318   2.530 -0.3125  0.1959 -0.4278
15866TIP3    H169013   4.980   6.376   2.477 -0.0835  0.2984 -0.0716
15866TIP3    H269014   4.974   6.238   2.540 -1.5107 -0.9199 -2.7758
15867TIP3   OH269015   4.648   2.729   3.971 -0.2206  0.2101 -0.3155
15867TIP3    H169016   4.664   2.807   4.024 -0.4516 -0.1074  0.2219
15867TIP3    H269017   4.669   2.756   3.881 -2.3918  1.5467 -0.4597
15868TIP3   OH269018   0.173   3.689  15.339 -0.4395  0.3118  0.3471
15868TIP3    H169019   0.153   3.610  15.390 -1.9644  0.0839 -0.5894
15868TIP3    H269020   0.268   3.700  15.348 -0.0791 -2.1506 -0.2830
15869TIP3   OH269021   3.568   2.832   2.471 -0.1437  0.3963 -0.2477
15869TIP3    H169022   3.503   2.762   2.471  1.2782 -0.9710  0.9518
15869TIP3    H269023   3.544   2.888   2.397 -2.3829 -0.3347 -0.1054
15870TIP3   OH269024   0.949   3.871   4.048  0.7723 -0.0283  0.2751
15870TIP3    H169025   1.024   3.812   4.055  0.2732 -0.5840  1.0045
15870TIP3    H269026   0.909   3.870   4.135 -0.3356 -0.0762 -0.2296
15871TIP3   OH269027   3.284   5.698   5.271  0.3245 -0.1971  0.2562
15871TIP3    H169028   3.264   5.790   5.250  1.3239  0.0989  0.5538
15871TIP3    H269029   3.371   5.684   5.234  0.1780 -1.0300  0.2174
15872TIP3   OH269030   0.225   2.557  13.043  0.4062 -0.6458  0.6965
15872TIP3    H169031   0.212   2.465  13.069 -0.1728 -1.0824 -1.0717
15872TIP3    H269032   0.318   2.563  13.023  0.0991 -1.3795 -1.0823
15873TIP3   OH269033   1.498   6.197   2.657 -0.1043 -0.2256  0.2494
15873TIP3    H169034   1.445   6.200   2.577 -0.3057  0.3165  0.3994
15873TIP3    H269035   1.586   6.176   2.627 -0.2111 -0.1784 -0.1000
15874TIP3   OH269036   3.357   4.538   5.029 -0.4429 -0.0431  0.3313
15874TIP3    H169037   3.281   4.486   5.002 -0.6100  0.1570  0.4193
15874TIP3    H269038   3.329   4.584   5.108 -0.1616 -0.1324  0.4860
15875TIP3   OH269039   3.414   2.649  14.479  0.5236 -0.3218  0.0781
15875TIP3    H169040   3.355   2.647  14.404  0.3485 -0.3857  0.2177
15875TIP3    H269041   3.383   2.722  14.532  1.8668  0.9805 -0.9027
15876TIP3   OH269042   0.097   1.737   4.987  0.2463 -0.5219 -0.3153
15876TIP3    H169043   0.099   1.649   4.949 -0.6050 -1.4911  1.7886
15876TIP3    H269044   0.022   1.779   4.945 -0.3018 -1.3499 -0.1883
15877TIP3   OH269045   2.244   4.142  15.382 -0.2275  0.0924 -0.2422
15877TIP3    H169046   2.232   4.143  15.477  1.4736 -1.5575  0.0254
15877TIP3    H269047   2.186   4.072  15.352  3.0122 -2.9669  0.2395
15878TIP3   OH269048   6.703   5.977  12.656 -0.6207  0.1902 -0.0765
15878TIP3    H169049   6.634   6.042  12.664  0.0577  1.1004 -1.3669
15878TIP3    H269050   6.784   6.026  12.673 -0.2062 -0.6363  0.3823
15879TIP3   OH269051   1.568   3.492   3.944 -0.1552  0.2254  0.2636
15879TIP3    H169052   1.569   3.444   3.862  1.6417  0.7242 -0.0291
15879TIP3    H269053   1.632   3.447   4.000  0.1826  1.1342  0.6306
15880TIP3   OH269054   3.436   3.014  11.928  0.8937  0.4133  0.1487
15880TIP3    H169055   3.495   2.955  11.881  0.8498 -0.8608  1.6623
15880TIP3    H269056   3.348   2.981  11.908  0.8022  0.7956 -0.0893
15881TIP3   OH269057   5.176   0.635   5.620 -0.4980 -0.6842 -0.4988
15881TIP3    H169058   5.174   0.551   5.666 -0.2180 -0.6102 -0.3482
15881TIP3    H269059   5.132   0.696   5.680  1.7215 -0.1338  0.6085
15882TIP3   OH269060   1.920   5.885  14.566  0.0115 -0.2974 -0.0422
15882TIP3    H169061   1.894   5.905  14.475  0.0555  2.4488  0.5002
15882TIP3    H269062   1.837   5.871  14.611 -0.0605 -0.5947 -0.2608
15883TIP3   OH269063   6.079   3.125  16.533  0.3444  0.6394 -0.7807
15883TIP3    H169064   6.106   3.033  16.534 -0.6868  0.3304 -0.9935
15883TIP3    H269065   6.010   3.130  16.599  2.1049  1.8051  1.0467
15884TIP3   OH269066   3.596   1.338  13.452  0.2775 -0.1919  0.3292
15884TIP3    H169067   3.615   1.247  13.475  2.1547 -0.4704 -2.1353
15884TIP3    H269068   3.679   1.384  13.466  0.0023  0.6452 -0.7296
15885TIP3   OH269069   1.170   4.280   2.459 -0.0539  0.3823  0.1515
15885TIP3    H169070   1.106   4.332   2.509 -0.6783  1.7401 -1.9945
15885TIP3    H269071   1.132   4.274   2.371  0.9165 -2.1800 -0.1205
15886TIP3   OH269072   4.937   2.326  16.445 -0.3803 -0.6412  0.2346
15886TIP3    H169073   4.933   2.400  16.385 -1.1744 -0.3386  0.6492
15886TIP3    H269074   4.938   2.249  16.388 -0.8618 -0.3489 -0.1699
15887TIP3   OH269075   5.481   6.486   2.413  0.1433  0.4554  0.4985
15887TIP3    H169076   5.396   6.499   2.455  0.1607 -1.4633  1.1515
15887TIP3    H269077   5.544   6.522   2.475 -0.2020  2.3323 -0.2013
15888TIP3   OH269078   5.791   5.191   4.349  0.6859 -0.0747  0.2018
15888TIP3    H169079   5.853   5.245   4.398  0.7237  0.4112 -0.3660
15888TIP3    H269080   5.754   5.251   4.283  0.1925 -0.5588  0.0339
15889TIP3   OH269081   1.030   3.728  14.766  0.3078  0.2140 -0.2477
15889TIP3    H169082   1.007   3.751  14.856 -1.6013 -0.6005 -0.5048
15889TIP3    H269083   1.096   3.659  14.775  0.7213  0.6978  0.5075
15890TIP3   OH269084   4.924   5.001  15.278 -0.3936  0.2151 -0.0567
15890TIP3    H169085   4.909   4.973  15.188 -0.8253  0.0259  0.0693
15890TIP3    H269086   5.003   4.954  15.305 -0.0320  0.5807 -0.4640
15891TIP3   OH269087   0.228   5.956  11.220  0.2027  0.4003 -0.0502
15891TIP3    H169088   0.172   5.993  11.152  1.3954 -0.6530 -1.6323
15891TIP3    H269089   0.275   6.031  11.256 -0.8185  1.0338  0.0014
15892TIP3   OH269090   2.059   6.726  15.153 -0.3410  0.6155 -0.1728
15892TIP3    H169091   2.062   6.821  15.153  0.1894  0.6311  2.0464
15892TIP3    H269092   2.149   6.699  15.173 -0.2653 -0.3754 -1.7931
15893TIP3   OH269093   3.269   4.631  13.301  0.4668  0.1443  0.0207
15893TIP3    H169094   3.284   4.630  13.207 -1.7851  0.7814 -0.3898
15893TIP3    H269095   3.176   4.608  13.310  0.5817  0.4302  2.0555
15894TIP3   OH269096   5.625   1.485  13.074 -0.2222 -0.0914  0.6008
15894TIP3    H169097   5.649   1.525  12.991 -0.4237  0.4357  0.7960
15894TIP3    H269098   5.615   1.392  13.054  0.4830 -0.0818  0.2010
15895TIP3   OH269099   2.304   2.896  11.580  0.1807 -0.1285 -0.2605
15895TIP3    H169100   2.320   2.942  11.662 -1.4014  0.2040 -0.1311
15895TIP3    H269101   2.369   2.931  11.519  1.1031 -0.0925  0.7263
15896TIP3   OH269102   6.305   3.796   6.278 -0.2941  0.1413 -0.1051
15896TIP3    H169103   6.291   3.746   6.358 -0.1962 -0.3357 -0.3807
15896TIP3    H269104   6.291   3.732   6.207  0.7996  0.2552 -0.4381
15897TIP3   OH269105   5.421   3.993  12.213  0.8048 -0.2387 -0.4812
15897TIP3    H169106   5.465   4.074  12.240  0.5546 -0.2225 -0.1278
15897TIP3    H269107   5.479   3.923  12.241  0.5264 -0.2240  0.1411
15898TIP3   OH269108   2.324   3.589   4.966  0.4295 -0.2297  0.3212
15898TIP3    H169109   2.291   3.504   4.940 -1.4137  0.2712  0.9463
15898TIP3    H269110   2.274   3.652   4.914  1.1740  0.5047  0.4731
15899TIP3   OH269111   1.513   2.676  16.237 -0.0112 -0.2148 -0.3057
15899TIP3    H169112   1.535   2.656  16.146 -0.4457  0.5144 -0.5735
15899TIP3    H269113   1.488   2.768  16.237  0.9377  0.0615  0.7323
15900TIP3   OH269114   2.381   3.664   3.234 -0.4827 -0.3456 -0.1120
15900TIP3    H169115   2.474   3.681   3.253  0.0407 -1.4593 -1.6181
15900TIP3    H269116   2.361   3.721   3.159 -2.0519  2.6513  2.4466
15901TIP3   OH269117   4.358   0.051   4.459 -0.1131 -0.2085  0.2936
15901TIP3    H169118   4.265   0.032   4.471 -0.2636  0.9259  1.0200
15901TIP3    H269119   4.360   0.135   4.412  0.5331 -1.2880 -1.6512
15902TIP3   OH269120   1.837   5.473  13.929 -0.6795 -0.1431 -0.3349
15902TIP3    H169121   1.794   5.558  13.922 -0.0482  0.2255  0.1678
15902TIP3    H269122   1.781   5.413  13.879 -0.8603  0.6648 -1.1086
15903TIP3   OH269123   0.214   3.823   1.264  0.0536  0.1310 -0.3340
15903TIP3    H169124   0.191   3.732   1.278  0.6759  0.1612  0.9170
15903TIP3    H269125   0.130   3.867   1.249 -0.4033 -0.3519  0.7603
15904TIP3   OH269126   1.112   3.625  13.034  0.0982  0.1014  0.6764
15904TIP3    H169127   1.029   3.635  12.988  0.1782 -1.3790  0.1705
15904TIP3    H269128   1.176   3.611  12.965  0.9245  2.1270  1.0135
15905TIP3   OH269129   3.932   6.649   3.374  0.1972  0.0857 -0.5942
15905TIP3    H169130   3.849   6.693   3.391  0.3387  0.1959 -0.1621
15905TIP3    H269131   3.997   6.702   3.421  0.5287  0.0812 -1.0495
15906TIP3   OH269132   3.167   5.946  11.819  0.1184 -0.5667  0.2081
15906TIP3    H169133   3.230   6.008  11.856 -0.0417  0.3309 -0.9996
15906TIP3    H269134   3.196   5.934  11.728 -0.2621 -1.7374  0.2334
15907TIP3   OH269135   6.700   1.089   4.141  0.4443 -1.3987 -0.6096
15907TIP3    H169136   6.791   1.068   4.120  0.1176 -2.7315 -0.7380
15907TIP3    H269137   6.654   1.082   4.058 -0.0666 -2.3583 -0.2503
15908TIP3   OH269138   5.869   2.747   3.245 -0.2306  0.3162  0.5679
15908TIP3    H169139   5.963   2.747   3.225 -0.5632 -0.3659 -1.0768
15908TIP3    H269140   5.855   2.827   3.295  1.4465 -0.2142  1.9231
15909TIP3   OH269141   0.749   5.582  15.474  0.1613  0.1448  0.1088
15909TIP3    H169142   0.700   5.541  15.402  0.4496 -0.3540  0.1950
15909TIP3    H269143   0.726   5.530  15.551 -0.8445  1.2299  0.5505
15910TIP3   OH269144   3.899   2.785  13.910  0.1912  0.4949  0.6230
15910TIP3    H169145   3.896   2.849  13.839 -1.0922  1.0094  1.1150
15910TIP3    H269146   3.838   2.717  13.884 -1.5402  1.4837  1.9459
15911TIP3   OH269147   3.939   5.078   1.496 -0.3869  0.3444  0.4389
15911TIP3    H169148   4.022   5.052   1.457 -0.1039  0.2727  1.0784
15911TIP3    H269149   3.900   5.138   1.432 -1.9138 -2.9925 -1.9407
15912TIP3   OH269150   6.488   1.292   2.198 -0.2727 -0.9922 -0.2861
15912TIP3    H169151   6.521   1.253   2.279  1.7002  1.8005  0.3328
15912TIP3    H269152   6.400   1.257   2.189  0.5408 -3.6294  1.4974
15913TIP3   OH269153   1.456   3.916   4.133 -0.2378 -0.0445  0.5584
15913TIP3    H169154   1.401   3.963   4.196 -2.4171 -0.6734 -0.8439
15913TIP3    H269155   1.456   3.970   4.055 -1.3367 -1.4769 -0.4703
15914TIP3   OH269156   6.238   1.431   3.600  0.5971  0.0356 -0.5015
15914TIP3    H169157   6.281   1.356   3.559 -1.8500 -1.9079  0.3050
15914TIP3    H269158   6.248   1.415   3.694 -1.8879 -0.5273 -0.2991
15915TIP3   OH269159   0.430   3.541   4.227 -0.0949  0.1491  0.1173
15915TIP3    H169160   0.425   3.482   4.152  0.0571  0.3490 -0.0514
15915TIP3    H269161   0.422   3.629   4.189  1.6170  0.3380  0.1539
15916TIP3   OH269162   5.030   2.178  13.098  0.1345  0.1234  0.1737
15916TIP3    H169163   5.050   2.229  13.020  0.6184  0.4491  0.5047
15916TIP3    H269164   5.114   2.171  13.144 -0.1838  0.0953  0.7539
15917TIP3   OH269165   5.745   5.104   5.617 -0.8273  0.5400  0.2137
15917TIP3    H169166   5.696   5.079   5.696  0.4717  0.5817  1.0436
15917TIP3    H269167   5.834   5.117   5.648 -0.2141  0.1106 -1.3618
15918TIP3   OH269168   2.759   3.644   1.035  0.3404  0.7914 -0.1867
15918TIP3    H169169   2.719   3.711   1.089 -0.4046 -0.2034  0.5159
15918TIP3    H269170   2.703   3.638   0.958  1.3699  2.1684 -1.0651
15919TIP3   OH269171   1.103   2.377  15.429 -0.3013  0.3252 -0.5990
15919TIP3    H169172   1.028   2.433  15.410 -0.5372  0.0727 -0.4109
15919TIP3    H269173   1.084   2.295  15.383 -0.2221  0.2014 -0.4118
15920TIP3   OH269174   3.293   2.075   4.049  0.2093 -0.1416 -0.2765
15920TIP3    H169175   3.349   2.054   4.124 -0.3200 -1.4912 -0.2535
15920TIP3    H269176   3.284   1.993   4.001  0.4871  0.6909 -1.7988
15921TIP3   OH269177   3.492   6.312  16.131 -0.6193  0.2580 -0.4735
15921TIP3    H169178   3.508   6.406  16.145  0.0409  0.0494  0.1958
15921TIP3    H269179   3.576   6.277  16.103 -1.0374 -0.0176 -1.4110
15922TIP3   OH269180   2.084   1.020  12.036  0.2975  0.2418  0.3876
15922TIP3    H169181   2.113   1.035  11.946 -1.4324  0.3352 -0.1620
15922TIP3    H269182   2.071   1.108  12.072  2.3280  0.2441  1.1990
15923TIP3   OH269183   0.649   5.342   2.683 -0.4537 -0.0113  0.2293
15923TIP3    H169184   0.604   5.304   2.758 -1.1590 -0.4209 -0.3856
15923TIP3    H269185   0.635   5.436   2.690 -4.4061 -0.3342 -1.7861
15924TIP3   OH269186   2.540   4.484   3.399 -0.2911 -0.1234 -0.3863
15924TIP3    H169187   2.486   4.434   3.337 -1.0249  0.3792 -0.1544
15924TIP3    H269188   2.515   4.575   3.385  0.0351  0.0540  0.1746
15925TIP3   OH269189   6.278   0.275  16.526  0.2010 -0.2109  0.5879
15925TIP3    H169190   6.186   0.253  16.508 -0.3120  1.4145  1.1454
15925TIP3    H269191   6.289   0.363  16.491  1.3701 -0.1354  1.1238
15926TIP3   OH269192   5.443   3.302   6.364  0.0700  0.3611 -0.1568
15926TIP3    H169193   5.383   3.319   6.437  0.1169  0.0640 -0.0511
15926TIP3    H269194   5.511   3.369   6.373  0.4941 -0.1573  0.5247
15927TIP3   OH269195   1.335   3.027  11.878 -0.3198 -0.2413 -0.7134
15927TIP3    H169196   1.381   3.025  11.794 -0.9431  0.4339 -1.0808
15927TIP3    H269197   1.263   3.089  11.864 -0.3986 -0.0895  0.3339
15928TIP3   OH269198   4.263   3.220  17.093  0.6695  0.4037  0.0135
15928TIP3    H169199   4.304   3.299  17.057  0.4978  0.0367 -1.0016
15928TIP3    H269200   4.321   3.149  17.067  1.4887  0.3224  2.0126
15929TIP3   OH269201   4.576   6.148  17.236  0.3090 -0.0264 -0.3927
15929TIP3    H169202   4.502   6.120  17.182 -0.6967 -0.9392  1.3970
15929TIP3    H269203   4.647   6.088  17.213 -0.4041 -1.0316  0.0069
15930TIP3   OH269204   1.147   3.055  12.877  0.0241  0.0971 -0.6559
15930TIP3    H169205   1.152   2.961  12.858 -2.2282 -0.3904  1.0129
15930TIP3    H269206   1.211   3.069  12.946  0.5745 -0.1456 -1.1124
15931TIP3   OH269207   4.516   5.993  10.510  0.2755 -0.3612  0.2390
15931TIP3    H169208   4.544   6.083  10.491  0.2351 -0.2596  0.6540
15931TIP3    H269209   4.563   5.939  10.447 -0.8631  0.0971 -1.0406
15932TIP3   OH269210   2.769   5.085  11.504  0.3845  0.0068  0.0794
15932TIP3    H169211   2.687   5.056  11.543 -0.3034  0.7035 -0.8418
15932TIP3    H269212   2.743   5.139  11.430  1.6753 -2.1433 -2.0051
15933TIP3   OH269213   2.557   0.831   5.630 -0.0274  0.2310  0.8242
15933TIP3    H169214   2.620   0.825   5.702  1.4699  0.5470 -0.4252
15933TIP3    H269215   2.593   0.900   5.573 -1.5931  0.5287  0.1797
15934TIP3   OH269216   4.370   4.906   0.802  0.2375  0.6246 -0.0067
15934TIP3    H169217   4.437   4.960   0.761  0.8705 -1.6614 -2.0992
15934TIP3    H269218   4.317   4.874   0.729 -0.5308 -1.0196  1.2322
15935TIP3   OH269219   0.717   4.550  16.246  0.4655 -0.5378 -0.2124
15935TIP3    H169220   0.741   4.457  16.248  0.4986 -0.5450 -0.6975
15935TIP3    H269221   0.797   4.596  16.272  0.6444 -0.6178 -0.6117
15936TIP3   OH269222   5.129   1.876  12.970 -0.3382  0.2991 -0.1909
15936TIP3    H169223   5.093   1.814  12.907 -0.5032 -0.0820  0.2857
15936TIP3    H269224   5.061   1.943  12.980 -0.5497  0.0488  0.0318
15937TIP3   OH269225   4.153   5.959  14.112  0.3194 -0.0580 -0.4087
15937TIP3    H169226   4.168   5.919  14.026  0.5682 -0.4610 -0.1811
15937TIP3    H269227   4.198   5.901  14.173 -0.1125  0.0686  0.0258
15938TIP3   OH269228   1.407   2.410   3.027 -0.3331  0.2821  0.2112
15938TIP3    H169229   1.337   2.471   3.006  0.1288  0.7496 -0.0036
15938TIP3    H269230   1.433   2.372   2.943 -0.2156  0.2369  0.2665
15939TIP3   OH269231   2.729   3.893   4.238 -0.6662  0.3705 -0.1196
15939TIP3    H169232   2.681   3.922   4.160  0.0858  0.2800 -0.6176
15939TIP3    H269233   2.817   3.928   4.227 -0.3636 -0.2368  0.3532
15940TIP3   OH269234   4.218   3.758  16.296  0.2257  0.0588 -0.2309
15940TIP3    H169235   4.199   3.834  16.241  0.4850 -0.3175 -0.8453
15940TIP3    H269236   4.159   3.690  16.263 -1.0685  0.4168  1.2812
15941TIP3   OH269237   3.304   4.195   1.306 -0.0686  0.3722 -0.2733
15941TIP3    H169238   3.367   4.154   1.247 -0.9526 -0.4478 -0.6602
15941TIP3    H269239   3.357   4.248   1.366  0.8641  1.0278 -1.6515
15942TIP3   OH269240   2.578   5.214  15.702 -0.0069 -0.2923 -0.2648
15942TIP3    H169241   2.670   5.227  15.728  0.2951 -0.6678 -1.1218
15942TIP3    H269242   2.535   5.297  15.722  0.4088 -0.2789  0.6120
15943TIP3   OH269243   2.651   2.469  13.314  0.5617 -0.1219 -0.4502
15943TIP3    H169244   2.628   2.512  13.396  0.7549  1.3335 -1.1441
15943TIP3    H269245   2.735   2.427  13.331  1.7868  2.1841 -0.5724
15944TIP3   OH269246   4.496   3.292  11.616 -0.5582 -0.1336  0.0427
15944TIP3    H169247   4.420   3.235  11.612 -0.9971  0.5240 -1.2515
15944TIP3    H269248   4.461   3.381  11.608  0.3676  0.1493 -1.1182
15945TIP3   OH269249   4.219   2.523  11.215  0.6381  0.0058 -0.0048
15945TIP3    H169250   4.177   2.604  11.242  0.8344  0.1340 -0.0806
15945TIP3    H269251   4.265   2.492  11.293  0.7626  0.0953 -0.0424
15946TIP3   OH269252   3.570   1.944   0.490 -0.1970  0.1339 -0.5427
15946TIP3    H169253   3.516   1.906   0.421  0.0320  0.0844 -0.6954
15946TIP3    H269254   3.510   2.001   0.539 -0.4020  0.0274 -0.6702
15947TIP3   OH269255   3.496   2.893  13.193 -0.1025 -0.3811 -0.1019
15947TIP3    H169256   3.439   2.950  13.245 -1.9756 -1.5534 -0.8167
15947TIP3    H269257   3.576   2.944  13.180 -1.2087  1.5210  0.4376
15948TIP3   OH269258   1.769   5.538   3.659 -0.1158  0.3388 -0.4195
15948TIP3    H169259   1.833   5.469   3.677 -0.9244 -0.5744 -0.9483
15948TIP3    H269260   1.818   5.606   3.615  0.7056  0.1083  0.1280
15949TIP3   OH269261   0.297   2.368   4.884  0.1199  0.7601  0.1059
15949TIP3    H169262   0.215   2.323   4.905  0.1974  1.6519  2.5272
15949TIP3    H269263   0.363   2.321   4.934  0.4389  2.5643  1.3951
15950TIP3   OH269264   2.277   0.894  13.978 -0.2765 -0.7443 -0.9633
15950TIP3    H169265   2.368   0.883  14.005 -0.3456  0.7049 -0.1175
15950TIP3    H269266   2.234   0.813  14.005 -0.0806  0.1621  2.1771
15951TIP3   OH269267   5.016   1.865   6.027 -0.1748  0.1514 -0.2261
15951TIP3    H169268   5.036   1.897   6.115 -1.0327 -0.5697  0.2491
15951TIP3    H269269   4.996   1.944   5.977  0.0151  0.5488  0.3170
15952TIP3   OH269270   6.027   5.677  13.084  0.0063 -0.1456  0.5746
15952TIP3    H169271   6.003   5.766  13.056 -0.4913 -0.1327  1.0450
15952TIP3    H269272   6.087   5.692  13.157 -0.9294 -0.2025  1.3614
15953TIP3   OH269273   0.461   1.156   2.340 -0.3320 -0.0096 -0.0539
15953TIP3    H169274   0.405   1.125   2.269  1.0859  0.7291 -1.5205
15953TIP3    H269275   0.446   1.251   2.343  0.4493  0.1248 -0.1353
15954TIP3   OH269276   6.149   5.267   3.261  0.0719  0.4151  0.4242
15954TIP3    H169277   6.206   5.305   3.328  0.7088  0.9490 -0.4069
15954TIP3    H269278   6.070   5.321   3.262  0.2058  0.6078  0.5464
15955TIP3   OH269279   4.362   4.545   1.186 -0.3388 -0.3468 -0.8000
15955TIP3    H169280   4.383   4.606   1.115 -0.7710  0.0931 -0.5587
15955TIP3    H269281   4.433   4.481   1.185  0.0423  0.0772 -1.1520
15956TIP3   OH269282   4.167   4.421   3.622  0.3804 -0.1907 -0.0897
15956TIP3    H169283   4.095   4.484   3.624  0.5302 -0.0359  1.0987
15956TIP3    H269284   4.242   4.470   3.591  0.1520 -0.1543 -0.5840
15957TIP3   OH269285   5.371   1.381   2.886  0.1675 -0.0353 -0.0049
15957TIP3    H169286   5.310   1.408   2.818 -1.1690 -0.6609  0.9166
15957TIP3    H269287   5.456   1.413   2.857 -0.5106  0.3615 -1.5866
15958TIP3   OH269288   5.235   4.356   5.937 -0.0316 -0.0069  0.2444
15958TIP3    H169289   5.307   4.299   5.911  0.3460  0.1967  0.8288
15958TIP3    H269290   5.277   4.428   5.985 -0.7066 -0.5121  1.6387
15959TIP3   OH269291   5.436   6.250  14.031  0.2028 -0.3370 -0.3578
15959TIP3    H169292   5.484   6.328  14.058 -0.2069 -0.3837  0.5282
15959TIP3    H269293   5.356   6.252  14.084  1.3779 -2.7532  1.6124
15960TIP3   OH269294   4.591   5.093  13.955  0.3703 -0.2388  0.1284
15960TIP3    H169295   4.671   5.145  13.957  0.2271  0.0128 -0.3918
15960TIP3    H269296   4.571   5.084  13.861 -0.4634  0.1040  0.2643
15961TIP3   OH269297   0.229   4.637   3.402  0.1496 -0.0450  0.4825
15961TIP3    H169298   0.252   4.553   3.362 -3.1050 -0.0955 -1.5131
15961TIP3    H269299   0.161   4.614   3.466  0.0227  0.9502  0.7071
15962TIP3   OH269300   3.040   1.532  12.068  0.0434 -0.3774 -0.3249
15962TIP3    H169301   3.008   1.585  11.995 -1.6081  0.5948  1.0670
15962TIP3    H269302   2.963   1.484  12.098  0.7377 -0.8632  0.7143
15963TIP3   OH269303   0.087   1.142  12.974 -0.3052  0.3697  0.4806
15963TIP3    H169304  -0.004   1.134  13.004 -0.6633  1.8188 -0.1477
15963TIP3    H269305   0.087   1.102  12.887 -0.1611 -0.3457  0.8111
15964TIP3   OH269306   2.931   4.357   3.755  0.1616  0.4046 -0.2460
15964TIP3    H169307   2.975   4.441   3.771 -0.6226  0.8758 -0.5269
15964TIP3    H269308   2.876   4.374   3.679 -2.0919  0.4215  1.3466
15965TIP3   OH269309   1.861   2.800   4.410  0.0505  0.2733  0.0038
15965TIP3    H169310   1.830   2.789   4.320 -0.7188 -2.3928  0.5649
15965TIP3    H269311   1.799   2.750   4.463  2.4154 -0.9799  1.6602
15966TIP3   OH269312   4.558   5.171  11.443 -0.1510 -0.0387  0.2861
15966TIP3    H169313   4.521   5.210  11.522 -1.1041 -0.2610 -0.0454
15966TIP3    H269314   4.484   5.131  11.399  0.5707 -0.9554 -0.1241
15967TIP3   OH269315   3.201   1.773   4.360 -0.0803 -0.2922  0.3190
15967TIP3    H169316   3.131   1.728   4.313 -0.6306  1.5212 -0.6393
15967TIP3    H269317   3.259   1.703   4.388  0.9260 -1.4470 -4.1272
15968TIP3   OH269318   6.456   2.349  14.841  0.4005 -0.0003  0.5621
15968TIP3    H169319   6.503   2.297  14.906 -1.2347 -1.6127  0.5128
15968TIP3    H269320   6.364   2.327  14.855 -0.0176 -0.0562 -2.0073
15969TIP3   OH269321   4.204   1.910  13.371 -0.6579  0.1875  0.6745
15969TIP3    H169322   4.191   1.868  13.286  0.0413  1.0780  0.1295
15969TIP3    H269323   4.241   1.841  13.426 -0.2229 -0.1283 -0.0100
15970TIP3   OH269324   1.266   2.740  14.826  0.4053  0.5693 -0.0405
15970TIP3    H169325   1.221   2.657  14.811  0.6468  0.6115 -0.9926
15970TIP3    H269326   1.287   2.739  14.920  1.8250 -1.1468 -0.3517
15971TIP3   OH269327   1.050   0.922   2.146 -0.1859 -0.1933  0.6819
15971TIP3    H169328   1.115   0.990   2.127 -1.0275 -0.2640 -2.5948
15971TIP3    H269329   1.013   0.899   2.061 -2.9752 -1.7119  2.2384
15972TIP3   OH269330   2.338   1.102  16.884 -0.4415  0.2027 -0.3641
15972TIP3    H169331   2.429   1.130  16.878 -0.1556 -0.7740 -0.6084
15972TIP3    H269332   2.325   1.083  16.977  0.3978 -2.2761 -0.7227
15973TIP3   OH269333   5.229   5.998  13.612  0.1131  0.0030 -0.3215
15973TIP3    H169334   5.214   5.967  13.522  0.6964  1.2163 -0.8511
15973TIP3    H269335   5.321   6.025  13.612  0.2677 -0.4883  0.8061
15974TIP3   OH269336   1.432   4.397   1.571  0.1530 -0.2630  0.3815
15974TIP3    H169337   1.446   4.370   1.481 -0.2371 -1.3970  0.6507
15974TIP3    H269338   1.339   4.421   1.575  0.1165 -0.4286  0.5357
15975TIP3   OH269339   4.098   6.377  10.788  0.1959  0.0187 -0.2049
15975TIP3    H169340   4.012   6.411  10.812  0.0470 -1.2110  1.0537
15975TIP3    H269341   4.107   6.399  10.695 -0.7082  1.7400  0.0914
15976TIP3   OH269342   5.805   1.380   0.578  0.2615  0.1894  0.2950
15976TIP3    H169343   5.725   1.344   0.539 -0.1860  1.6212 -0.1625
15976TIP3    H269344   5.821   1.326   0.655 -1.2347 -0.0382  0.4633
15977TIP3   OH269345   3.348   1.604  14.252  0.2730 -0.1339  0.0409
15977TIP3    H169346   3.387   1.647  14.328  0.3449 -0.9810  0.5009
15977TIP3    H269347   3.421   1.589  14.192  0.2855  0.1937 -0.0226
15978TIP3   OH269348   5.654   6.430  15.200 -0.2948 -0.0417  0.4380
15978TIP3    H169349   5.741   6.436  15.239 -0.1547 -2.3132  0.5394
15978TIP3    H269350   5.669   6.393  15.113 -0.9958  1.3862 -0.3197
15979TIP3   OH269351   3.511   6.720   2.541  0.0017 -0.8996 -0.0345
15979TIP3    H169352   3.425   6.683   2.519 -0.0890 -1.1616  0.7509
15979TIP3    H269353   3.498   6.763   2.626  0.1682  0.7194 -0.8018
15980TIP3   OH269354   5.314   5.105   0.032  0.1589 -0.3054 -0.3439
15980TIP3    H169355   5.334   5.198   0.047 -1.1516 -0.1266  0.3820
15980TIP3    H269356   5.396   5.068   0.002  1.2870  0.6531  1.4206
15981TIP3   OH269357   3.025   2.800  17.080 -1.0221  0.2335  0.2413
15981TIP3    H169358   2.951   2.749  17.048 -1.5225  1.0096  0.1359
15981TIP3    H269359   3.091   2.794  17.010 -1.3714  0.3662 -0.0963
15982TIP3   OH269360   4.958   5.960  16.207 -0.4217  0.1746  0.1501
15982TIP3    H169361   4.893   5.972  16.275 -2.8362  0.6713 -2.1797
15982TIP3    H269362   4.947   5.869  16.179  0.1514  0.1583 -0.0443
15983TIP3   OH269363   6.728   5.759  16.536 -0.5645  0.0374 -0.7744
15983TIP3    H169364   6.692   5.677  16.503 -0.6832 -0.2399  0.0344
15983TIP3    H269365   6.823   5.746  16.537 -0.5119  0.2845 -1.6141
15984TIP3   OH269366   0.075   3.756  16.878 -0.1192 -0.3425  0.1611
15984TIP3    H169367   0.023   3.822  16.925  0.7906 -0.5080  1.4297
15984TIP3    H269368   0.032   3.747  16.793 -2.1813 -0.4697  1.1883
15985TIP3   OH269369   0.586   0.720   3.350  0.6854 -0.5718  0.0711
15985TIP3    H169370   0.604   0.727   3.256 -2.0690 -0.8802 -0.5235
15985TIP3    H269371   0.492   0.705   3.355  0.7494 -0.2394  2.9231
15986TIP3   OH269372   6.757   5.046  13.951 -0.4637  0.3596  0.1052
15986TIP3    H169373   6.695   4.991  13.997 -0.6966  1.0681  0.6374
15986TIP3    H269374   6.739   5.029  13.858 -0.3026 -0.7106  0.2635
15987TIP3   OH269375   5.271   1.614   3.015 -0.0482  0.0079  0.2204
15987TIP3    H169376   5.310   1.530   3.038 -2.4497 -0.5768  2.3797
15987TIP3    H269377   5.215   1.594   2.940  0.5083 -0.0261 -0.1856
15988TIP3   OH269378   4.784   1.574  11.593 -0.7658 -0.1114 -0.3833
15988TIP3    H169379   4.819   1.486  11.576  1.1977  0.4310  0.7912
15988TIP3    H269380   4.743   1.566  11.679  1.6903  0.7722  0.8924
15989TIP3   OH269381   5.741   4.520  14.796  0.0169 -0.3650  0.2274
15989TIP3    H169382   5.759   4.445  14.738 -0.4813 -0.9925  0.8696
15989TIP3    H269383   5.722   4.592  14.736 -0.9774 -1.1317 -0.4009
15990TIP3   OH269384   0.926   1.572   4.370  1.1024 -0.9886 -0.1097
15990TIP3    H169385   0.935   1.516   4.292  0.0692  0.8451 -1.5957
15990TIP3    H269386   0.995   1.637   4.361 -0.4165  0.6068 -0.7481
15991TIP3   OH269387   0.061   2.278   5.444 -0.7130  0.2234 -0.3691
15991TIP3    H169388   0.155   2.293   5.432 -0.6437  0.2171  0.1651
15991TIP3    H269389   0.052   2.255   5.536 -1.2445  0.2474 -0.4142
15992TIP3   OH269390   4.928   3.720  13.186  0.4644 -0.2052  0.8814
15992TIP3    H169391   4.984   3.679  13.251  0.0191 -1.5863  0.4020
15992TIP3    H269392   4.958   3.811  13.183  0.9555 -0.3016  2.4856
15993TIP3   OH269393   5.748   0.005   1.309 -0.0159 -0.6945  0.3015
15993TIP3    H169394   5.771   0.077   1.251 -0.7377 -0.9280 -0.2800
15993TIP3    H269395   5.661   0.028   1.343  0.9883  0.1415  2.4152
15994TIP3   OH269396   6.149   4.059  12.883  0.3710  0.3696 -0.3100
15994TIP3    H169397   6.062   4.035  12.916  0.1365  1.8904  0.2002
15994TIP3    H269398   6.206   3.986  12.910 -0.4196  0.1623  0.8094
15995TIP3   OH269399   4.429   0.141  11.222 -0.2311  0.5341  0.1704
15995TIP3    H169400   4.377   0.152  11.143  0.6369  0.6490 -0.3856
15995TIP3    H269401   4.413   0.051  11.250  0.7361 -0.0338 -1.0581
15996TIP3   OH269402   1.965   2.042  14.793  0.5833  0.1674  0.4030
15996TIP3    H169403   1.958   1.951  14.822  2.2306 -0.8509 -2.2557
15996TIP3    H269404   1.897   2.052  14.727  2.6677 -0.1977 -1.8460
15997TIP3   OH269405   5.388   0.407   4.860 -0.5630  0.1523  0.1572
15997TIP3    H169406   5.463   0.466   4.872 -1.2396  1.2457 -0.8101
15997TIP3    H269407   5.423   0.320   4.877  1.0803  0.5977 -0.8398
15998TIP3   OH269408   3.159   4.968  13.953  0.2125 -0.2450 -0.2008
15998TIP3    H169409   3.064   4.978  13.954  0.5238  3.2666  0.5380
15998TIP3    H269410   3.186   4.998  13.866  0.8648  1.8263  0.6715
15999TIP3   OH269411   6.622   2.035  13.164 -0.7404 -0.5590  0.0811
15999TIP3    H169412   6.634   2.120  13.208 -1.7436 -0.9637  1.1623
15999TIP3    H269413   6.631   2.055  13.071  3.8028 -0.0710  0.5227
16000TIP3   OH269414   5.595   1.265  17.079  0.2043  0.0666 -0.2330
16000TIP3    H169415   5.505   1.232  17.077 -0.3436  1.5142  0.0383
16000TIP3    H269416   5.613   1.278  17.172 -0.0221  1.6647 -0.3950
16001TIP3   OH269417   0.946   5.986  15.215  0.2130  0.7033 -0.2184
16001TIP3    H169418   0.991   5.902  15.209  0.4727  0.9402 -1.9055
16001TIP3    H269419   0.990   6.041  15.150  0.2640  2.2443  1.1012
16002TIP3   OH269420   1.514   1.593  16.624  0.2565 -0.0358  0.2973
16002TIP3    H169421   1.466   1.671  16.597 -0.5495 -0.9995 -1.1517
16002TIP3    H269422   1.604   1.623  16.637  0.2342  0.9025 -1.5517
16003TIP3   OH269423   5.546   0.068  14.303 -0.2309  0.9482  0.8625
16003TIP3    H169424   5.550  -0.014  14.352 -0.4640  1.0167  0.9951
16003TIP3    H269425   5.484   0.122  14.351 -1.7214  0.4149 -0.4187
16004TIP3   OH269426   0.704   1.255  15.495 -0.3814  0.0187  0.7685
16004TIP3    H169427   0.723   1.258  15.588  1.7035 -0.4712  0.3891
16004TIP3    H269428   0.716   1.344  15.464  0.2910 -0.0749  0.7405
16005TIP3   OH269429   3.825   3.210  12.739 -0.0214 -0.0807 -0.2288
16005TIP3    H169430   3.819   3.114  12.744  1.3529 -0.2613 -1.9092
16005TIP3    H269431   3.898   3.227  12.680  0.5006  2.0236  0.9717
16006TIP3   OH269432   1.356   3.225   1.142 -0.7163  0.3561  0.7120
16006TIP3    H169433   1.418   3.183   1.202 -0.8051 -1.4582 -0.4385
16006TIP3    H269434   1.306   3.153   1.104 -0.2388  1.3769 -2.0129
16007TIP3   OH269435   3.788   1.764  14.575  0.2730  0.6803 -0.1196
16007TIP3    H169436   3.853   1.699  14.546 -1.6167 -1.5421  0.4392
16007TIP3    H269437   3.827   1.803  14.653  0.7580 -0.9332  0.4637
16008TIP3   OH269438   0.935   0.834  13.942 -0.1870 -0.0629 -0.0497
16008TIP3    H169439   0.983   0.844  13.859 -1.2089 -0.7826 -0.7416
16008TIP3    H269440   1.002   0.808  14.005  0.3432 -1.1236 -1.0237
16009TIP3   OH269441   6.740   4.616  16.972 -0.0560  0.2172 -0.8798
16009TIP3    H169442   6.814   4.669  17.002 -0.1373 -0.1394 -0.0358
16009TIP3    H269443   6.715   4.564  17.049 -0.6809 -0.2318 -1.3829
16010TIP3   OH269444   1.574   6.700   2.843  0.6963  0.4457  0.0272
16010TIP3    H169445   1.503   6.711   2.781 -0.5863 -0.4417  1.3087
16010TIP3    H269446   1.584   6.786   2.884  0.5606  0.6445 -0.3576
16011TIP3   OH269447   3.124   1.388  14.375 -0.3547 -0.4686  0.2604
16011TIP3    H169448   3.208   1.403  14.417 -0.1683  1.1615 -0.6381
16011TIP3    H269449   3.079   1.326  14.432  1.3064 -1.0729  0.9315
16012TIP3   OH269450   3.916   0.819   1.353 -0.0903 -0.3814 -0.4694
16012TIP3    H169451   3.946   0.887   1.293  1.1492 -1.9783 -1.7328
16012TIP3    H269452   3.836   0.785   1.313 -0.5223  0.0952 -0.0158
16013TIP3   OH269453   2.981   4.034  16.877  0.0543  0.0020  0.4449
16013TIP3    H169454   3.033   4.043  16.797 -0.1209  0.9340  0.4266
16013TIP3    H269455   3.018   4.101  16.936 -0.1871 -0.3006  0.9365
16014TIP3   OH269456   1.763   0.793   4.010  0.8235  1.1454 -0.4336
16014TIP3    H169457   1.775   0.706   3.973  1.4313  0.3126  1.6364
16014TIP3    H269458   1.852   0.825   4.026  0.5860  1.7370 -0.2523
16015TIP3   OH269459   3.252   0.862   1.561 -0.1391  0.2383 -0.0515
16015TIP3    H169460   3.212   0.775   1.557 -1.1622  0.5858  1.9113
16015TIP3    H269461   3.299   0.863   1.644 -0.1465  1.5682 -0.0532
16016TIP3   OH269462   0.025   0.987   5.158  0.0567 -0.0500  0.4148
16016TIP3    H169463   0.055   0.911   5.108  1.3744  3.0044 -3.8226
16016TIP3    H269464  -0.063   1.005   5.123  0.8262  1.8814 -0.6319
16017TIP3   OH269465   5.445   2.751   0.320  0.1226 -0.4685 -0.8212
16017TIP3    H169466   5.412   2.832   0.357  0.3039 -1.4034  1.4937
16017TIP3    H269467   5.517   2.778   0.264  1.3839  0.8787  1.3543
16018TIP3   OH269468   6.640   0.304   3.474 -0.7833  0.2677  0.0797
16018TIP3    H169469   6.646   0.397   3.452 -2.5873 -0.1395 -2.2383
16018TIP3    H269470   6.552   0.293   3.509 -0.4927 -0.5201  0.5669
16019TIP3   OH269471   2.076   3.717  14.186  0.0970  0.4023 -0.2440
16019TIP3    H169472   2.050   3.735  14.095 -1.0221 -0.7101 -0.1433
16019TIP3    H269473   2.012   3.654  14.218  0.7136  0.4960  1.2107
16020TIP3   OH269474   1.131   5.783   2.473 -0.0145 -0.1628  0.9499
16020TIP3    H169475   1.185   5.827   2.539  0.3508 -0.9705  1.2063
16020TIP3    H269476   1.194   5.731   2.422 -0.4162 -0.2845  0.5752
16021TIP3   OH269477   3.546   5.458   4.367 -0.2919 -0.3161  0.8221
16021TIP3    H169478   3.465   5.409   4.351  0.1280 -0.8226  0.1909
16021TIP3    H269479   3.582   5.419   4.446 -1.6311  1.2075  2.2391
16022TIP3   OH269480   0.518   1.615   5.077 -0.4532  0.3027  0.7654
16022TIP3    H169481   0.562   1.688   5.122 -2.4535  1.4115  0.9682
16022TIP3    H269482   0.467   1.573   5.146  0.1175 -0.8739  0.4833
16023TIP3   OH269483   1.598   1.128  11.158  0.4303 -0.2691 -0.6225
16023TIP3    H169484   1.579   1.181  11.236  0.3750 -1.8641  0.4671
16023TIP3    H269485   1.518   1.079  11.141  1.2152 -1.7095 -0.2456
16024TIP3   OH269486   2.727   2.404  10.702 -0.2045  0.4796  0.1738
16024TIP3    H169487   2.770   2.366  10.779 -1.0134  1.0220  0.8963
16024TIP3    H269488   2.796   2.405  10.634  0.7071  0.6482  1.0866
16025TIP3   OH269489   3.372   1.926   0.036  0.6701  0.2482  0.0351
16025TIP3    H169490   3.319   1.860  -0.009  0.5736  0.5493 -0.2964
16025TIP3    H269491   3.415   1.878   0.106 -2.5698  0.6045  2.4038
16026TIP3   OH269492   4.306   0.158   3.977 -0.4727  0.0653  0.2731
16026TIP3    H169493   4.243   0.092   4.002 -1.9316  1.2636 -0.1775
16026TIP3    H269494   4.255   0.239   3.970  1.4410  1.4729  1.8986
16027TIP3   OH269495   1.511   1.820  11.439 -0.2245  0.0160  0.5936
16027TIP3    H169496   1.427   1.865  11.444 -1.6400 -2.3736 -0.4337
16027TIP3    H269497   1.535   1.804  11.530  0.5917  3.2491  0.9933
16028TIP3   OH269498   4.529   0.068  14.497 -0.4237  0.1410  0.1675
16028TIP3    H169499   4.568   0.007  14.434 -2.8520 -0.0108 -1.2270
16028TIP3    H269500   4.435   0.050  14.494 -0.8008  1.5292  2.3635
16029TIP3   OH269501   0.447   3.801  14.439  0.2030  0.1791  0.3885
16029TIP3    H169502   0.526   3.815  14.386  0.2934  0.5807  0.6328
16029TIP3    H269503   0.412   3.888  14.454  2.3169  0.4755  4.2640
16030TIP3   OH269504   0.268   2.288   3.738 -0.5353 -0.1940  0.2916
16030TIP3    H169505   0.361   2.305   3.723 -1.1509  0.0222 -3.7570
16030TIP3    H269506   0.262   2.193   3.747 -0.1855 -0.4149 -1.6867
16031TIP3   OH269507   6.475   4.161  16.388 -0.3741  0.1242  0.1883
16031TIP3    H169508   6.436   4.195  16.468 -1.4375  0.1286 -0.3204
16031TIP3    H269509   6.412   4.096  16.357  1.1976 -1.6811  0.6625
16032TIP3   OH269510   6.669   4.482   1.965  0.2008 -0.3455 -0.6255
16032TIP3    H169511   6.754   4.502   1.926 -0.8468  0.3190 -2.6682
16032TIP3    H269512   6.612   4.465   1.890 -1.2932 -1.5507  0.7383
16033TIP3   OH269513   5.293   2.930   0.825  0.3596  0.1474 -0.1370
16033TIP3    H169514   5.361   2.862   0.829 -0.2170 -0.6060 -2.4530
16033TIP3    H269515   5.250   2.916   0.741 -2.2393  1.0572  0.9997
16034TIP3   OH269516   6.461   5.699  14.005 -0.3834 -0.5419  0.0837
16034TIP3    H169517   6.452   5.621  14.060  0.3660 -0.5188  0.2442
16034TIP3    H269518   6.413   5.767  14.052 -2.9541 -1.4437 -1.1575
16035TIP3   OH269519   2.045   4.480  11.853 -0.3040  0.2514 -0.3024
16035TIP3    H169520   1.977   4.501  11.917 -0.8123  1.1679 -1.1239
16035TIP3    H269521   2.022   4.533  11.776  2.5759  2.2712  0.1620
16036TIP3   OH269522   0.719   1.992  15.104  0.4881 -0.1380  0.4039
16036TIP3    H169523   0.799   1.941  15.121 -0.2199 -1.1775  0.6656
16036TIP3    H269524   0.701   2.038  15.185  0.5188 -0.3386  0.5249
16037TIP3   OH269525   2.581   4.453   0.611  0.4645 -0.4101  0.1212
16037TIP3    H169526   2.584   4.360   0.589 -0.5574 -1.0028  2.3150
16037TIP3    H269527   2.586   4.455   0.707 -0.2204  1.7565  0.1383
16038TIP3   OH269528   2.380   3.674  12.137 -0.3277  0.4678 -0.0804
16038TIP3    H169529   2.299   3.625  12.121  1.2084 -2.0275 -0.4907
16038TIP3    H269530   2.376   3.749  12.078 -1.1665 -1.0398 -1.9572
16039TIP3   OH269531   1.090   5.795  15.893  0.2216  0.0422  0.0505
16039TIP3    H169532   1.069   5.874  15.843  1.0425  0.0465 -0.2855
16039TIP3    H269533   1.165   5.757  15.847 -1.2522 -1.8843 -0.8419
16040TIP3   OH269534   3.737   6.237   1.453 -0.3666 -0.0769 -0.2152
16040TIP3    H169535   3.810   6.298   1.448 -0.3862 -0.0405 -0.0434
16040TIP3    H269536   3.660   6.290   1.434 -0.3234 -0.1621 -0.6172
16041TIP3   OH269537   5.646   6.703   4.743 -0.2739 -0.2690  0.1779
16041TIP3    H169538   5.599   6.661   4.815 -0.4221 -1.9142 -0.8560
16041TIP3    H269539   5.691   6.632   4.698  1.1975  0.9697 -0.3431
16042TIP3   OH269540   6.629   4.879  11.831  0.3071 -0.4890 -0.8425
16042TIP3    H169541   6.615   4.866  11.924  3.4822  0.1348 -0.1894
16042TIP3    H269542   6.602   4.797  11.790  1.0196 -1.6202  0.8996
16043TIP3   OH269543   4.429   5.659  15.680 -1.0297  0.3495  0.1885
16043TIP3    H169544   4.384   5.605  15.745 -0.3691 -0.3676  0.0509
16043TIP3    H269545   4.475   5.725  15.732  0.0961 -0.6648  0.5116
16044TIP3   OH269546   3.214   0.717   4.034  0.3082 -0.3998 -0.4105
16044TIP3    H169547   3.123   0.738   4.012  0.0589 -1.0175  0.0111
16044TIP3    H269548   3.263   0.736   3.954 -0.0671  0.7566 -0.3698
16045TIP3   OH269549   1.515   2.120  14.657 -0.3730  0.0325 -0.1865
16045TIP3    H169550   1.548   2.168  14.582 -1.0369  2.3638  0.9821
16045TIP3    H269551   1.455   2.180  14.701  0.2800 -1.1165  2.4353
16046TIP3   OH269552   0.808   2.824   4.398 -0.1724 -0.4008  0.2563
16046TIP3    H169553   0.803   2.737   4.438 -0.7335 -0.9530 -0.9963
16046TIP3    H269554   0.814   2.807   4.304 -1.2353  0.9410 -0.0701
16047TIP3   OH269555   0.923   6.528   0.072 -0.2382  0.6801  0.1764
16047TIP3    H169556   0.864   6.603   0.063 -1.4773 -0.5725 -2.7866
16047TIP3    H269557   0.965   6.520  -0.013  1.4771 -0.7119  1.1259
16048TIP3   OH269558   4.670   1.515   6.219  0.0887 -0.4457 -0.3416
16048TIP3    H169559   4.648   1.572   6.292 -0.2887  0.0046 -0.8030
16048TIP3    H269560   4.714   1.572   6.156 -0.8073 -0.5354 -1.0524
16049TIP3   OH269561   0.470   5.199   2.344  0.4309  0.3486  0.2589
16049TIP3    H169562   0.492   5.209   2.251  1.2536  1.6896  0.5809
16049TIP3    H269563   0.461   5.289   2.376 -1.4250 -0.1237  1.1252
16050TIP3   OH269564   5.697   3.423  15.004 -0.0770 -0.0153 -0.5387
16050TIP3    H169565   5.673   3.336  14.972  0.9696  0.2532 -2.1024
16050TIP3    H269566   5.767   3.407  15.067  1.1366 -0.2038 -1.9240
16051TIP3   OH269567   5.200   6.414  15.472 -0.2661  0.3163 -0.7777
16051TIP3    H169568   5.179   6.328  15.435 -1.7073 -0.3191  1.4176
16051TIP3    H269569   5.284   6.401  15.516 -0.9598 -0.2563  0.4015
16052TIP3   OH269570   2.671   3.405   4.424 -0.0683  0.8262  0.1042
16052TIP3    H169571   2.722   3.375   4.499  0.6541 -0.0420 -0.7270
16052TIP3    H269572   2.665   3.500   4.436  1.6651  0.9272  0.2522
16053TIP3   OH269573   0.604   3.230   1.026 -0.1489 -0.2432  0.0497
16053TIP3    H169574   0.631   3.188   1.108 -0.3279  1.2186  0.8727
16053TIP3    H269575   0.636   3.320   1.033 -0.8233  0.1048 -1.1664
16054TIP3   OH269576   4.853   0.457  12.283  0.0351  0.1856  0.1653
16054TIP3    H169577   4.773   0.466  12.335  0.6961  1.4150  0.9862
16054TIP3    H269578   4.872   0.363  12.284  0.8718  0.3187  3.4548
16055TIP3   OH269579   4.761   5.996  11.742 -0.9741  0.2061 -0.0247
16055TIP3    H169580   4.765   5.901  11.735  0.7953  0.2867 -0.1814
16055TIP3    H269581   4.811   6.017  11.821 -2.0679  0.9520  0.4844
16056TIP3   OH269582   0.770   5.654   5.281  0.2884  0.6588 -0.3152
16056TIP3    H169583   0.792   5.587   5.345 -2.6281  0.8544  0.9845
16056TIP3    H269584   0.697   5.617   5.231  0.6852  1.6185 -1.6437
16057TIP3   OH269585   4.659   4.960   0.997 -0.1643  0.2197  0.3688
16057TIP3    H169586   4.644   4.910   0.917 -2.4658  0.5742  0.5641
16057TIP3    H269587   4.740   5.009   0.979  1.5807 -2.7268 -0.1838
16058TIP3   OH269588   1.237   2.223   1.769 -0.0142  0.0397  0.2764
16058TIP3    H169589   1.277   2.290   1.715  1.1399 -0.4434  0.5119
16058TIP3    H269590   1.256   2.140   1.724 -0.0254 -0.2659  0.8229
16059TIP3   OH269591   5.721   1.273  15.932  0.4240 -0.1579 -0.0657
16059TIP3    H169592   5.799   1.328  15.921  0.6425 -0.6046 -0.8580
16059TIP3    H269593   5.670   1.288  15.852 -0.2445  0.0397  0.3973
16060TIP3   OH269594   4.356   0.987   3.968  0.1650  0.0965  0.2661
16060TIP3    H169595   4.355   0.915   3.905 -3.6105  0.3438 -0.0528
16060TIP3    H269596   4.359   1.066   3.915 -1.0552  0.2587  0.4171
16061TIP3   OH269597   6.633   5.439  13.466  0.2860 -0.0755  0.2223
16061TIP3    H169598   6.682   5.391  13.533  1.2729 -0.6451 -0.8722
16061TIP3    H269599   6.573   5.494  13.515  1.5118  0.0770  1.6023
16062TIP3   OH269600   5.720   0.653   5.265  0.2397  0.3662 -0.2280
16062TIP3    H169601   5.745   0.674   5.175 -0.2792  2.4294  0.0879
16062TIP3    H269602   5.633   0.614   5.256  0.5592 -0.2492 -0.6937
16063TIP3   OH269603   1.429   5.458  15.360  0.2194  0.0461 -0.2851
16063TIP3    H169604   1.362   5.391  15.369  1.1517 -0.8447  0.1981
16063TIP3    H269605   1.506   5.411  15.328  0.3591  1.2061 -1.6804
16064TIP3   OH269606   5.723   2.720  15.509 -0.2886  0.1115 -0.2246
16064TIP3    H169607   5.628   2.711  15.500 -0.4778  0.5770  1.1879
16064TIP3    H269608   5.746   2.658  15.579  0.6478 -0.9922 -1.4897
16065TIP3   OH269609   6.009   4.431  10.358  0.1151  0.0439  0.3206
16065TIP3    H169610   6.045   4.506  10.311  1.0818 -1.2140 -0.9861
16065TIP3    H269611   5.941   4.469  10.414 -0.8069  1.6385 -1.7892
16066TIP3   OH269612   5.013   5.291   4.590  0.1067  0.2187 -0.6799
16066TIP3    H169613   5.092   5.306   4.640 -0.5722 -0.4576  0.6092
16066TIP3    H269614   5.043   5.275   4.500  1.6114 -2.5653  0.2712
16067TIP3   OH269615   4.439   1.879   2.485  0.8342  0.3709  0.4138
16067TIP3    H169616   4.373   1.894   2.418  0.8518  1.6761  0.6811
16067TIP3    H269617   4.518   1.919   2.452  1.8508 -2.2133 -0.4343
16068TIP3   OH269618   1.327   2.326   0.677  0.2797 -0.3268 -0.2950
16068TIP3    H169619   1.237   2.292   0.675  0.1835 -0.0287 -1.0655
16068TIP3    H269620   1.320   2.415   0.644  0.5501  0.4393  1.6179
16069TIP3   OH269621   2.650   6.444   2.192 -0.4755  0.4025 -0.2040
16069TIP3    H169622   2.637   6.421   2.100  0.7246 -0.0523 -0.2721
16069TIP3    H269623   2.693   6.530   2.189  0.6527 -0.1555 -0.0994
16070TIP3   OH269624   6.631   6.151  11.288  0.5578  0.0838  0.1232
16070TIP3    H169625   6.711   6.103  11.311  1.7950  2.4278  0.8630
16070TIP3    H269626   6.597   6.182  11.372  0.1697  1.1329 -0.4181
16071TIP3   OH269627   0.260   0.615   1.220  0.0398  0.0942 -0.6656
16071TIP3    H169628   0.346   0.656   1.235  1.4184 -3.5399  2.0520
16071TIP3    H269629   0.271   0.568   1.137  0.7072 -0.4450 -0.2763
16072TIP3   OH269630   5.607   0.018  12.672 -0.5809  0.2754  0.2104
16072TIP3    H169631   5.541   0.060  12.727 -0.5612  0.9196 -0.2530
16072TIP3    H269632   5.682   0.005  12.730  0.2455  2.9671 -0.2132
16073TIP3   OH269633   2.221   3.540   5.677 -0.7558 -0.0682  0.1891
16073TIP3    H169634   2.215   3.617   5.734  2.7507  0.3133  0.1439
16073TIP3    H269635   2.263   3.473   5.731 -2.8133 -1.6671 -0.1138
16074TIP3   OH269636   2.232   6.468  11.297  0.0713 -0.1840  0.4117
16074TIP3    H169637   2.196   6.420  11.372  0.6232 -0.2908  0.6081
16074TIP3    H269638   2.217   6.409  11.223 -2.1732  0.7119  0.1151
16075TIP3   OH269639   6.038   3.164  13.660 -0.1355  0.1192 -0.0254
16075TIP3    H169640   6.037   3.090  13.720 -0.3685 -0.1217 -0.3240
16075TIP3    H269641   6.116   3.214  13.685 -0.2007 -0.0078  0.4364
16076TIP3   OH269642   6.496   6.228  13.145  0.1425  0.6710  0.3143
16076TIP3    H169643   6.457   6.266  13.066 -0.4350  1.0289  0.7651
16076TIP3    H269644   6.471   6.136  13.143 -0.0006  0.7137  0.1606
16077TIP3   OH269645   2.085   2.486  14.526 -0.1444 -0.5102  0.1040
16077TIP3    H169646   2.056   2.480  14.617 -1.5063  2.3452 -0.0658
16077TIP3    H269647   2.023   2.547  14.486  1.8367  0.0892 -2.1595
16078TIP3   OH269648   0.724   2.518   1.561 -0.7381 -0.4153 -0.3271
16078TIP3    H169649   0.691   2.603   1.531  0.5681 -0.2896 -1.4607
16078TIP3    H269650   0.676   2.455   1.508  1.1213 -0.2144 -2.3129
16079TIP3   OH269651   0.995   3.131   2.089  0.2648  0.1226  0.2393
16079TIP3    H169652   1.058   3.079   2.139  1.4451  1.3067  0.0100
16079TIP3    H269653   0.972   3.204   2.146 -0.2764  0.1397  0.0039
16080TIP3   OH269654   1.453   1.518   2.758 -0.1958  0.5837 -0.1067
16080TIP3    H169655   1.438   1.424   2.753  0.8396  0.4418 -0.8430
16080TIP3    H269656   1.377   1.553   2.804 -0.4092 -0.6553  0.4785
16081TIP3   OH269657   0.327   1.503   5.640  0.2982 -0.7394  0.2298
16081TIP3    H169658   0.370   1.425   5.674  2.7644  0.5719  0.2866
16081TIP3    H269659   0.400   1.561   5.615 -1.4614  1.3047 -0.3125
16082TIP3   OH269660   3.651   2.332  16.660  0.4362 -0.7373  0.6309
16082TIP3    H169661   3.612   2.407  16.705 -1.4973 -1.2735 -0.1192
16082TIP3    H269662   3.725   2.369  16.611 -1.1068  0.8836 -0.5512
16083TIP3   OH269663   6.202   5.435  11.565  0.1247 -0.4512  0.5071
16083TIP3    H169664   6.153   5.433  11.483  0.3201 -1.6720  0.4043
16083TIP3    H269665   6.275   5.494  11.548 -1.7359  2.0544  0.9349
16084TIP3   OH269666   3.100   3.678  13.891 -0.1936 -0.0734  0.4292
16084TIP3    H169667   3.065   3.745  13.833  0.2680 -0.3778 -0.2072
16084TIP3    H269668   3.037   3.673  13.963 -1.3468 -0.4685 -0.5871
16085TIP3   OH269669   0.451   4.249  11.874  0.3419 -0.9045 -0.0451
16085TIP3    H169670   0.401   4.221  11.798 -0.7852 -1.5225  0.9143
16085TIP3    H269671   0.469   4.168  11.923  1.0891 -0.5217  0.3328
16086TIP3   OH269672   4.579   1.726   0.133 -0.0325 -0.1145 -0.5704
16086TIP3    H169673   4.491   1.711   0.168  0.3585 -0.2409  0.3601
16086TIP3    H269674   4.623   1.780   0.199 -0.1675  1.9276 -2.1072
16087TIP3   OH269675   5.663   3.755   1.130 -0.3241  0.3086  0.4743
16087TIP3    H169676   5.658   3.848   1.148  1.3450  0.5163 -0.0602
16087TIP3    H269677   5.648   3.747   1.036 -0.9685 -0.0262  0.5962
16088TIP3   OH269678   4.373   0.207  16.584  0.3916 -0.6339 -0.3968
16088TIP3    H169679   4.468   0.197  16.593  0.1692 -0.8933  2.0438
16088TIP3    H269680   4.340   0.118  16.579  0.1670 -0.5694 -0.0437
16089TIP3   OH269681   6.787   1.468  15.283 -0.0061 -0.3228  0.6658
16089TIP3    H169682   6.696   1.462  15.252 -0.0181  1.0533  0.3891
16089TIP3    H269683   6.834   1.511  15.212  0.7687 -0.6217  0.9916
16090TIP3   OH269684   5.624   1.714   4.859  0.3554 -0.5463  0.7147
16090TIP3    H169685   5.707   1.739   4.900  0.4220 -1.1144  0.9333
16090TIP3    H269686   5.560   1.776   4.894  0.5705 -0.5022  1.0267
16091TIP3   OH269687   0.277   5.375   2.110  0.4246 -0.0919  0.1582
16091TIP3    H169688   0.236   5.301   2.065  0.0322 -0.6240  1.3615
16091TIP3    H269689   0.208   5.409   2.167  0.6509  1.1055 -0.2794
16092TIP3   OH269690   6.258   1.020   4.265  0.5230  0.3519  0.5029
16092TIP3    H169691   6.233   0.974   4.345 -1.1728  1.5711  0.6824
16092TIP3    H269692   6.337   1.069   4.289  1.4061 -1.1513  0.7437
16093TIP3   OH269693   2.297   2.735   0.552  0.0497  0.1739 -0.0290
16093TIP3    H169694   2.366   2.789   0.514 -0.6737  0.2738 -1.2516
16093TIP3    H269695   2.221   2.752   0.496 -1.6316  1.8582  2.6405
16094TIP3   OH269696   0.381   1.190   4.707  0.2331 -0.2377  0.2006
16094TIP3    H169697   0.326   1.252   4.658  0.6855  0.7416  0.9287
16094TIP3    H269698   0.320   1.120   4.733 -0.2934 -0.0667 -0.5583
16095TIP3   OH269699   1.713   2.567  14.314  0.1355 -0.3395 -0.2440
16095TIP3    H169700   1.754   2.503  14.255 -1.2151 -0.3748 -1.1563
16095TIP3    H269701   1.787   2.617  14.350  1.4326 -3.6226  1.9893
16096TIP3   OH269702   5.358   1.372   0.625  0.2561 -0.0461 -0.6324
16096TIP3    H169703   5.344   1.466   0.623  1.2309  0.0995 -0.7921
16096TIP3    H269704   5.368   1.347   0.533  0.6353 -0.2081 -0.5480
16097TIP3   OH269705   1.483   5.877  14.046  0.2914  0.2372 -0.5817
16097TIP3    H169706   1.509   5.969  14.058 -1.1843  0.7496 -1.1749
16097TIP3    H269707   1.399   5.882  14.000  0.0326 -1.4128 -0.3093
16098TIP3   OH269708   3.255   6.429   5.201  0.0823  0.0813  0.3760
16098TIP3    H169709   3.160   6.415   5.199  0.1280 -0.2983  1.0597
16098TIP3    H269710   3.289   6.360   5.257  0.6659  0.8115  0.9319
16099TIP3   OH269711   5.153   3.525   2.205  0.8443  0.1459  0.0694
16099TIP3    H169712   5.241   3.499   2.233  1.2737  0.7606 -0.6838
16099TIP3    H269713   5.123   3.586   2.273  1.1217  0.1694  0.1729
16100TIP3   OH269714   3.410   3.043   5.194 -0.1484  0.1647 -0.6418
16100TIP3    H169715   3.345   2.981   5.228 -1.3411  1.7593  0.0427
16100TIP3    H269716   3.411   3.114   5.258  0.9052  1.0500 -1.6247
16101TIP3   OH269717   2.660   0.299  13.863  0.3223 -0.0650  0.0528
16101TIP3    H169718   2.624   0.367  13.806  2.0042 -0.8039 -1.9489
16101TIP3    H269719   2.658   0.220  13.810  1.9211 -0.7664  1.0029
16102TIP3   OH269720   0.245   2.799   5.976 -0.2925 -0.1174  0.6083
16102TIP3    H169721   0.212   2.850   6.050 -0.1633 -0.0037  0.5875
16102TIP3    H269722   0.313   2.743   6.014 -1.2616 -1.1427  0.8581
16103TIP3   OH269723   6.016   1.307  11.577  0.2023 -0.5354  0.5441
16103TIP3    H169724   6.039   1.348  11.494 -3.7723  1.0839  0.1222
16103TIP3    H269725   6.052   1.367  11.644  1.6257 -0.7699  0.0019
16104TIP3   OH269726   6.032   5.026  11.013 -0.4769  0.7194 -0.2956
16104TIP3    H169727   6.117   5.065  10.992 -0.9359  1.7654 -0.1872
16104TIP3    H269728   6.047   4.981  11.096  0.2491 -0.0143 -0.7982
16105TIP3   OH269729   2.444   1.665   0.411  0.1058  0.0572  0.2030
16105TIP3    H169730   2.447   1.747   0.460 -1.1659  0.3975 -0.2812
16105TIP3    H269731   2.462   1.597   0.477 -0.8592  0.5626  1.0121
16106TIP3   OH269732   0.671   5.381  15.635  0.3175  0.0511 -0.4831
16106TIP3    H169733   0.580   5.353  15.631  0.6987 -1.2142 -0.4590
16106TIP3    H269734   0.700   5.357  15.724  0.2463  1.8235  0.0444
16107TIP3   OH269735   2.393   3.404   2.629  0.0054  1.1631  0.0824
16107TIP3    H169736   2.483   3.429   2.612  0.5475 -0.0821  1.0256
16107TIP3    H269737   2.367   3.353   2.553  0.1830  1.2693 -0.0501
16108TIP3   OH269738   0.825   5.211  15.124  1.0666 -0.1111  0.4307
16108TIP3    H169739   0.732   5.189  15.129  1.3960 -1.0079  3.6464
16108TIP3    H269740   0.828   5.288  15.067 -1.6358 -0.0674  0.2706
16109TIP3   OH269741   5.396   3.503   0.692  0.4822 -0.5338 -0.3389
16109TIP3    H169742   5.466   3.540   0.637  0.3043  0.1065 -0.1437
16109TIP3    H269743   5.321   3.496   0.633  0.6005 -0.8496 -0.4491
16110TIP3   OH269744   1.214   4.497  12.137 -0.0338 -0.0150 -0.0766
16110TIP3    H169745   1.229   4.575  12.191  0.4766 -0.3423  0.2615
16110TIP3    H269746   1.153   4.526  12.070  0.8070  0.9123 -0.4610
16111TIP3   OH269747   0.621   2.795  15.566  0.1855  0.0671  0.1055
16111TIP3    H169748   0.613   2.718  15.508 -0.0156 -1.8360  2.5842
16111TIP3    H269749   0.685   2.851  15.522  0.0856 -1.3552 -1.9400
16112TIP3   OH269750   0.328   2.486   5.850 -0.6728 -0.0778 -0.3550
16112TIP3    H169751   0.247   2.530   5.824 -2.6133 -2.6450  1.0940
16112TIP3    H269752   0.346   2.425   5.778  0.9594  1.6046 -1.4511
16113TIP3   OH269753   2.969   2.878  16.279  0.0181  0.6934 -0.0728
16113TIP3    H169754   2.933   2.967  16.291  1.3337  1.3981 -1.2246
16113TIP3    H269755   3.043   2.874  16.339 -0.5614  0.0630  0.6066
16114TIP3   OH269756   5.563   6.669  11.560 -0.6148 -0.1245  0.0371
16114TIP3    H169757   5.656   6.678  11.579 -1.1483  0.6562  2.4355
16114TIP3    H269758   5.521   6.734  11.616 -2.6926 -1.1608 -0.2897
16115TIP3   OH269759   2.350   0.423  11.286 -0.0319 -0.6263 -0.1380
16115TIP3    H169760   2.289   0.484  11.327  1.0031 -0.1278  0.6931
16115TIP3    H269761   2.356   0.453  11.195 -1.4652 -1.0461 -0.3851
16116TIP3   OH269762   3.421   0.072   3.383  0.5161  0.1844 -0.6184
16116TIP3    H169763   3.337   0.049   3.344 -0.4502  1.3355  0.7109
16116TIP3    H269764   3.424   0.023   3.465  2.2175 -1.6705 -1.7240
16117TIP3   OH269765   5.917   3.621   4.480 -0.3641  0.0199  0.2402
16117TIP3    H169766   6.004   3.616   4.520  0.6637 -0.1689 -1.9216
16117TIP3    H269767   5.935   3.625   4.386 -2.7171 -0.2972 -0.2413
16118TIP3   OH269768   3.402   2.929  16.666  0.1181 -0.3733  0.1424
16118TIP3    H169769   3.498   2.927  16.671  0.2631  1.4978 -1.1606
16118TIP3    H269770   3.377   2.837  16.653  1.6222 -1.0677  1.8909
16119TIP3   OH269771   1.422   2.657  11.559  0.1175 -0.2012  0.0060
16119TIP3    H169772   1.502   2.639  11.607  0.3388  1.0440  0.1327
16119TIP3    H269773   1.435   2.745  11.523 -1.4540  0.2729  0.5681
16120TIP3   OH269774   6.146   3.280  15.460  0.2682 -0.3472  0.0172
16120TIP3    H169775   6.101   3.246  15.537 -2.3947  0.5706 -1.0809
16120TIP3    H269776   6.130   3.374  15.462 -0.5188 -0.4069 -2.0518
16121TIP3   OH269777   5.311   0.766   6.363 -0.3439 -0.3219  0.3856
16121TIP3    H169778   5.353   0.851   6.379 -0.3527 -0.2211 -0.1237
16121TIP3    H269779   5.224   0.789   6.331 -0.9268 -0.5295  1.7681
16122TIP3   OH269780   3.798   0.371   5.036 -0.6373 -0.0676 -0.4995
16122TIP3    H169781   3.880   0.375   4.986  1.3598  0.5677  2.6577
16122TIP3    H269782   3.747   0.446   5.004  1.4811  1.5943 -0.1114
16123TIP3   OH269783   6.471   2.713   4.931  0.1180 -0.1994 -0.0954
16123TIP3    H169784   6.458   2.667   5.013  1.7803  0.1912  0.4123
16123TIP3    H269785   6.532   2.784   4.953 -0.3549  0.6302 -1.4063
16124TIP3   OH269786   3.680   5.749  16.741  0.0443 -0.3288  0.1290
16124TIP3    H169787   3.726   5.731  16.823  0.1757 -0.0907  0.1074
16124TIP3    H269788   3.664   5.843  16.742  0.8997 -0.1609 -0.5560
16125TIP3   OH269789   2.975   2.060   3.085  0.2635  0.2518  0.6045
16125TIP3    H169790   3.041   2.061   3.153 -0.3786  0.5933  1.2325
16125TIP3    H269791   2.994   2.136   3.031 -0.0414  0.7540  1.1999
16126TIP3   OH269792   6.229   2.289  11.333  0.2584  0.4239 -0.5241
16126TIP3    H169793   6.208   2.202  11.367  2.7045 -0.3301 -0.8105
16126TIP3    H269794   6.321   2.303  11.358  0.1458  2.5878 -1.1878
16127TIP3   OH269795   3.276   6.722   6.393  0.1892 -0.1240 -0.0607
16127TIP3    H169796   3.251   6.735   6.485  0.2501 -2.4901  0.3246
16127TIP3    H269797   3.193   6.703   6.349  0.1164  1.3436 -0.5695
16128TIP3   OH269798   4.087   1.250   0.963 -0.1988  0.3656  0.0055
16128TIP3    H169799   4.064   1.201   0.884 -1.3840 -0.2923  0.7508
16128TIP3    H269800   4.035   1.330   0.957 -0.7955  0.0132  0.4459
16129TIP3   OH269801   1.857   3.292   2.075  0.8032  0.1423  0.2921
16129TIP3    H169802   1.859   3.217   2.134  1.3714  0.6265  0.8967
16129TIP3    H269803   1.947   3.327   2.078  0.3837  1.2241  0.5123
16130TIP3   OH269804   0.123   4.879   3.382 -0.1722  0.0382 -0.3905
16130TIP3    H169805   0.090   4.909   3.297  0.8167  1.1368 -0.3949
16130TIP3    H269806   0.187   4.812   3.360 -0.0094  0.2315 -0.5066
16131TIP3   OH269807   5.435   5.868  14.505 -0.1640  0.2683 -0.1788
16131TIP3    H169808   5.502   5.865  14.437  0.5385 -0.6025  0.5426
16131TIP3    H269809   5.473   5.820  14.578 -1.2468  0.4885  0.5370
16132TIP3   OH269810   6.622   2.849  13.754  0.3418  0.1027 -0.0031
16132TIP3    H169811   6.612   2.898  13.835 -0.4720 -0.0002 -0.0338
16132TIP3    H269812   6.536   2.854  13.712  1.3118  1.9276 -1.8603
16133TIP3   OH269813   0.054   4.820   0.293  0.3254  0.6821  0.9755
16133TIP3    H169814   0.091   4.903   0.323  1.3341  0.0170  1.5755
16133TIP3    H269815   0.120   4.783   0.234 -0.4026  0.6070  0.1936
16134TIP3   OH269816   1.865   2.438   4.525 -0.4985 -0.2019 -0.3027
16134TIP3    H169817   1.783   2.443   4.475 -0.9696 -0.1690  0.4655
16134TIP3    H269818   1.878   2.344   4.539  0.0887 -0.2675 -1.2166
16135TIP3   OH269819   3.999   6.694  10.976  0.9265  0.5698  0.4154
16135TIP3    H169820   4.020   6.779  10.937 -2.0524  1.5690  0.8357
16135TIP3    H269821   4.037   6.698  11.064  2.0738  0.8675 -0.0887
16136TIP3   OH269822   0.602   0.438   2.882 -0.1018 -0.2852  0.9517
16136TIP3    H169823   0.625   0.367   2.943 -0.1296 -0.9178  0.2351
16136TIP3    H269824   0.598   0.395   2.797 -2.1023  0.1776  0.7964
16137TIP3   OH269825   1.268   4.678  15.460  0.0939 -0.0706 -0.4526
16137TIP3    H169826   1.238   4.679  15.551  0.2235 -1.1923 -0.3916
16137TIP3    H269827   1.209   4.617  15.416  0.6140 -0.2534 -0.9063
16138TIP3   OH269828   6.412   5.265   3.993  0.8696  0.5089 -0.3405
16138TIP3    H169829   6.339   5.261   4.056  2.1020 -0.1581  1.0975
16138TIP3    H269830   6.374   5.236   3.910 -0.2883 -0.7808  0.6061
16139TIP3   OH269831   3.425   3.529  11.888  0.1332 -0.0144  1.1234
16139TIP3    H169832   3.347   3.573  11.921 -0.4190 -0.5472  0.5207
16139TIP3    H269833   3.398   3.439  11.872  0.0629  0.5267 -1.9804
16140TIP3   OH269834   6.097   5.845   5.245  0.0289  0.6101  0.3929
16140TIP3    H169835   6.144   5.789   5.306 -0.1619  0.3853  0.3313
16140TIP3    H269836   6.140   5.930   5.254  0.6560  0.3231  0.1000
16141TIP3   OH269837   4.297   3.751  13.332  0.4695  0.2636 -0.0114
16141TIP3    H169838   4.325   3.838  13.303  1.4339  0.0796  0.3358
16141TIP3    H269839   4.206   3.763  13.358  1.1973  1.6461  2.0014
16142TIP3   OH269840   1.723   0.223   0.754  0.4129 -0.6043  0.5562
16142TIP3    H169841   1.758   0.134   0.758 -0.2566 -0.9619 -1.3652
16142TIP3    H269842   1.801   0.279   0.764  0.9432 -1.3912  0.9125
16143TIP3   OH269843   1.205   5.042  12.088  0.2981 -0.2127  0.0577
16143TIP3    H169844   1.269   5.080  12.149 -0.2417  2.2174 -0.8119
16143TIP3    H269845   1.184   5.114  12.028 -1.7558 -1.5608 -0.8996
16144TIP3   OH269846   4.502   0.231  12.529  0.2579  0.1146  0.7766
16144TIP3    H169847   4.482   0.308  12.475  0.5014 -1.0743 -1.0203
16144TIP3    H269848   4.454   0.247  12.610 -2.1744  0.7537 -0.7355
16145TIP3   OH269849   6.527   1.290   6.186 -0.3514 -0.3438  0.0374
16145TIP3    H169850   6.480   1.217   6.144  0.6194 -1.1357  0.3152
16145TIP3    H269851   6.570   1.250   6.261  0.2233  0.5236  0.1707
16146TIP3   OH269852   2.467   4.456   5.597 -0.1813  0.3371  0.5593
16146TIP3    H169853   2.373   4.447   5.614 -0.2044 -2.3707 -0.7842
16146TIP3    H269854   2.473   4.467   5.502  0.8393  1.3664  0.7280
16147TIP3   OH269855   5.703   3.906   3.175 -0.0674 -0.4209  0.1266
16147TIP3    H169856   5.794   3.879   3.180  0.2434  0.3045 -1.2479
16147TIP3    H269857   5.694   3.974   3.242  0.6881  0.2510 -0.4416
16148TIP3   OH269858   2.695   3.909   0.775  0.0312 -0.1934 -0.1812
16148TIP3    H169859   2.780   3.891   0.814 -0.5226  0.3459  1.3253
16148TIP3    H269860   2.673   3.997   0.804 -1.1247 -0.3958 -0.4055
16149TIP3   OH269861   2.272   4.808  15.934  0.2789 -0.8901  1.0961
16149TIP3    H169862   2.329   4.885  15.930 -0.7148 -0.1703  0.7397
16149TIP3    H269863   2.316   4.744  15.878 -0.0321  0.1841 -0.4182
16150TIP3   OH269864   0.273   5.695   5.039  0.5685 -0.0674 -0.2692
16150TIP3    H169865   0.230   5.738   4.965  1.2211  1.2110  0.0851
16150TIP3    H269866   0.219   5.719   5.115  0.7317 -0.1761 -0.1189
16151TIP3   OH269867   6.402   4.066  15.105  0.3421 -0.4646 -0.3817
16151TIP3    H169868   6.442   4.153  15.107 -2.0427  0.6480  2.2539
16151TIP3    H269869   6.455   4.013  15.165  1.7723 -0.8507 -1.9603
16152TIP3   OH269870   1.238   5.022  11.212 -0.2343 -0.1770  0.1219
16152TIP3    H169871   1.182   5.096  11.238  0.9661  0.8257 -0.1038
16152TIP3    H269872   1.219   5.011  11.119  2.0186  2.0488 -0.6618
16153TIP3   OH269873   2.248   0.793   5.857  0.4796 -0.3835  0.6627
16153TIP3    H169874   2.313   0.755   5.916 -0.9438  0.2164  2.6553
16153TIP3    H269875   2.232   0.880   5.892  1.6372  1.0477 -2.2397
16154TIP3   OH269876   4.756   4.507   0.788  0.0102  0.8071  0.2319
16154TIP3    H169877   4.793   4.484   0.873  1.5181 -1.6869 -1.0291
16154TIP3    H269878   4.685   4.443   0.775 -0.1521  1.1215 -0.4341
16155TIP3   OH269879   3.199   0.826  14.456 -0.4980  0.3332 -0.1572
16155TIP3    H169880   3.197   0.837  14.551 -1.3516  0.7333 -0.2102
16155TIP3    H269881   3.108   0.809  14.432 -0.0483 -1.2995 -0.7388
16156TIP3   OH269882   0.734   2.046  11.222  0.3360  0.3655  0.4447
16156TIP3    H169883   0.687   2.119  11.181 -0.9968 -0.5713  0.2505
16156TIP3    H269884   0.678   1.969  11.205  1.5681 -0.6461  0.8918
16157TIP3   OH269885   5.005   2.115  15.808  0.2811  0.5876  0.2088
16157TIP3    H169886   5.081   2.058  15.805 -0.1929 -0.0001 -1.0564
16157TIP3    H269887   4.998   2.142  15.900  0.9193 -0.8273  0.6769
16158TIP3   OH269888   0.150   6.593   3.852  0.1293  0.6135  0.4042
16158TIP3    H169889   0.073   6.627   3.807 -1.1238 -0.9441  1.3175
16158TIP3    H269890   0.205   6.559   3.782 -0.1056  1.5231 -0.2353
16159TIP3   OH269891   0.674   2.288   4.527 -0.1101 -0.4334  0.0286
16159TIP3    H169892   0.746   2.229   4.507  0.6457  0.4161  0.1936
16159TIP3    H269893   0.699   2.331   4.609 -0.8874 -0.2729  0.1873
16160TIP3   OH269894   4.497   4.379   2.192  0.1268 -0.0875  0.4358
16160TIP3    H169895   4.481   4.378   2.098 -2.0776  1.0723  0.7593
16160TIP3    H269896   4.426   4.326   2.229  0.3457  0.3553  1.5193
16161TIP3   OH269897   2.755   5.113  16.167  0.4245 -0.0584  0.5084
16161TIP3    H169898   2.715   5.029  16.186  2.2812 -0.9603  0.5712
16161TIP3    H269899   2.682   5.172  16.149 -0.9313 -1.4106  1.5496
16162TIP3   OH269900   0.591   6.338  11.210  0.1274  0.0465  0.3259
16162TIP3    H169901   0.577   6.378  11.124  1.4484  0.8080  0.4364
16162TIP3    H269902   0.591   6.412  11.271  0.1828 -0.3834  0.8533
16163TIP3   OH269903   5.214   0.735  16.698  0.2553  0.1870 -0.7493
16163TIP3    H169904   5.236   0.812  16.646  2.6412 -0.4897 -0.7853
16163TIP3    H269905   5.187   0.770  16.783 -1.7025  1.1901 -1.7505
16164TIP3   OH269906   4.810   3.952   0.030 -0.4506 -0.4314  0.4621
16164TIP3    H169907   4.766   3.889   0.087 -0.7698 -1.5202 -0.9544
16164TIP3    H269908   4.802   3.914  -0.058 -0.2123  1.3417 -0.3455
16165TIP3   OH269909   1.626   4.589   0.161  0.5884 -0.1628  0.4267
16165TIP3    H169910   1.600   4.504   0.198 -1.7730 -0.5171 -1.8538
16165TIP3    H269911   1.644   4.570   0.069 -2.2891  2.1910 -0.6975
16166TIP3   OH269912   4.066   2.713   3.100  0.2073  0.0407 -0.0723
16166TIP3    H169913   4.124   2.683   3.170  0.7389  1.3504  0.0577
16166TIP3    H269914   4.028   2.794   3.133 -0.6951 -0.1175 -0.6988
16167TIP3   OH269915   1.735   4.036  13.742 -0.2310 -0.4623 -0.3445
16167TIP3    H169916   1.687   4.056  13.662 -0.7973  0.1766  0.1429
16167TIP3    H269917   1.681   4.074  13.812  1.4634  1.1238  0.1369
16168TIP3   OH269918   2.105   2.201  13.878 -0.1362 -0.0045 -0.4549
16168TIP3    H169919   2.198   2.195  13.899  0.1556 -1.7504 -2.1734
16168TIP3    H269920   2.093   2.290  13.846  0.9541  0.1991 -0.2968
16169TIP3   OH269921   6.479   1.851   3.088  0.2808 -0.1936  0.3540
16169TIP3    H169922   6.498   1.883   3.176  2.3050 -0.3704  0.0132
16169TIP3    H269923   6.527   1.912   3.031  0.9333 -1.4813 -0.4882
16170TIP3   OH269924   4.174   3.341   5.242 -0.4258  0.1343  0.0618
16170TIP3    H169925   4.189   3.389   5.324  0.0977  2.2711 -1.2409
16170TIP3    H269926   4.258   3.347   5.196 -1.3743  0.9207 -1.6014
16171TIP3   OH269927   0.163   5.600  13.574  0.0993 -0.0551 -0.6585
16171TIP3    H169928   0.070   5.618  13.563 -0.0169 -0.1206  0.1981
16171TIP3    H269929   0.195   5.581  13.486 -0.8277 -0.6850 -0.8612
16172TIP3   OH269930   5.541   1.290   2.321 -0.0000  0.2759 -0.6837
16172TIP3    H169931   5.471   1.300   2.386  0.4826  0.0379 -0.1305
16172TIP3    H269932   5.578   1.377   2.311  0.4968  0.1352 -0.0093
16173TIP3   OH269933   0.270   5.169  15.165  0.1920 -0.4913 -0.1386
16173TIP3    H169934   0.287   5.245  15.110  0.5208  0.1863  0.8977
16173TIP3    H269935   0.271   5.203  15.254 -1.2619 -1.4179  0.2388
16174TIP3   OH269936   1.644   1.547  17.227 -0.1370 -0.1204  0.5193
16174TIP3    H169937   1.708   1.617  17.233  0.2040 -0.4615  0.8402
16174TIP3    H269938   1.696   1.467  17.221 -0.5103 -0.3032 -0.4953
16175TIP3   OH269939   1.744   0.398  10.548 -0.4400 -0.1380 -0.1500
16175TIP3    H169940   1.679   0.450  10.502  0.1164  1.2161  0.5560
16175TIP3    H269941   1.783   0.343  10.480 -2.0762 -0.7285 -0.6275
16176TIP3   OH269942   5.264   3.483   4.814 -0.1836 -0.2806 -0.2518
16176TIP3    H169943   5.345   3.458   4.768  1.1183  0.0889  1.7777
16176TIP3    H269944   5.251   3.575   4.791  1.1236  0.2451  1.0085
16177TIP3   OH269945   5.013   4.440  13.573 -0.2703 -0.2541 -0.2195
16177TIP3    H169946   5.042   4.380  13.504  0.1134  0.7392 -0.9244
16177TIP3    H269947   5.092   4.488  13.598 -0.8895  1.0170 -0.7076
16178TIP3   OH269948   4.101   1.216   4.368 -0.6446  0.5163 -0.8152
16178TIP3    H169949   4.059   1.297   4.396  0.4617  0.5489  0.8809
16178TIP3    H269950   4.030   1.162   4.334 -1.7142  1.4152 -0.0464
16179TIP3   OH269951   4.653   2.214   5.719  0.9767 -0.3488 -0.5642
16179TIP3    H169952   4.700   2.291   5.688 -1.6307  0.4550 -2.7777
16179TIP3    H269953   4.677   2.145   5.658  1.8449 -0.8093  0.2896
16180TIP3   OH269954   3.918   6.203   0.641 -0.0392 -0.1693  0.7198
16180TIP3    H169955   3.876   6.248   0.714  0.0060 -0.8300  1.1601
16180TIP3    H269956   4.012   6.213   0.657 -0.0273  0.5918  0.1832
16181TIP3   OH269957   4.627   1.087  13.665  0.6139 -0.1262  0.3239
16181TIP3    H169958   4.624   1.180  13.643 -1.5398 -0.3460 -0.3725
16181TIP3    H269959   4.538   1.067  13.695  0.5827 -2.3714 -1.2204
16182TIP3   OH269960   4.794   6.090   3.550 -0.1169  0.0492 -0.2455
16182TIP3    H169961   4.763   6.008   3.512 -1.1775  0.1773  0.3240
16182TIP3    H269962   4.770   6.084   3.642 -1.8698  1.7648 -0.5575
16183TIP3   OH269963   0.126   3.103   2.646  0.3630  0.0516  0.3125
16183TIP3    H169964   0.109   3.018   2.606  0.8204  1.0600 -2.1034
16183TIP3    H269965   0.041   3.130   2.682 -1.0323  0.8209 -3.3720
16184TIP3   OH269966   0.622   6.686   0.664  0.2322 -0.1893  0.1693
16184TIP3    H169967   0.600   6.756   0.726  1.1919 -0.8791  1.3060
16184TIP3    H269968   0.552   6.690   0.598 -0.0949  1.3894  0.5851
16185TIP3   OH269969   5.864   6.433  11.281 -0.1655  0.4112 -0.5270
16185TIP3    H169970   5.854   6.426  11.186  0.5921 -0.4422 -0.5472
16185TIP3    H269971   5.849   6.525  11.300 -1.6171  0.3495 -1.3212
16186TIP3   OH269972   4.953   2.604   2.682  0.4664 -0.1437  0.0846
16186TIP3    H169973   5.043   2.632   2.693  0.2784 -0.0261  1.4202
16186TIP3    H269974   4.932   2.624   2.590  0.7391  2.9333  0.6315
16187TIP3   OH269975   5.243   6.478   4.817 -0.0367 -0.3400  0.0478
16187TIP3    H169976   5.193   6.444   4.743 -3.1273 -1.0413  2.3464
16187TIP3    H269977   5.244   6.407   4.880 -0.1380  1.2828  1.9220
16188TIP3   OH269978   5.081   6.671  13.739  0.3513 -0.4212 -0.7091
16188TIP3    H169979   5.171   6.689  13.712  0.9434  0.0777  1.5605
16188TIP3    H269980   5.089   6.620  13.819 -1.3925 -0.9750 -0.8535
16189TIP3   OH269981   4.193   3.644  11.489 -0.2724 -0.2389  0.4772
16189TIP3    H169982   4.251   3.718  11.471 -0.1163 -0.8259 -1.4532
16189TIP3    H269983   4.242   3.567  11.460 -2.0535 -0.7308 -1.2771
16190TIP3   OH269984   1.496   5.588   3.869  0.2439  0.0149 -0.7289
16190TIP3    H169985   1.543   5.505   3.869  0.8568  0.3647 -1.0187
16190TIP3    H269986   1.550   5.648   3.818 -0.1689  0.6108 -0.4871
16191TIP3   OH269987   4.527   2.069  11.838  0.8054 -0.3772  0.5437
16191TIP3    H169988   4.482   2.119  11.770 -0.5549 -0.0275  1.6698
16191TIP3    H269989   4.615   2.055  11.803  0.6045  1.1112 -0.6388
16192TIP3   OH269990   5.441   2.908   4.609  0.3518  0.5147  0.5019
16192TIP3    H169991   5.433   2.862   4.693  1.3750 -0.9433 -0.1918
16192TIP3    H269992   5.513   2.970   4.623  0.4149  0.3879  0.7485
16193TIP3   OH269993   2.972   1.753  14.867  0.3594 -0.4169  0.2470
16193TIP3    H169994   3.002   1.714  14.949  0.9355 -0.9363 -0.1994
16193TIP3    H269995   3.030   1.829  14.854 -0.0315 -0.0658  0.5520
16194TIP3   OH269996   3.119   0.899   5.874  0.3016 -0.4545  0.0992
16194TIP3    H169997   3.191   0.946   5.917 -1.4379 -0.1763  2.8331
16194TIP3    H269998   3.071   0.967   5.827  0.1001 -0.1321  0.7607
16195TIP3   OH269999   3.407   5.616  15.280 -0.0344 -0.3486 -0.0973
16195TIP3    H170000   3.475   5.556  15.251 -1.1258 -0.6356 -2.1646
16195TIP3    H270001   3.416   5.693  15.225 -1.2340 -0.3122 -0.2734
16196TIP3   OH270002   4.888   4.956   1.725 -0.2150 -0.4114  0.2583
16196TIP3    H170003   4.945   5.031   1.745 -0.5433 -0.5210  1.6432
16196TIP3    H270004   4.942   4.898   1.673  0.0658  0.7619 -0.7975
16197TIP3   OH270005   1.125   0.231  12.764 -0.2215  0.4849 -0.2095
16197TIP3    H170006   1.138   0.294  12.834 -2.5767 -0.3281  1.0371
16197TIP3    H270007   1.125   0.283  12.684 -2.1050  2.0962  0.7852
16198TIP3   OH270008   3.417   5.218   4.611  0.3065 -0.2692 -0.3415
16198TIP3    H170009   3.432   5.195   4.519 -0.5971 -2.4007  0.0215
16198TIP3    H270010   3.322   5.212   4.621  0.4491 -0.5131  0.8600
16199TIP3   OH270011   1.628   1.014   4.660  0.3528  0.4971 -0.1268
16199TIP3    H170012   1.599   1.099   4.627 -0.9637 -0.1804 -0.7363
16199TIP3    H270013   1.550   0.975   4.700  0.7793 -0.7117 -0.4417
16200TIP3   OH270014   3.157   0.621  14.089  0.1120 -0.1960  0.3624
16200TIP3    H170015   3.090   0.687  14.105 -0.8841 -1.1525  0.2190
16200TIP3    H270016   3.237   0.657  14.129 -0.5416  0.8257  0.7748
16201TIP3   OH270017   5.424   1.072  15.164 -0.1851  0.0016  0.2901
16201TIP3    H170018   5.419   1.049  15.071 -1.5179  0.1450  0.3265
16201TIP3    H270019   5.438   0.988  15.208  0.7833 -0.0264 -0.0662
16202TIP3   OH270020   2.287   1.376   1.863  0.0165  0.2973 -0.2844
16202TIP3    H170021   2.343   1.301   1.844 -0.3629 -0.3277  1.0418
16202TIP3    H270022   2.342   1.435   1.914 -0.0850  0.3344 -0.2181
16203TIP3   OH270023   1.286   2.003   5.818 -0.1967 -0.2146 -0.6553
16203TIP3    H170024   1.347   2.054   5.871 -1.0797  0.4017 -0.2132
16203TIP3    H270025   1.331   1.921   5.801  0.6113  0.0959 -0.0351
16204TIP3   OH270026   1.829   3.769   3.443  0.1612  0.0739  0.4474
16204TIP3    H170027   1.890   3.843   3.448  2.5747 -1.7430 -0.6058
16204TIP3    H270028   1.885   3.695   3.420 -2.1670 -2.1216  1.6999
16205TIP3   OH270029   5.263   4.314   3.611  0.3307  0.1663  0.0586
16205TIP3    H170030   5.340   4.370   3.618 -0.2302  1.2679 -2.1702
16205TIP3    H270031   5.296   4.234   3.568  0.5470 -0.0113  0.5545
16206TIP3   OH270032   0.298   0.796  14.438  0.1711 -0.1565  0.2805
16206TIP3    H170033   0.242   0.721  14.458 -1.0169  0.6037 -0.1390
16206TIP3    H270034   0.343   0.770  14.358 -0.1420 -0.4816  0.2055
16207TIP3   OH270035   3.805   5.161   3.674 -0.3834  0.2504 -0.0246
16207TIP3    H170036   3.865   5.146   3.600 -0.8429  0.8582 -0.5270
16207TIP3    H270037   3.862   5.179   3.748  0.1129 -1.2545 -0.0234
16208TIP3   OH270038   2.915   6.113   3.831 -0.4996 -0.3216 -0.3059
16208TIP3    H170039   2.926   6.185   3.768 -0.6708 -0.6336 -0.6888
16208TIP3    H270040   2.837   6.136   3.881 -1.3517 -0.9501 -1.3615
16209TIP3   OH270041   2.180   1.359   0.363  0.4712  0.4038 -0.3546
16209TIP3    H170042   2.213   1.358   0.273 -1.4252  1.1431 -1.0734
16209TIP3    H270043   2.161   1.451   0.381  0.8520  0.2645  0.8360
16210TIP3   OH270044   6.771   4.440  13.776  0.2969  0.1008  0.0172
16210TIP3    H170045   6.842   4.505  13.777  1.0521 -0.6902 -1.3836
16210TIP3    H270046   6.691   4.491  13.787  0.8258  1.3643 -1.8454
16211TIP3   OH270047   0.361   2.553   4.247  0.4116  0.0246  0.1517
16211TIP3    H170048   0.341   2.561   4.154 -1.9761  1.1758  0.7216
16211TIP3    H270049   0.284   2.589   4.291  1.0466 -1.4869  2.5897
16212TIP3   OH270050   2.298   1.291  11.311  0.1354 -0.0111  0.4509
16212TIP3    H170051   2.244   1.330  11.242 -0.1459  0.3704  0.8851
16212TIP3    H270052   2.288   1.197  11.298 -0.9610  0.0537  0.7774
16213TIP3   OH270053   4.466   0.736   6.510  0.0422 -0.5353  0.1992
16213TIP3    H170054   4.413   0.814   6.524  0.1711 -0.6377  1.2829
16213TIP3    H270055   4.412   0.678   6.456  0.2843  0.6533 -1.3680
16214TIP3   OH270056   2.972   1.741  15.958 -0.0731 -0.1939  0.2022
16214TIP3    H170057   3.005   1.825  15.926  1.0390 -0.2424  1.1788
16214TIP3    H270058   2.922   1.705  15.885 -1.1184  1.6181 -0.0133
16215TIP3   OH270059   0.415   0.598  12.473  0.0451  0.2320 -0.0713
16215TIP3    H170060   0.411   0.505  12.453  0.2352 -0.5113  3.0941
16215TIP3    H270061   0.405   0.603  12.568  0.6755  3.3957 -0.1025
16216TIP3   OH270062   5.679   0.772  15.569  0.5162  0.1055 -0.1010
16216TIP3    H170063   5.669   0.678  15.581  0.8896 -0.0894 -1.2281
16216TIP3    H270064   5.729   0.802  15.645  0.4736 -0.6176  0.2132
16217TIP3   OH270065   0.141   0.001  14.560 -0.4489  0.6421 -0.1773
16217TIP3    H170066   0.220   0.025  14.511  0.0239  0.0210  0.2694
16217TIP3    H270067   0.098  -0.064  14.504  0.9200 -1.2651  0.9431
16218TIP3   OH270068   2.836   2.362  12.953 -0.1835 -0.2373  0.2704
16218TIP3    H170069   2.894   2.435  12.976  1.1152 -0.4644 -2.1528
16218TIP3    H270070   2.871   2.288  13.002 -0.0049  0.1967  0.8157
16219TIP3   OH270071   3.575   3.263   3.549  0.2906 -0.9836  0.3414
16219TIP3    H170072   3.530   3.178   3.549 -1.3645 -0.1251  0.8181
16219TIP3    H270073   3.536   3.311   3.476  2.2839 -1.1501 -0.8741
16220TIP3   OH270074   5.564   5.210   3.915 -0.0690 -0.3136 -0.7110
16220TIP3    H170075   5.581   5.119   3.889 -1.3167 -0.0390 -2.5471
16220TIP3    H270076   5.484   5.234   3.868 -0.0615  1.5702  0.1942
16221TIP3   OH270077   0.344   2.635   4.945  0.2712 -0.9205 -0.5012
16221TIP3    H170078   0.360   2.609   5.036 -0.2712  0.9179  0.1510
16221TIP3    H270079   0.325   2.553   4.900  1.9730 -2.0252  0.7307
16222TIP3   OH270080   2.128   4.060  13.564  0.0712  0.3274  0.3175
16222TIP3    H170081   2.201   4.062  13.625 -0.1220 -0.9095  0.6040
16222TIP3    H270082   2.099   3.969  13.564 -1.6913  0.8705  0.4726
16223TIP3   OH270083   4.280   4.520   1.611  0.2279 -0.3479 -0.1534
16223TIP3    H170084   4.275   4.553   1.700  1.8617  2.4435 -1.0379
16223TIP3    H270085   4.249   4.593   1.556  1.5478 -1.1509 -2.0248
16224TIP3   OH270086   3.689   2.612   5.694 -0.0623  0.1456 -0.0726
16224TIP3    H170087   3.665   2.634   5.784 -1.3259 -0.9631 -0.1166
16224TIP3    H270088   3.630   2.664   5.640 -1.2727 -1.3278 -0.2065
16225TIP3   OH270089   2.048   3.065   5.038  0.5711 -0.2078 -0.3341
16225TIP3    H170090   2.135   3.086   5.004 -0.2007  1.0337 -1.6428
16225TIP3    H270091   2.042   3.113   5.120  0.8221  0.3855 -0.6575
16226TIP3   OH270092   5.028   0.414  14.092 -0.5794 -0.9782 -0.7939
16226TIP3    H170093   5.109   0.363  14.088  0.2617  0.4189 -2.1395
16226TIP3    H270094   5.033   0.473  14.016 -2.2863 -0.0453 -0.2045
16227TIP3   OH270095   0.828   3.348  15.758 -0.3227 -0.0932  0.0637
16227TIP3    H170096   0.827   3.426  15.703 -0.9505 -0.0952  0.0650
16227TIP3    H270097   0.820   3.275  15.697  1.7534 -0.2352 -0.0547
16228TIP3   OH270098   4.704   3.279   1.677 -0.0725  0.9374  0.0558
16228TIP3    H170099   4.629   3.337   1.677  0.8864  2.2086  0.3499
16228TIP3    H270100   4.743   3.290   1.764 -0.7537 -1.3202  0.6731
16229TIP3   OH270101   3.055   5.590   0.270 -0.0431 -0.2351 -0.3018
16229TIP3    H170102   3.148   5.574   0.291 -0.1303 -0.3599 -0.0021
16229TIP3    H270103   3.013   5.595   0.356 -0.1818  0.6214 -0.4192
16230TIP3   OH270104   5.913   2.437   1.920  0.2659 -0.0465  0.0258
16230TIP3    H170105   6.003   2.429   1.951  0.5505  0.6168 -0.6152
16230TIP3    H270106   5.861   2.444   2.001  0.6881 -1.2724  0.4142
16231TIP3   OH270107   6.361   5.358  13.182  0.2372  0.2678  0.0445
16231TIP3    H170108   6.380   5.451  13.195  0.5694  0.1889  0.1375
16231TIP3    H270109   6.301   5.335  13.252  1.3615  0.0484  0.9562
16232TIP3   OH270110   4.216   5.811   2.781  0.1880  0.2709 -0.0134
16232TIP3    H170111   4.193   5.754   2.854  0.7414  2.6348  2.0872
16232TIP3    H270112   4.309   5.793   2.765  0.4362  0.7663  0.8326
16233TIP3   OH270113   5.471   1.266  11.709 -0.3596 -0.3180 -0.5324
16233TIP3    H170114   5.454   1.260  11.615  0.0944 -0.5735 -0.5979
16233TIP3    H270115   5.565   1.280  11.715 -0.7368  2.4030 -0.2122
16234TIP3   OH270116   6.004   1.999  17.056  0.2970  0.3483  0.3507
16234TIP3    H170117   6.016   2.056  17.132 -0.1241 -2.8918  2.9501
16234TIP3    H270118   6.068   1.929  17.068 -0.5356 -0.8053 -1.7179
16235TIP3   OH270119   5.780   4.349   1.517  0.1185 -0.6002  0.2998
16235TIP3    H170120   5.864   4.312   1.541  2.0444  2.1167 -1.9272
16235TIP3    H270121   5.768   4.324   1.425 -0.7151  0.4192  0.1178
16236TIP3   OH270122   2.118   5.266  12.555  0.0634 -0.1470  0.2583
16236TIP3    H170123   2.030   5.266  12.593  0.3230 -0.0497  0.8703
16236TIP3    H270124   2.122   5.347  12.504 -0.7395 -0.9114 -1.0647
16237TIP3   OH270125   2.548   2.684  16.970 -0.4183  0.5391 -0.4624
16237TIP3    H170126   2.498   2.606  16.946  1.3087 -0.6867 -0.1726
16237TIP3    H270127   2.483   2.743  17.009 -1.6891 -0.8704 -0.4081
16238TIP3   OH270128   5.733   2.363   6.194  0.7373  0.3110 -0.6979
16238TIP3    H170129   5.718   2.388   6.285  1.7614  0.5531 -0.5869
16238TIP3    H270130   5.817   2.402   6.171  2.6098 -3.2979 -0.3744
16239TIP3   OH270131   0.157   0.747  13.166  0.3446  0.4812 -0.5152
16239TIP3    H170132   0.231   0.737  13.226  0.6454 -0.0611 -0.9718
16239TIP3    H270133   0.088   0.692  13.203  0.3027  0.6853 -0.2943
16240TIP3   OH270134   1.834   3.393  12.707 -0.3870  0.9508 -0.0974
16240TIP3    H170135   1.919   3.425  12.738 -0.1102 -1.1345  1.3546
16240TIP3    H270136   1.793   3.354  12.784 -1.0375 -1.5276 -1.6502
16241TIP3   OH270137   3.856   6.689  15.675 -0.0935 -0.2905 -0.3685
16241TIP3    H170138   3.875   6.773  15.717  0.7528 -0.3475 -0.6389
16241TIP3    H270139   3.769   6.666  15.707  0.3931 -0.1526  1.0703
16242TIP3   OH270140   5.822   2.049   0.351 -0.7353 -0.5387 -0.1665
16242TIP3    H170141   5.765   2.080   0.280  1.6358  0.9071 -1.5142
16242TIP3    H270142   5.784   2.087   0.430 -0.7313  1.8064 -1.2430
16243TIP3   OH270143   5.365   2.330   1.456 -0.0161  0.4791  0.5504
16243TIP3    H170144   5.442   2.293   1.413 -0.7275 -0.1188 -0.2291
16243TIP3    H270145   5.400   2.394   1.518  1.1317 -0.2038  0.6147
16244TIP3   OH270146   5.703   0.400   1.120  0.1532 -0.4275  1.0988
16244TIP3    H170147   5.784   0.371   1.162  0.2119 -0.3390  1.0470
16244TIP3    H270148   5.635   0.382   1.185  0.3227  0.2734  1.4741
16245TIP3   OH270149   0.812   3.983   1.605 -0.2506  0.4753 -0.1198
16245TIP3    H170150   0.800   3.915   1.539  0.2471  0.1054  0.1720
16245TIP3    H270151   0.895   3.962   1.647  0.0608  1.4395 -0.2353
16246TIP3   OH270152   3.928   3.314   1.153 -0.3432 -0.6332 -1.1147
16246TIP3    H170153   3.952   3.407   1.149  0.1352 -0.5779  1.8687
16246TIP3    H270154   3.840   3.311   1.118 -0.8909  1.1853  0.0053
16247TIP3   OH270155   4.578   1.365  10.974 -0.0116  0.1905  0.4741
16247TIP3    H170156   4.618   1.292  11.021  0.1998  0.6656  1.0366
16247TIP3    H270157   4.491   1.333  10.949  0.3466 -0.5044  0.0821
16248TIP3   OH270158   4.233   2.098   0.774  0.0698  0.0332  0.7576
16248TIP3    H170159   4.286   2.080   0.852  0.7639 -1.7408 -0.0808
16248TIP3    H270160   4.165   2.158   0.804 -0.5511 -1.7483  3.0714
16249TIP3   OH270161   6.474   5.840   2.752 -0.0507 -0.4003  0.2932
16249TIP3    H170162   6.501   5.932   2.758  0.7142 -0.6106  0.0663
16249TIP3    H270163   6.433   5.822   2.837  0.0574  0.0640  0.4462
16250TIP3   OH270164   1.462   5.420  13.181 -0.3605 -0.5667  0.2093
16250TIP3    H170165   1.378   5.400  13.141 -0.1866 -0.2848 -0.3017
16250TIP3    H270166   1.465   5.515  13.187 -0.3891 -0.6111  0.8993
16251TIP3   OH270167   5.930   1.088  15.269  0.0385  0.4898  0.7245
16251TIP3    H170168   5.921   1.166  15.324  0.3082  1.3340 -0.4065
16251TIP3    H270169   6.010   1.104  15.218 -0.4769 -0.0485 -0.2683
16252TIP3   OH270170   3.824   0.917   3.719  0.3267  0.4004  0.2403
16252TIP3    H170171   3.739   0.959   3.725  0.5153  1.0284 -1.1690
16252TIP3    H270172   3.879   0.981   3.674  0.6522 -1.2665 -1.8127
16253TIP3   OH270173   2.718   4.101   4.809  0.3025  0.0713  0.5694
16253TIP3    H170174   2.759   4.149   4.881 -0.5699  2.5537 -0.5021
16253TIP3    H270175   2.636   4.068   4.845  0.6038 -0.0354  1.1523
16254TIP3   OH270176   3.922   3.979   3.627 -0.0421  0.1494 -0.2376
16254TIP3    H170177   3.967   3.934   3.556  0.8219 -0.5183  0.7195
16254TIP3    H270178   3.990   4.033   3.668 -0.4886  0.4062  0.1786
16255TIP3   OH270179   4.257   4.357  15.989  0.1056 -0.0151 -0.1816
16255TIP3    H170180   4.170   4.362  16.028  0.7927  0.5346  1.3649
16255TIP3    H270181   4.313   4.327  16.061  1.3063  0.3025 -0.9667
16256TIP3   OH270182   2.690   4.766   4.735 -0.2352 -0.3310 -0.1512
16256TIP3    H170183   2.678   4.860   4.747  0.2559 -0.2375 -0.3875
16256TIP3    H270184   2.686   4.754   4.640 -1.8977 -0.7673 -0.0434
16257TIP3   OH270185   0.518   0.560   6.421 -0.0818 -0.5221 -0.6739
16257TIP3    H170186   0.610   0.551   6.397  0.8893  2.1557  1.7901
16257TIP3    H270187   0.495   0.475   6.459  1.8044 -0.7282  0.0655
16258TIP3   OH270188   1.978   0.593   3.939  0.2807  0.0188  0.3887
16258TIP3    H170189   1.984   0.618   3.846 -0.9632 -0.7234  0.0890
16258TIP3    H270190   2.031   0.514   3.946  0.0643 -0.1457  0.2107
16259TIP3   OH270191   0.908   1.619  14.341 -0.4542 -0.0584 -0.4967
16259TIP3    H170192   0.966   1.694  14.360 -1.2755  0.4761 -0.0582
16259TIP3    H270193   0.861   1.644  14.262 -1.2847  0.2170  0.0815
16260TIP3   OH270194   4.044   2.596   4.872 -0.1491  0.3528 -0.3881
16260TIP3    H170195   4.078   2.681   4.900 -0.6781  0.4001  0.1281
16260TIP3    H270196   4.059   2.538   4.946 -0.6043  0.2156 -0.4019
16261TIP3   OH270197   5.309   0.793  14.183 -0.1500 -0.3256  0.2239
16261TIP3    H170198   5.293   0.722  14.244 -0.3215 -1.0635 -0.6677
16261TIP3    H270199   5.257   0.771  14.106  2.1230 -0.7765 -1.2254
16262TIP3   OH270200   0.999   3.157  11.078 -0.3948  0.4199  0.4206
16262TIP3    H170201   0.974   3.102  11.151 -0.8154  0.4745  0.3234
16262TIP3    H270202   0.988   3.247  11.110  1.4208  0.4535  0.9549
16263TIP3   OH270203   3.652   1.642  14.939 -0.0379 -0.2030  0.6386
16263TIP3    H170204   3.659   1.733  14.969  0.7394 -0.7206  2.0985
16263TIP3    H270205   3.721   1.596  14.987 -0.5582 -1.6024  0.0653
16264TIP3   OH270206   1.513   3.099   0.336  0.5422  0.3859  0.4136
16264TIP3    H170207   1.478   3.169   0.281  0.6351  0.2749  0.2124
16264TIP3    H270208   1.594   3.135   0.373  0.0362  0.7692  1.1554
16265TIP3   OH270209   4.607   0.069  14.175  0.1206  0.1196 -0.3104
16265TIP3    H170210   4.512   0.067  14.182  0.3200  0.4894  3.1833
16265TIP3    H270211   4.626   0.159  14.147 -0.4354  0.8719  1.6706
16266TIP3   OH270212   4.066   5.668  16.014 -0.1523  0.6027 -0.0913
16266TIP3    H170213   4.116   5.607  16.068  0.5339  1.1339 -0.1168
16266TIP3    H270214   4.118   5.678  15.935 -1.2246 -0.2844 -0.9276
16267TIP3   OH270215   1.336   5.561  16.563 -0.0280 -0.0091  0.0273
16267TIP3    H170216   1.379   5.565  16.649  0.5048 -0.6671 -0.2029
16267TIP3    H270217   1.243   5.568  16.583  0.1022 -0.0065  0.6524
16268TIP3   OH270218   5.105   0.082   5.708 -0.5729  0.2598 -0.3369
16268TIP3    H170219   5.147   0.011   5.659  1.1883  2.7143 -2.5532
16268TIP3    H270220   5.138   0.072   5.797  0.1026 -1.3314 -0.7397
16269TIP3   OH270221   6.368   5.412  12.517  0.0582  0.2977 -0.4004
16269TIP3    H170222   6.304   5.422  12.587  1.7861  1.2770  1.0744
16269TIP3    H270223   6.375   5.500  12.478 -0.6332 -0.1612 -1.5713
16270TIP3   OH270224   5.600   3.132   5.926  0.3260 -0.3372  0.2830
16270TIP3    H170225   5.523   3.162   5.974  0.0655 -0.6727  0.0812
16270TIP3    H270226   5.616   3.044   5.959  1.3533  0.1823  1.1918
16271TIP3   OH270227   3.899   4.426  11.231 -0.3384 -0.5480  0.2006
16271TIP3    H170228   3.818   4.471  11.206  0.7318  0.8832 -0.8171
16271TIP3    H270229   3.947   4.490  11.284  0.6002 -0.9695 -0.1195
16272TIP3   OH270230   6.602   3.191   5.095  0.1380  0.3416  0.2095
16272TIP3    H170231   6.511   3.214   5.113  0.6646  2.8390 -0.0760
16272TIP3    H270232   6.598   3.101   5.061 -2.4312  1.0357 -1.5190
16273TIP3   OH270233   3.851   3.510   0.921 -0.8980  0.0631 -0.1507
16273TIP3    H170234   3.884   3.504   0.832 -0.7535  1.1536 -0.1784
16273TIP3    H270235   3.780   3.445   0.925 -0.9040  0.0124 -1.0490
16274TIP3   OH270236   2.764   2.759   1.584 -0.8929  0.9675  0.2964
16274TIP3    H170237   2.712   2.742   1.505 -0.2838 -0.7089  0.2402
16274TIP3    H270238   2.761   2.854   1.594 -3.3914  0.9697 -0.1012
16275TIP3   OH270239   0.132   1.959  12.557  0.3794  0.3594  0.1436
16275TIP3    H170240   0.108   2.031  12.499  1.3478  0.8884  0.4049
16275TIP3    H270241   0.071   1.967  12.631 -1.2912 -0.7029 -1.0656
16276TIP3   OH270242   6.525   2.826   3.813  0.4030 -0.5100  0.0063
16276TIP3    H170243   6.518   2.843   3.719  2.3322  1.2357  0.1545
16276TIP3    H270244   6.618   2.815   3.829  0.1790  0.0307  1.8408
16277TIP3   OH270245   4.299   5.951  12.747 -0.8309 -0.5030 -0.0208
16277TIP3    H170246   4.242   5.957  12.670 -1.7153 -0.7925  0.6134
16277TIP3    H270247   4.243   5.977  12.820 -0.8599 -3.1726  0.9508
16278TIP3   OH270248   6.046   1.683   0.073 -0.3461 -0.0935  0.2242
16278TIP3    H170249   5.953   1.705   0.064 -0.8744 -1.5943  1.7646
16278TIP3    H270250   6.077   1.740   0.144 -0.8435 -1.6822  1.7553
16279TIP3   OH270251   6.299   0.281  10.502 -0.2933 -0.1426  0.1767
16279TIP3    H170252   6.262   0.204  10.544  1.2123 -0.4818  0.8984
16279TIP3    H270253   6.317   0.253  10.412 -1.5929 -0.0235 -0.1352
16280TIP3   OH270254   0.852   2.932  12.349  0.1948  0.2927 -0.5762
16280TIP3    H170255   0.787   2.958  12.284  0.5610  2.2437 -0.1673
16280TIP3    H270256   0.829   2.981  12.428  1.6851  0.4030 -0.1921
16281TIP3   OH270257   1.965   6.564  15.501 -0.3459  0.6425 -0.9833
16281TIP3    H170258   1.879   6.544  15.538 -0.4325  2.1418 -0.3138
16281TIP3    H270259   1.981   6.496  15.436 -1.2848 -0.6243  0.1097
16282TIP3   OH270260   0.405   4.752   3.725  0.3049  0.6391 -0.1443
16282TIP3    H170261   0.325   4.777   3.679 -0.0568  1.0052  0.6821
16282TIP3    H270262   0.470   4.740   3.655 -0.4689  0.3244 -0.8209
16283TIP3   OH270263   1.439   5.252   0.999 -0.3344  0.1791 -0.2392
16283TIP3    H170264   1.371   5.316   0.980  0.5597  1.2014 -0.0381
16283TIP3    H270265   1.512   5.276   0.942 -0.2738 -1.1634 -0.7613
16284TIP3   OH270266   0.976   6.651   0.909 -0.5846 -0.0474 -0.2369
16284TIP3    H170267   0.928   6.692   0.980  0.0028  0.7002 -0.2621
16284TIP3    H270268   0.966   6.711   0.835  1.7608  0.9909  0.2231
16285TIP3   OH270269   5.361   1.794  14.391 -0.8130 -0.1406 -0.1713
16285TIP3    H170270   5.284   1.758  14.435 -2.5579  0.6783 -2.5019
16285TIP3    H270271   5.428   1.726  14.402 -2.4215 -1.7180  0.1919
16286TIP3   OH270272   5.012   4.149  16.326 -0.0173  0.0829 -0.0959
16286TIP3    H170273   5.090   4.203  16.317 -1.3206  1.5266 -3.6122
16286TIP3    H270274   5.042   4.060  16.307  0.9008  0.5298 -0.7396
16287TIP3   OH270275   2.954   3.794  17.034  0.5252 -0.3708  0.5296
16287TIP3    H170276   2.988   3.880  17.008 -0.1932 -0.2141  0.0886
16287TIP3    H270277   2.982   3.735  16.964  1.2153 -0.5378  0.9502
16288TIP3   OH270278   5.986   3.716   2.571 -0.1155  0.4132  0.4611
16288TIP3    H170279   5.962   3.750   2.657 -0.6693  0.2872  0.3623
16288TIP3    H270280   5.931   3.765   2.510 -0.1530  0.0898  0.2307
16289TIP3   OH270281   4.697   1.694  14.295  0.6147  0.1474  0.2395
16289TIP3    H170282   4.663   1.646  14.370  0.2750  0.4167  0.2557
16289TIP3    H270283   4.636   1.676  14.224  0.2322  0.9374  0.3686
16290TIP3   OH270284   1.108   2.461   6.442  0.8441  0.3303 -0.0338
16290TIP3    H170285   1.092   2.368   6.457 -3.1243  1.0858  0.8580
16290TIP3    H270286   1.153   2.491   6.520  1.1796 -0.6179  0.1410
16291TIP3   OH270287   2.598   1.403  12.228  0.0543 -0.7282  0.0422
16291TIP3    H170288   2.655   1.371  12.298 -0.1622  0.7445  0.9194
16291TIP3    H270289   2.525   1.445  12.273 -1.4333 -2.0712 -1.0838
16292TIP3   OH270290   0.015   1.989  15.444  0.0614  0.1978  0.1188
16292TIP3    H170291   0.031   1.900  15.413  2.9809  0.5499  0.4989
16292TIP3    H270292  -0.042   1.978  15.521  0.8348 -1.3844  0.4828
16293TIP3   OH270293   2.134   0.560  15.622  0.0933  0.6582 -0.2101
16293TIP3    H170294   2.175   0.493  15.676 -0.4179  1.3513  1.0641
16293TIP3    H270295   2.052   0.521  15.592  0.1137  0.4681 -0.0170
16294TIP3   OH270296   0.405   2.741  16.306 -0.2466  0.3045  0.1541
16294TIP3    H170297   0.457   2.711  16.231 -0.5665 -1.3511  0.5867
16294TIP3    H270298   0.346   2.669  16.325 -1.1793  1.3002  1.0921
16295TIP3   OH270299   2.373   2.654  16.444 -0.0958 -0.4387 -0.3110
16295TIP3    H170300   2.409   2.570  16.414  0.5627  0.9477 -3.5021
16295TIP3    H270301   2.443   2.717  16.430 -1.2553  1.0044  0.2947
16296TIP3   OH270302   0.261   4.841  12.973 -0.5490  0.1972  0.1765
16296TIP3    H170303   0.249   4.799  13.058 -1.3493 -2.2282 -1.0874
16296TIP3    H270304   0.304   4.775  12.919  0.1482  1.7800 -1.2584
16297TIP3   OH270305   3.936   0.955   6.187 -0.5372  0.4067  1.1154
16297TIP3    H170306   4.017   0.929   6.230 -0.5699  0.5113  1.2408
16297TIP3    H270307   3.886   1.000   6.255 -1.7455 -1.7713  1.7072
16298TIP3   OH270308   2.968   1.591  13.653 -0.9553  0.5574 -0.0921
16298TIP3    H170309   2.904   1.650  13.691  0.6323  1.2142  1.6953
16298TIP3    H270310   2.937   1.503  13.676 -1.8748  0.8235 -0.3392
16299TIP3   OH270311   0.259   3.327  11.871 -0.0034 -0.0367  0.1354
16299TIP3    H170312   0.194   3.351  11.936  2.5679  1.4391  2.2750
16299TIP3    H270313   0.297   3.246  11.903  1.4934  0.8590  0.6771
16300TIP3   OH270314   2.896   6.623  11.211 -0.0425  0.0522  0.6019
16300TIP3    H170315   2.943   6.544  11.237 -0.8881 -0.1305  1.5994
16300TIP3    H270316   2.872   6.665  11.293  1.9721  2.3165  0.1023
16301TIP3   OH270317   0.324   3.596   5.091 -0.1420  0.2271  0.0478
16301TIP3    H170318   0.360   3.685   5.095 -1.1377  0.6600 -0.6607
16301TIP3    H270319   0.242   3.601   5.141  0.5214 -0.6477  1.2580
16302TIP3   OH270320   6.279   5.503  14.712  0.4211  0.2736 -0.0151
16302TIP3    H170321   6.212   5.481  14.777 -0.7552  0.6801 -1.0833
16302TIP3    H270322   6.323   5.419  14.695  0.3440  0.0491  0.8529
16303TIP3   OH270323   2.398   4.547   1.090 -0.4541 -0.2720 -0.4998
16303TIP3    H170324   2.339   4.602   1.038 -0.7784  0.1646  0.3211
16303TIP3    H270325   2.346   4.518   1.164  0.2384 -0.2195  0.0174
16304TIP3   OH270326   5.081   5.705  16.177 -0.2323 -0.0780  0.4858
16304TIP3    H170327   5.108   5.776  16.236 -1.8703 -1.2747  2.7306
16304TIP3    H270328   5.116   5.626  16.217 -1.5319 -0.9395 -0.0508
16305TIP3   OH270329   2.676   1.595   0.603  0.4478  0.0248 -0.3946
16305TIP3    H170330   2.731   1.517   0.599 -1.8252 -1.5175 -2.5897
16305TIP3    H270331   2.702   1.646   0.526  2.3706  1.8032  1.3673
16306TIP3   OH270332   3.789   3.541  14.517 -0.2254 -0.3824  0.3248
16306TIP3    H170333   3.854   3.577  14.578 -0.0027 -0.7633  0.3141
16306TIP3    H270334   3.841   3.504  14.445 -0.4821 -0.0186 -0.0518
16307TIP3   OH270335   3.013   1.052  11.755 -0.2250  0.1047  0.3290
16307TIP3    H170336   3.072   0.994  11.707 -0.8040  0.2766 -0.6083
16307TIP3    H270337   2.931   1.047  11.706 -0.5939  0.8643  0.8791
16308TIP3   OH270338   2.657   6.559   5.696  0.0288 -0.3756 -0.2404
16308TIP3    H170339   2.600   6.589   5.767 -0.1629  1.2834 -1.0617
16308TIP3    H270340   2.599   6.515   5.635 -0.1103 -0.1627 -0.2623
16309TIP3   OH270341   0.951   2.759  14.212 -0.1995 -0.4448 -0.3878
16309TIP3    H170342   0.908   2.757  14.297  2.0736  1.4228  0.8877
16309TIP3    H270343   0.907   2.830  14.164  1.2273  1.3461  0.8491
16310TIP3   OH270344   2.987   4.212   6.777  0.2059 -0.7841 -0.0594
16310TIP3    H170345   2.901   4.182   6.805 -0.9044  1.8162 -0.5947
16310TIP3    H270346   3.024   4.256   6.853  0.5293 -0.7494 -0.2324
16311TIP3   OH270347   6.006   0.065   0.937 -0.0898  0.1902 -0.1611
16311TIP3    H170348   6.058  -0.012   0.960 -1.8299 -1.4222 -1.4776
16311TIP3    H270349   6.057   0.109   0.870  1.5609  0.9601  1.5395
16312TIP3   OH270350   1.677   0.296   1.731 -0.0057 -0.3685 -0.2445
16312TIP3    H170351   1.627   0.370   1.696  0.6506 -0.6825 -1.8925
16312TIP3    H270352   1.735   0.270   1.660  0.9693 -1.4027  0.8998
16313TIP3   OH270353   6.114   5.357  14.134  0.1627  0.1786  0.5544
16313TIP3    H170354   6.044   5.412  14.168 -0.7948  0.9447 -2.5801
16313TIP3    H270355   6.076   5.311  14.060  2.2355 -1.3388  0.3800
16314TIP3   OH270356   4.313   2.891  15.259 -0.0134  0.1272  0.6410
16314TIP3    H170357   4.362   2.871  15.179  1.0761  1.1452  1.0320
16314TIP3    H270358   4.376   2.938  15.314 -1.6809  2.1672  0.8370
16315TIP3   OH270359   6.641   1.896   5.991  0.1181  0.1848 -0.2326
16315TIP3    H170360   6.630   1.989   6.010 -2.7664 -0.0221 -0.7143
16315TIP3    H270361   6.607   1.850   6.068  1.5306 -0.5080  0.0110
16316TIP3   OH270362   4.093   2.574   5.278  0.1573  0.3334 -0.9477
16316TIP3    H170363   4.186   2.554   5.293 -0.1066  0.4301  0.9247
16316TIP3    H270364   4.088   2.669   5.286 -0.2668  0.2411 -0.1610
16317TIP3   OH270365   2.686   4.534  12.946 -0.6837 -0.3855  0.4423
16317TIP3    H170366   2.724   4.520  12.859 -1.8650  2.7507 -0.6643
16317TIP3    H270367   2.598   4.567  12.928 -0.8351  0.5958  2.8393
16318TIP3   OH270368   5.546   3.424   5.735  0.5517  0.2168  1.0541
16318TIP3    H170369   5.492   3.377   5.799  1.7105  0.7995  2.4918
16318TIP3    H270370   5.602   3.356   5.697  1.8073  0.3255  2.6967
16319TIP3   OH270371   2.699   2.446  14.282 -0.3854  0.0536  0.0498
16319TIP3    H170372   2.688   2.356  14.252  0.1697 -0.0025  0.0119
16319TIP3    H270373   2.716   2.438  14.376  0.0634  0.0918 -0.0266
16320TIP3   OH270374   6.415   6.556  16.770  0.3374 -0.4735  0.1502
16320TIP3    H170375   6.492   6.559  16.826  0.3218 -1.3970  0.2374
16320TIP3    H270376   6.363   6.483  16.804 -0.4896  0.0226 -0.0209
16321TIP3   OH270377   5.111   4.385  12.987 -0.6244 -0.3281 -0.3284
16321TIP3    H170378   5.192   4.335  12.976 -0.0049  0.5839  0.0244
16321TIP3    H270379   5.043   4.329  12.951  0.1971 -1.0222 -0.8085
16322TIP3   OH270380   5.968   6.023  15.436  0.4768  0.5310  0.1233
16322TIP3    H170381   6.003   6.111  15.451 -0.7375  0.4871  3.4386
16322TIP3    H270382   5.876   6.037  15.414  0.4576  0.1018 -0.0844
16323TIP3   OH270383   4.906   2.494  16.964  0.4197 -0.3207  0.7280
16323TIP3    H170384   4.875   2.577  17.001 -0.1977 -0.4427  0.4873
16323TIP3    H270385   4.874   2.494  16.874 -0.3747 -1.2423  1.0058
16324TIP3   OH270386   5.282   6.746   2.727 -0.4778  0.0637 -0.2491
16324TIP3    H170387   5.362   6.710   2.688  1.4303  3.3851  0.4039
16324TIP3    H270388   5.219   6.748   2.655  0.5526 -1.0141 -1.2032
16325TIP3   OH270389   5.381   1.943  12.295 -0.0629 -0.4032 -0.6661
16325TIP3    H170390   5.471   1.911  12.303 -1.2641 -3.8333 -0.2093
16325TIP3    H270391   5.359   1.933  12.203 -0.7655 -1.8430 -0.3513
16326TIP3   OH270392   0.074   5.384   5.008 -0.0944 -0.4187  0.3046
16326TIP3    H170393   0.149   5.403   4.952 -0.4803 -0.3658 -0.2022
16326TIP3    H270394   0.000   5.429   4.966 -0.7297 -1.8244 -0.1181
16327TIP3   OH270395   3.431   1.685  12.307 -0.2177 -0.4513 -1.2140
16327TIP3    H170396   3.490   1.612  12.330  0.1458 -0.5120 -2.3087
16327TIP3    H270397   3.379   1.651  12.233 -0.4677  0.1870 -1.3325
16328TIP3   OH270398   2.185   6.057   2.990  0.2461  0.3919  0.2212
16328TIP3    H170399   2.150   6.001   3.059  0.9581  0.1861  0.4218
16328TIP3    H270400   2.265   6.012   2.961 -0.8038 -0.2748 -1.7347
16329TIP3   OH270401   5.466   5.044  16.351  0.7723  0.1759 -0.0501
16329TIP3    H170402   5.383   5.091  16.342 -0.4113 -1.8103  0.3043
16329TIP3    H270403   5.522   5.103  16.402 -0.4052  1.5380 -0.3087
16330TIP3   OH270404   4.037   2.435   6.289  0.4395  0.1860  0.3934
16330TIP3    H170405   3.994   2.411   6.207 -1.5645  0.4741  1.3233
16330TIP3    H270406   4.083   2.355   6.316  1.4224  0.2061 -1.1856
16331TIP3   OH270407   4.262   1.148   1.980 -0.1372  0.3596 -0.0042
16331TIP3    H170408   4.225   1.064   1.952  1.1991 -0.3644  0.3556
16331TIP3    H270409   4.354   1.144   1.951 -0.0819  1.7111 -0.0284
16332TIP3   OH270410   4.189   4.662  13.323 -0.0288 -0.3035 -0.5185
16332TIP3    H170411   4.176   4.744  13.276 -1.7197  0.1126  0.6237
16332TIP3    H270412   4.135   4.598  13.276 -1.3588  0.0102  0.5693
16333TIP3   OH270413   4.834   2.949   2.653  0.0485  0.3446  0.1933
16333TIP3    H170414   4.769   2.881   2.639 -0.1346  0.7433 -0.9402
16333TIP3    H270415   4.783   3.028   2.674  0.1071  0.8694 -1.5610
16334TIP3   OH270416   0.568   3.327   5.228  0.3926  0.0005 -0.4770
16334TIP3    H170417   0.584   3.249   5.282  2.0514  1.4818  1.2558
16334TIP3    H270418   0.484   3.361   5.259  1.4071  0.9273  1.3177
16335TIP3   OH270419   4.514   4.367  13.631  0.0251  0.0390  0.2303
16335TIP3    H170420   4.487   4.442  13.579 -1.4824  0.9076  2.1952
16335TIP3    H270421   4.610   4.373  13.634  0.0235  0.8371 -1.1155
16336TIP3   OH270422   6.764   0.976  17.196 -0.5383  0.1700 -0.0632
16336TIP3    H170423   6.674   0.952  17.218 -0.3127 -2.2929 -1.5826
16336TIP3    H270424   6.812   0.964  17.278 -1.1393 -1.0952  0.1209
16337TIP3   OH270425   1.967   1.156   5.944  0.0653  0.1574 -0.2485
16337TIP3    H170426   1.931   1.071   5.917  1.5003 -0.2504 -0.9390
16337TIP3    H270427   1.898   1.219   5.921 -0.0921 -0.5562 -1.8620
16338TIP3   OH270428   0.096   1.506  12.762  0.2305  0.4233  0.1125
16338TIP3    H170429   0.113   1.598  12.781 -1.4108  0.8883 -0.6124
16338TIP3    H270430   0.016   1.507  12.709 -0.1262 -1.4576  0.6077
16339TIP3   OH270431   2.670   1.219  16.428  0.3057  0.2608 -0.0039
16339TIP3    H170432   2.733   1.214  16.356  0.8421 -1.7910  0.5565
16339TIP3    H270433   2.697   1.150  16.488 -1.5551  0.3743  1.0156
16340TIP3   OH270434   1.161   1.166   5.225  0.4380  0.4144 -0.0150
16340TIP3    H170435   1.143   1.098   5.160  1.0345  1.3211 -1.1478
16340TIP3    H270436   1.112   1.242   5.195  0.0374  0.5950  1.0685
16341TIP3   OH270437   6.080   1.732  16.432 -0.2313 -0.3392  0.6363
16341TIP3    H170438   6.116   1.647  16.459  1.4127  1.0974  3.1192
16341TIP3    H270439   6.101   1.791  16.503 -2.1290  2.0052 -0.6675
16342TIP3   OH270440   3.867   2.386   6.962  0.1247  0.3352  0.1229
16342TIP3    H170441   3.854   2.314   7.024 -0.4357  0.8793  0.6429
16342TIP3    H270442   3.934   2.354   6.902 -1.2816 -1.2856 -0.6518
16343TIP3   OH270443   3.489   1.742  13.442  0.3871  0.0566  0.1258
16343TIP3    H170444   3.424   1.671  13.441 -0.6426  0.9890 -0.8013
16343TIP3    H270445   3.519   1.745  13.533 -0.6807 -0.5622  0.5137
16344TIP3   OH270446   4.622   3.816  15.975  0.1679  0.5085 -0.3391
16344TIP3    H170447   4.624   3.912  15.972  0.4331  0.4911 -0.7909
16344TIP3    H270448   4.591   3.790  15.888  0.7991  0.1674 -0.4683
16345TIP3   OH270449   2.819   5.563   0.143 -0.0407 -0.1038 -0.4664
16345TIP3    H170450   2.910   5.589   0.155 -0.1431  0.6314 -1.2269
16345TIP3    H270451   2.797   5.592   0.054 -1.2493  0.4192 -0.0080
16346TIP3   OH270452   5.267   2.103   0.094 -0.0916 -0.0660 -0.1984
16346TIP3    H170453   5.221   2.103   0.178 -1.5357  0.7495 -0.9705
16346TIP3    H270454   5.243   2.020   0.052  2.8088 -1.7643  1.3128
16347TIP3   OH270455   1.138   0.900  12.086  0.1165 -0.1325 -0.1477
16347TIP3    H170456   1.205   0.833  12.073 -1.0073 -1.2417 -0.3736
16347TIP3    H270457   1.126   0.939  11.999 -0.4472 -0.8355 -0.3954
16348TIP3   OH270458   0.377   2.522  15.516 -0.0172  0.2347  0.0372
16348TIP3    H170459   0.286   2.494  15.505 -0.0185  0.3689 -0.2914
16348TIP3    H270460   0.381   2.559  15.604 -0.4527  0.8940 -0.2207
16349TIP3   OH270461   2.568   0.279  11.792 -0.6257 -0.4016  0.3309
16349TIP3    H170462   2.564   0.288  11.696 -1.4303 -5.0478 -0.1662
16349TIP3    H270463   2.661   0.267  11.811 -0.4501  0.6476  0.1950
16350TIP3   OH270464   3.965   3.519  12.923  0.1676  0.2943  0.2180
16350TIP3    H170465   4.030   3.585  12.948  0.7335  0.0729 -0.6378
16350TIP3    H270466   3.916   3.560  12.851 -0.0565  0.1168  0.2698
16351TIP3   OH270467   4.982   1.429  11.270 -0.0666  0.6568 -0.3220
16351TIP3    H170468   5.041   1.503  11.286  0.4433  0.2866 -0.4573
16351TIP3    H270469   4.941   1.412  11.354  0.9118  0.1658  0.0688
16352TIP3   OH270470   1.345   3.016  13.071  0.3132 -1.0548  0.6303
16352TIP3    H170471   1.429   3.050  13.042 -0.1325 -0.0788  0.4593
16352TIP3    H270472   1.326   3.064  13.151  0.4612 -2.1057  1.3032
16353TIP3   OH270473   0.622   2.786   1.424 -0.5742 -0.5515  0.2466
16353TIP3    H170474   0.541   2.744   1.395 -1.2483  2.7425 -3.0316
16353TIP3    H270475   0.593   2.863   1.474  0.5313 -0.0063  0.0708
16354TIP3   OH270476   0.587   0.735   5.872  0.2130 -0.1443  0.1056
16354TIP3    H170477   0.527   0.776   5.810  0.8236 -1.4411 -1.3913
16354TIP3    H270478   0.532   0.714   5.948 -1.2414 -1.2382 -1.1991
16355TIP3   OH270479   6.681   3.953  13.760  0.0987 -0.4041 -0.1898
16355TIP3    H170480   6.767   3.990  13.738  0.5391 -0.3373  1.6334
16355TIP3    H270481   6.621   4.027  13.751  0.2269 -0.4292 -1.3795
16356TIP3   OH270482   3.100   4.983  11.847 -0.5731 -0.1113  0.4240
16356TIP3    H170483   3.175   5.006  11.900  1.0113  0.1997 -1.8692
16356TIP3    H270484   3.025   4.988  11.907  1.2700 -0.9333  2.8602
16357TIP3   OH270485   2.172   0.206  14.888  0.0925  0.4594  0.4641
16357TIP3    H170486   2.146   0.278  14.945  0.8228  1.3855 -0.3462
16357TIP3    H270487   2.152   0.237  14.799  1.7850  0.2792  0.0051
16358TIP3   OH270488   4.764   2.671   6.022  0.1667  0.1481  0.3007
16358TIP3    H170489   4.809   2.749   5.989  0.9920 -0.7223 -0.6755
16358TIP3    H270490   4.812   2.649   6.102  0.7288 -0.0944 -0.1033
16359TIP3   OH270491   4.361   6.013   1.847 -0.3457  0.3876  0.3008
16359TIP3    H170492   4.270   5.984   1.842 -0.1271 -0.2422 -0.1204
16359TIP3    H270493   4.411   5.940   1.809  0.2669  1.0297 -0.1350
16360TIP3   OH270494   5.714   5.632   2.711 -0.1581  0.3461  0.5869
16360TIP3    H170495   5.748   5.636   2.622 -1.1252 -0.8247  0.1525
16360TIP3    H270496   5.627   5.593   2.702 -0.6352  1.0406  1.9422
16361TIP3   OH270497   1.708   2.796   5.957 -0.8531 -0.6231 -0.2353
16361TIP3    H170498   1.699   2.781   6.051  0.2743  2.4921  0.4317
16361TIP3    H270499   1.618   2.809   5.926 -1.1232 -0.4020  0.6446
16362TIP3   OH270500   6.393   0.854   1.072 -0.6920 -0.7137  0.2813
16362TIP3    H170501   6.379   0.775   1.124 -0.3014 -0.5948  0.5636
16362TIP3    H270502   6.462   0.902   1.117 -0.0668 -0.8064 -0.5713
16363TIP3   OH270503   2.742   5.619   0.409 -0.7220  0.5312  0.4248
16363TIP3    H170504   2.710   5.537   0.447  1.4708 -0.1563  0.8725
16363TIP3    H270505   2.739   5.605   0.314  0.1104 -0.2823  0.5087
16364TIP3   OH270506   4.754   2.233   1.573  0.4662  0.3368 -0.6312
16364TIP3    H170507   4.733   2.293   1.644  3.7265 -0.8753  1.5036
16364TIP3    H270508   4.790   2.156   1.617 -2.7642 -2.9131 -3.3119
16365TIP3   OH270509   0.682   1.320   4.517  0.1575  0.3957  0.1842
16365TIP3    H170510   0.737   1.375   4.461  0.2473  0.7241  0.5940
16365TIP3    H270511   0.652   1.250   4.459  0.2150  0.7559 -0.2852
16366TIP3   OH270512   6.340   4.786   2.570  0.3833 -0.2194  0.1909
16366TIP3    H170513   6.287   4.845   2.623  0.8345 -0.2046  0.6228
16366TIP3    H270514   6.411   4.841   2.537 -0.0931 -0.1403 -0.7288
16367TIP3   OH270515   0.406   0.893  13.990  0.4592 -0.2618 -0.1739
16367TIP3    H170516   0.416   0.919  13.899  0.4514  1.3084  0.2629
16367TIP3    H270517   0.330   0.942  14.021  0.2602 -1.0349  0.5901
16368TIP3   OH270518   6.720   3.442   5.377 -0.0376 -0.5982 -0.0361
16368TIP3    H170519   6.633   3.482   5.374  0.3797  0.4664  1.6176
16368TIP3    H270520   6.767   3.491   5.444  2.4185 -0.0226 -2.0991
16369TIP3   OH270521   4.359   0.155   1.159 -0.1784  0.2804 -0.5983
16369TIP3    H170522   4.421   0.223   1.134 -0.1143  0.3222 -0.3294
16369TIP3    H270523   4.368   0.149   1.254  0.6200 -0.8735 -0.7378
16370TIP3   OH270524   1.894   6.206   4.095  0.7008 -0.5855 -0.3001
16370TIP3    H170525   1.823   6.270   4.102  0.3743 -0.8232 -1.3575
16370TIP3    H270526   1.960   6.238   4.156 -0.4538 -0.5508  0.9568
16371TIP3   OH270527   0.444   3.676  13.802 -0.2306  0.2389 -0.0685
16371TIP3    H170528   0.512   3.610  13.816 -0.4802 -0.2773 -1.2510
16371TIP3    H270529   0.371   3.646  13.857  0.6933  1.1414  1.7170
16372TIP3   OH270530   3.133   2.079   0.137 -0.1632  0.2205  0.0619
16372TIP3    H170531   3.113   2.014   0.069 -0.1121 -0.0017  0.2560
16372TIP3    H270532   3.219   2.112   0.114 -0.3120  0.4246 -0.1973
16373TIP3   OH270533   3.009   0.736   5.017  0.0543  0.1065 -0.2344
16373TIP3    H170534   2.929   0.760   4.972  0.1482  0.2166 -0.3412
16373TIP3    H270535   3.025   0.808   5.078  0.1961  0.1922 -0.3734
16374TIP3   OH270536   2.171   4.364   3.889  0.4789 -0.1839  0.5848
16374TIP3    H170537   2.078   4.356   3.868 -0.0993  4.2991  0.9559
16374TIP3    H270538   2.215   4.371   3.804  0.4921 -1.8339  0.4281
16375TIP3   OH270539   3.071   3.372   2.788  0.0360 -0.1734  0.3467
16375TIP3    H170540   3.042   3.284   2.763 -0.1285  0.0134 -0.1256
16375TIP3    H270541   3.035   3.385   2.876  0.8419 -0.9448  0.8106
16376TIP3   OH270542   4.666   0.068   3.062 -0.1952  0.0921  0.0112
16376TIP3    H170543   4.737   0.028   3.013 -0.7831 -0.0555 -0.7228
16376TIP3    H270544   4.587   0.051   3.010 -0.6163  1.1925  0.2707
16377TIP3   OH270545   0.648   2.680  10.912  0.0883 -0.2632  0.2292
16377TIP3    H170546   0.734   2.699  10.874  0.3617 -0.5734  0.6825
16377TIP3    H270547   0.587   2.687  10.839  0.5085 -0.0960 -0.1061
16378TIP3   OH270548   4.364   2.243  15.209  0.3088 -0.5247  0.4407
16378TIP3    H170549   4.360   2.147  15.206  0.5679 -0.5657  1.4155
16378TIP3    H270550   4.386   2.264  15.299  1.4018  0.4150 -0.0312
16379TIP3   OH270551   6.700   2.983  16.223 -1.2414 -0.0697 -0.0144
16379TIP3    H170552   6.661   2.899  16.200  0.8785 -0.7925 -1.0819
16379TIP3    H270553   6.712   3.028  16.139  1.4571 -0.4394  0.1446
16380TIP3   OH270554   2.222   5.177   4.622 -0.5621 -0.1949  0.1346
16380TIP3    H170555   2.170   5.098   4.628 -1.3140  0.2598 -0.2507
16380TIP3    H270556   2.171   5.235   4.564  1.8050 -0.8855 -2.7970
16381TIP3   OH270557   2.253   1.669  11.579 -0.2064 -0.5271 -1.0080
16381TIP3    H170558   2.306   1.590  11.575  0.0073 -0.5230  1.5413
16381TIP3    H270559   2.171   1.641  11.619 -0.0844  0.5615  0.0189
16382TIP3   OH270560   1.707   3.514   2.085 -0.0396  0.1483 -0.0419
16382TIP3    H170561   1.758   3.433   2.085  0.9640  0.7630  1.1154
16382TIP3    H270562   1.626   3.491   2.133 -0.0756 -0.3581 -0.3416
16383TIP3   OH270563   3.469   2.018   5.092  0.2796  0.0435 -0.1875
16383TIP3    H170564   3.400   2.049   5.034 -0.6867  1.8596  1.8675
16383TIP3    H270565   3.544   2.002   5.034 -0.6742  1.7375 -1.9268
16384TIP3   OH270566   0.940   5.912  13.746 -0.6505  0.0621 -0.7895
16384TIP3    H170567   0.953   5.993  13.696  0.1367  0.0239 -0.6633
16384TIP3    H270568   0.859   5.926  13.794  0.0096  1.2071  0.0301
16385TIP3   OH270569   3.366   2.983   4.454  0.3573 -0.5041  0.2811
16385TIP3    H170570   3.339   2.895   4.480  0.9094 -0.9822 -0.7503
16385TIP3    H270571   3.329   3.040   4.522 -0.8337 -1.4279  0.4289
16386TIP3   OH270572   0.910   1.696  11.973  0.4916 -0.4680  0.2109
16386TIP3    H170573   0.910   1.791  11.962 -0.1072 -0.4375  0.4098
16386TIP3    H270574   0.836   1.680  12.032  0.5859 -1.0560  0.1660
16387TIP3   OH270575   5.556   4.336   4.476  0.0643  0.0839  0.0072
16387TIP3    H170576   5.467   4.312   4.450  0.0214  0.2699 -0.0167
16387TIP3    H270577   5.545   4.385   4.558 -0.0437  2.0228 -1.1297
16388TIP3   OH270578   5.745   6.480   1.422 -0.2855 -0.5977  0.1317
16388TIP3    H170579   5.655   6.477   1.388 -0.3789  0.1201  0.3109
16388TIP3    H270580   5.797   6.434   1.356 -0.4611  0.8366 -1.0344
16389TIP3   OH270581   4.852   3.523   0.038  0.7270  0.0317 -0.5479
16389TIP3    H170582   4.844   3.435   0.002  1.7669  0.1416 -1.0527
16389TIP3    H270583   4.888   3.576  -0.033 -2.3901  1.4724 -1.1194
16390TIP3   OH270584   1.435   3.040  13.953  0.0742  0.1090  0.0099
16390TIP3    H170585   1.443   3.124  13.999 -2.5149  0.7294 -0.6018
16390TIP3    H270586   1.412   2.977  14.021  2.6336 -0.2730  0.5758
16391TIP3   OH270587   1.030   3.875   0.836  0.2114  0.0067  0.4476
16391TIP3    H170588   1.005   3.799   0.889 -1.0870 -1.2496 -1.8725
16391TIP3    H270589   1.123   3.862   0.816  0.4184 -0.0841  1.4696
16392TIP3   OH270590   5.692   6.500  12.741 -0.3386  0.4114 -0.7465
16392TIP3    H170591   5.681   6.405  12.751 -0.0145  0.3471 -1.0069
16392TIP3    H270592   5.697   6.514  12.647  0.0618  0.6353 -0.6943
16393TIP3   OH270593   2.980   0.345   3.993 -0.5720  0.0777  0.3831
16393TIP3    H170594   2.960   0.342   3.900  0.3604  1.1972  0.1402
16393TIP3    H270595   2.898   0.373   4.035 -0.6066  0.8972 -0.2270
16394TIP3   OH270596   2.659   3.368  15.565 -0.2370 -0.4526 -0.3748
16394TIP3    H170597   2.733   3.318  15.600 -0.9387 -1.6262 -0.5410
16394TIP3    H270598   2.582   3.327  15.604 -0.7507  1.7075  0.9805
16395TIP3   OH270599   0.702   4.269   2.785 -0.0395 -0.2849  0.1849
16395TIP3    H170600   0.697   4.340   2.848 -1.9683 -0.8872  0.7308
16395TIP3    H270601   0.680   4.310   2.701 -1.3095 -0.2612  0.5233
16396TIP3   OH270602   1.417   2.609  11.904  0.8694  0.5691  0.0066
16396TIP3    H170603   1.368   2.678  11.949  3.5196  0.3106  3.5667
16396TIP3    H270604   1.500   2.650  11.879  1.3110 -0.5566 -0.4396
16397TIP3   OH270605   2.643   4.140   1.033 -0.1464  0.4273  0.9375
16397TIP3    H170606   2.551   4.163   1.038 -0.6060 -1.3254  0.9715
16397TIP3    H270607   2.677   4.189   0.958 -1.3973  0.1260  0.1620
16398TIP3   OH270608   4.213   1.583   0.759 -0.5580  0.7405  0.9234
16398TIP3    H170609   4.172   1.523   0.697  1.3736 -0.2504  0.5636
16398TIP3    H270610   4.162   1.575   0.839 -1.4445  0.0252  0.2921
16399TIP3   OH270611   5.885   1.219   5.642 -0.5072 -0.6533  0.1808
16399TIP3    H170612   5.927   1.261   5.567  1.8197 -3.2496 -0.0649
16399TIP3    H270613   5.809   1.174   5.604 -1.5724  1.2324  0.0481
16400TIP3   OH270614   5.730   0.202  15.032  0.0216 -0.3423  0.5906
16400TIP3    H170615   5.713   0.201  14.938  2.1158 -4.2745  0.1464
16400TIP3    H270616   5.644   0.207  15.073 -0.9369  0.5271 -1.4893
16401TIP3   OH270617   5.656   1.228  13.026 -0.6333  0.3544 -0.2418
16401TIP3    H170618   5.624   1.149  13.070 -0.6254 -0.1169 -1.0757
16401TIP3    H270619   5.731   1.198  12.974 -1.1515  0.7287 -1.2301
16402TIP3   OH270620   2.655   1.212  11.281 -0.4429  0.3406 -0.1415
16402TIP3    H170621   2.703   1.170  11.351 -0.2408  1.1772  0.2299
16402TIP3    H270622   2.679   1.163  11.202  0.8499  0.6162  0.0712
16403TIP3   OH270623   4.310   1.902   4.700  0.8072  0.3033 -0.2359
16403TIP3    H170624   4.263   1.831   4.745 -1.2885  1.3435 -0.7350
16403TIP3    H270625   4.293   1.979   4.754  1.0182  0.9029 -1.0336
16404TIP3   OH270626   6.331   6.475  14.765  0.1242 -0.0729  0.4195
16404TIP3    H170627   6.376   6.476  14.849  0.7269 -1.0201  0.1280
16404TIP3    H270628   6.381   6.535  14.710  0.4255 -0.3292  0.4071
16405TIP3   OH270629   0.015   4.225   0.848 -0.0113  0.4324 -0.1102
16405TIP3    H170630   0.099   4.180   0.862  0.1352  0.2268 -1.5250
16405TIP3    H270631  -0.011   4.256   0.934  2.1540  1.5984  0.1575
16406TIP3   OH270632   2.623   5.285  12.136 -0.4361 -0.5432  0.3584
16406TIP3    H170633   2.601   5.288  12.229 -1.3910 -0.1399  0.1253
16406TIP3    H270634   2.608   5.374  12.105 -0.6727 -0.8075 -0.2996
16407TIP3   OH270635   0.207   0.268   2.989  0.0792 -0.0955  0.1887
16407TIP3    H170636   0.137   0.305   3.044 -1.1204 -0.4534 -1.0585
16407TIP3    H270637   0.260   0.343   2.963 -1.2218  0.5122 -0.7693
16408TIP3   OH270638   4.461   4.018  17.227  0.1584 -0.0302  0.1180
16408TIP3    H170639   4.413   3.996  17.147  0.5192  1.0642 -0.4025
16408TIP3    H270640   4.504   3.936  17.253  0.2410 -0.3277 -0.9534
16409TIP3   OH270641   0.499   6.608  13.259  0.4965  0.0093  0.5948
16409TIP3    H170642   0.558   6.552  13.210  2.2373  0.5083  2.0520
16409TIP3    H270643   0.557   6.665  13.309 -1.2484  2.1662  0.1967
16410TIP3   OH270644   0.122   6.715  12.186  0.5736  0.0133 -0.6431
16410TIP3    H170645   0.172   6.684  12.261  1.5735  0.2393 -1.2002
16410TIP3    H270646   0.159   6.668  12.111 -1.0456 -0.9059 -0.8758
16411TIP3   OH270647   4.001   3.244  11.047  0.2759 -0.2596 -0.6084
16411TIP3    H170648   4.081   3.296  11.039 -1.2821  2.1742 -1.0721
16411TIP3    H270649   3.958   3.253  10.962 -1.2677 -0.1395  0.1611
16412TIP3   OH270650   6.169   0.621  15.591  0.8272  0.4136 -0.0644
16412TIP3    H170651   6.202   0.658  15.673  1.0213 -1.7321  0.8546
16412TIP3    H270652   6.074   0.616  15.604  0.4918  2.9237 -1.1964
16413TIP3   OH270653   5.759   2.955  15.666 -0.0985 -0.8699  0.2218
16413TIP3    H170654   5.703   2.891  15.623 -0.4124 -1.8624  2.0963
16413TIP3    H270655   5.848   2.933  15.637 -0.4077 -0.8948 -0.7127
16414TIP3   OH270656   2.223   0.889   4.863  0.2219  0.1450 -0.1973
16414TIP3    H170657   2.165   0.869   4.936  1.3148 -0.9738  0.3752
16414TIP3    H270658   2.222   0.985   4.857 -3.1214  0.0868 -1.4027
16415TIP3   OH270659   6.347   6.751   0.998  0.5639 -0.5440  0.7358
16415TIP3    H170660   6.271   6.707   1.035  0.4866 -0.9960  0.0562
16415TIP3    H270661   6.349   6.722   0.906  0.4148  0.9777  0.2293
16416TIP3   OH270662   1.247   4.651   4.267  0.1092  0.1363  0.5216
16416TIP3    H170663   1.337   4.672   4.289 -0.0142  2.9468 -1.3636
16416TIP3    H270664   1.196   4.726   4.299 -1.3698 -0.7241  0.2397
16417TIP3   OH270665   6.220   6.112  14.372  0.1715  0.2578 -0.1276
16417TIP3    H170666   6.128   6.106  14.347  0.4993  0.6460 -1.5061
16417TIP3    H270667   6.220   6.165  14.451 -0.9067 -0.8674  0.6455
16418TIP3   OH270668   5.836   5.283  12.811  0.0701  0.3125 -0.1368
16418TIP3    H170669   5.798   5.292  12.899 -0.3244 -2.1029 -0.0211
16418TIP3    H270670   5.926   5.315  12.820 -0.9032  3.0042  0.3839
16419TIP3   OH270671   4.227   2.714  10.723 -0.5867 -0.2265 -0.2538
16419TIP3    H170672   4.193   2.803  10.732 -0.5382 -0.0986 -1.2345
16419TIP3    H270673   4.234   2.681  10.813  1.2529  1.4542  0.2469
16420TIP3   OH270674   0.730   1.347  12.091  0.2663  0.2543 -0.3965
16420TIP3    H170675   0.674   1.372  12.017  0.1167  0.4716 -0.2090
16420TIP3    H270676   0.699   1.401  12.164  0.5306  0.1681 -0.2193
16421TIP3   OH270677   2.800   0.176   0.756  0.2339  0.2632 -0.0366
16421TIP3    H170678   2.717   0.215   0.784  0.7883  1.2467  0.2560
16421TIP3    H270679   2.776   0.089   0.722 -1.1836  1.3428 -1.9031
16422TIP3   OH270680   5.192   1.113  15.586  0.2611  0.0547  0.5935
16422TIP3    H170681   5.262   1.178  15.581  1.2898 -1.0692  0.2419
16422TIP3    H270682   5.165   1.115  15.678  1.1453  0.0805  0.8557
16423TIP3   OH270683   0.248   2.222  10.945 -0.2538  0.2922  0.7687
16423TIP3    H170684   0.251   2.179  10.859 -2.1540 -1.0407  1.3506
16423TIP3    H270685   0.180   2.289  10.936 -1.0965 -0.4562  1.4910
16424TIP3   OH270686   2.878   0.330  14.876 -0.0695 -0.0203 -0.5955
16424TIP3    H170687   2.839   0.253  14.917 -0.9846  1.1884  0.8712
16424TIP3    H270688   2.948   0.295  14.821 -1.5784 -2.0126 -1.2869
16425TIP3   OH270689   4.130   2.979   0.371  0.0367  0.2168 -0.5612
16425TIP3    H170690   4.114   2.981   0.465 -3.7101 -4.4986 -0.9195
16425TIP3    H270691   4.211   2.928   0.362  2.0347  3.1152  0.1011
16426TIP3   OH270692   0.886   2.217  13.343  0.3797 -0.0042  0.3229
16426TIP3    H170693   0.937   2.287  13.302 -1.3873  1.2961  0.2814
16426TIP3    H270694   0.882   2.149  13.276  2.2666 -0.2404  0.4239
16427TIP3   OH270695   3.163   1.755  16.774 -0.0888  0.0340 -0.2787
16427TIP3    H170696   3.232   1.803  16.728 -0.7229  1.6148  0.3731
16427TIP3    H270697   3.083   1.776  16.726 -0.5746  0.7243  0.8176
16428TIP3   OH270698   6.743   5.344  16.951 -0.3274 -0.2953  0.1062
16428TIP3    H170699   6.662   5.334  17.001  0.4460 -1.0963  1.2441
16428TIP3    H270700   6.744   5.437  16.927 -1.5525 -0.2650  0.1156
16429TIP3   OH270701   1.895   4.428   2.648  0.2610 -0.7260 -0.7444
16429TIP3    H170702   1.860   4.503   2.600  2.4502 -1.0029 -2.8955
16429TIP3    H270703   1.846   4.353   2.616  0.0435 -0.5835 -0.7406
16430TIP3   OH270704   6.577   1.826   1.542 -0.5879 -0.5642 -0.2976
16430TIP3    H170705   6.626   1.908   1.539 -0.4054 -0.7219 -3.1987
16430TIP3    H270706   6.636   1.763   1.582 -0.6457  0.6409  1.7427
16431TIP3   OH270707   1.661   6.589  16.616  0.1697 -0.2780  0.2567
16431TIP3    H170708   1.695   6.615  16.530  0.8480 -1.6633  0.0938
16431TIP3    H270709   1.599   6.518  16.596 -0.9925  0.5694  0.7753
16432TIP3   OH270710   1.710   3.475   0.727 -0.6585  0.5803 -0.2259
16432TIP3    H170711   1.660   3.451   0.805  0.1446  0.6981  0.3357
16432TIP3    H270712   1.647   3.469   0.655 -1.3639  0.3027  0.4061
16433TIP3   OH270713   4.373   5.905  10.985 -0.2696 -0.0190 -0.0968
16433TIP3    H170714   4.385   5.979  11.045 -3.1593  1.3618 -1.0992
16433TIP3    H270715   4.414   5.933  10.903 -0.7149  0.1686 -0.2552
16434TIP3   OH270716   0.221   0.127  11.015  0.2165  0.6099  0.4221
16434TIP3    H170717   0.229   0.032  11.029  0.1367  0.4766 -0.3927
16434TIP3    H270718   0.137   0.138  10.971  1.0523  0.8574 -1.1708
16435TIP3   OH270719   4.138   5.923   3.082 -0.0966 -0.3704  0.4814
16435TIP3    H170720   4.060   5.926   3.136 -0.9616 -0.5869 -0.7430
16435TIP3    H270721   4.145   5.832   3.054  0.6934 -0.3892  0.7095
16436TIP3   OH270722   3.831   4.009   5.199 -0.0119 -0.2195  0.3289
16436TIP3    H170723   3.910   4.002   5.253  0.0935  1.5676  0.4196
16436TIP3    H270724   3.793   3.921   5.202  1.3207 -0.7916  1.2664
16437TIP3   OH270725   6.592   1.750  12.647 -0.4186 -0.0154 -0.1082
16437TIP3    H170726   6.634   1.794  12.572 -0.7865 -0.1644 -0.4054
16437TIP3    H270727   6.512   1.714  12.611 -0.8849  0.4064  0.4966
16438TIP3   OH270728   4.300   0.283  15.344  0.5257  0.2210 -0.0343
16438TIP3    H170729   4.380   0.257  15.389  0.1932  0.5073  0.7319
16438TIP3    H270730   4.230   0.238  15.392  0.0026  2.0176  0.9283
16439TIP3   OH270731   3.257   0.960  15.835 -0.4946  0.2463 -0.2343
16439TIP3    H170732   3.208   0.904  15.774 -0.9654  0.7644 -0.3270
16439TIP3    H270733   3.256   1.047  15.794  1.6085  0.0011 -0.8989
16440TIP3   OH270734   5.651   1.810   1.196  0.0245 -0.1382  0.0812
16440TIP3    H170735   5.696   1.824   1.279 -0.2056  1.1625  0.0085
16440TIP3    H270736   5.558   1.820   1.217 -0.3855 -4.3699  0.5352
16441TIP3   OH270737   5.563   0.344  11.880 -0.2327  0.4968  0.6381
16441TIP3    H170738   5.473   0.316  11.897 -0.5153 -0.4149 -2.1056
16441TIP3    H270739   5.616   0.294  11.942 -1.3170 -1.6712 -0.1194
16442TIP3   OH270740   3.328   0.731   3.268  0.1881  0.3655  0.2691
16442TIP3    H170741   3.241   0.717   3.231 -0.2575  1.3825  0.9005
16442TIP3    H270742   3.386   0.678   3.214 -1.0257 -1.5859  0.7905
16443TIP3   OH270743   3.803   0.248   2.479  0.0215  0.3053  0.2483
16443TIP3    H170744   3.709   0.246   2.461  0.1187 -1.4940 -0.1434
16443TIP3    H270745   3.830   0.156   2.478  1.5395  0.7099  1.7051
16444TIP3   OH270746   5.199   0.023  14.087 -0.1525 -0.0079  0.0975
16444TIP3    H170747   5.131  -0.033  14.049  1.7075 -1.2278 -1.5218
16444TIP3    H270748   5.205  -0.004  14.179 -1.9783  0.2565  0.3097
16445TIP3   OH270749   4.864   4.772  14.619  0.3738  0.5957 -0.0316
16445TIP3    H170750   4.770   4.785  14.634  0.6616 -0.8622  3.3651
16445TIP3    H270751   4.905   4.852  14.651  0.5164 -0.1222  1.6381
16446TIP3   OH270752   2.254   1.968  16.964 -0.2869  0.5970  0.4235
16446TIP3    H170753   2.220   1.934  16.881 -0.1617  1.3532  0.0565
16446TIP3    H270754   2.192   2.038  16.988  0.3036  1.1433  0.3863
16447TIP3   OH270755   3.034   1.731  11.876  0.0894  0.4072 -0.2545
16447TIP3    H170756   3.012   1.784  11.952  0.8632  0.8743 -0.3539
16447TIP3    H270757   2.979   1.765  11.805  0.5761  1.0742 -0.3149
16448TIP3   OH270758   3.725   6.027  11.996  0.1069 -0.0333 -0.3503
16448TIP3    H170759   3.768   5.976  11.927 -0.1522 -0.8647  0.0894
16448TIP3    H270760   3.704   6.111  11.955  3.5481  1.0041 -0.1471
16449TIP3   OH270761   6.497   3.686  12.724 -0.9461  0.1314  0.5609
16449TIP3    H170762   6.526   3.675  12.634 -1.7756  0.5387  0.2413
16449TIP3    H270763   6.565   3.644  12.777  1.5534  3.2959 -0.0327
16450TIP3   OH270764   2.805   3.736   3.506 -0.4986  0.7221 -0.3700
16450TIP3    H170765   2.714   3.758   3.527 -0.6473  0.0257 -0.2458
16450TIP3    H270766   2.856   3.808   3.543 -1.0044  1.1435 -0.4793
16451TIP3   OH270767   4.576   2.733  14.522 -0.4574  0.0021  0.7087
16451TIP3    H170768   4.550   2.675  14.450 -0.8247  0.2361  0.6525
16451TIP3    H270769   4.608   2.812  14.478 -0.8431  0.2126  0.8116
16452TIP3   OH270770   0.620   3.740  10.795  0.0649 -0.4592 -0.1129
16452TIP3    H170771   0.585   3.800  10.729  0.6262 -1.1822 -1.0871
16452TIP3    H270772   0.544   3.718  10.849 -0.6630 -0.7641 -1.2311
16453TIP3   OH270773   2.529   2.486   4.039 -0.1352 -0.2857 -0.0076
16453TIP3    H170774   2.598   2.498   3.973  1.7151  2.2251  2.2940
16453TIP3    H270775   2.451   2.524   3.998  0.1373 -1.8849 -2.1007
16454TIP3   OH270776   6.188   3.684   4.084  0.1260 -0.3397  0.8330
16454TIP3    H170777   6.263   3.699   4.027 -0.6217  1.0654  0.1768
16454TIP3    H270778   6.226   3.671   4.171  1.2079 -1.2602  0.2318
16455TIP3   OH270779   0.998   2.325   4.933 -0.2768  0.3082 -0.4362
16455TIP3    H170780   0.904   2.310   4.928  0.1865 -2.4612 -1.9153
16455TIP3    H270781   1.017   2.326   5.027 -1.9105  1.9980 -0.0941
16456TIP3   OH270782   3.324   0.165  13.722 -0.8327  0.2930 -0.9134
16456TIP3    H170783   3.328   0.181  13.628 -1.3437 -1.0287 -1.1734
16456TIP3    H270784   3.301   0.249  13.760  1.3934  1.3486 -1.7807
16457TIP3   OH270785   4.037   5.374   5.587 -0.1930 -0.0275  0.6444
16457TIP3    H170786   3.956   5.420   5.562  0.2426  0.8470  0.8002
16457TIP3    H270787   4.018   5.340   5.674  0.1004  1.4497  1.3063
16458TIP3   OH270788   4.563   1.229  11.390  0.3619  0.0684  0.4848
16458TIP3    H170789   4.549   1.143  11.352 -1.2365  1.4705 -2.2839
16458TIP3    H270790   4.475   1.267  11.397  1.0822  1.6779  1.1637
16459TIP3   OH270791   5.868   5.196  17.066 -0.1701 -0.8477 -0.2009
16459TIP3    H170792   5.851   5.134  17.137  1.6204  1.4333  2.3344
16459TIP3    H270793   5.799   5.262  17.075 -0.6784 -1.2086 -1.3901
16460TIP3   OH270794   5.303   0.711  14.606 -0.8251  0.0855 -0.1680
16460TIP3    H170795   5.249   0.633  14.603 -0.4934 -0.1272 -0.6574
16460TIP3    H270796   5.366   0.700  14.535  1.7839 -1.0661  2.2043
16461TIP3   OH270797   2.326   2.249   3.806 -0.6941 -0.7888 -0.0200
16461TIP3    H170798   2.321   2.230   3.712  1.0719  1.8146 -0.6938
16461TIP3    H270799   2.395   2.190   3.838 -1.1103 -1.4904 -0.3871
16462TIP3   OH270800   1.783   1.525   0.319 -0.6867 -0.0101  0.0327
16462TIP3    H170801   1.706   1.581   0.312 -0.2064  0.5079 -1.1663
16462TIP3    H270802   1.827   1.533   0.235  0.4911 -0.5930  0.5740
16463TIP3   OH270803   4.396   2.398  17.014  0.6248  0.5625 -0.0254
16463TIP3    H170804   4.473   2.355  17.051  0.2237  0.7352  1.0548
16463TIP3    H270805   4.424   2.488  16.996  0.6729  0.6415  0.4201
16464TIP3   OH270806   3.093   2.724   0.596 -0.1994 -0.3888  0.1563
16464TIP3    H170807   3.086   2.734   0.501  2.7075 -2.5154 -0.3280
16464TIP3    H270808   3.005   2.697   0.622 -0.5059 -1.9434 -2.2472
16465TIP3   OH270809   0.242   5.240  13.678  0.1618  0.3668 -0.2249
16465TIP3    H170810   0.315   5.179  13.670 -1.5507 -1.7947  0.1625
16465TIP3    H270811   0.282   5.320  13.712  2.5304 -0.3439 -1.2050
16466TIP3   OH270812   0.998   0.018   5.223  0.4565  0.4139  0.2363
16466TIP3    H170813   0.994   0.065   5.306 -1.2433  0.5163  0.1153
16466TIP3    H270814   0.945   0.071   5.163 -0.3202 -0.9209 -0.2689
16467TIP3   OH270815   2.936   6.214   1.071  0.2804 -0.0334 -0.3109
16467TIP3    H170816   2.884   6.156   1.125  1.9614 -1.3029 -0.0361
16467TIP3    H270817   2.878   6.238   0.999 -0.5075 -1.8680 -0.3085
16468TIP3   OH270818   2.273   0.365  13.548 -0.2563 -0.1611 -0.2073
16468TIP3    H170819   2.308   0.429  13.610 -1.7377  1.9264 -1.4560
16468TIP3    H270820   2.183   0.393  13.532 -0.8104 -2.3162 -1.1394
16469TIP3   OH270821   1.115   4.158  12.764 -0.0290  0.1301 -0.0728
16469TIP3    H170822   1.178   4.207  12.817 -0.6795  0.6460  0.2318
16469TIP3    H270823   1.063   4.225  12.720 -0.6313 -0.2963 -0.0118
16470TIP3   OH270824   1.063   5.445  14.226  0.3265 -0.4512 -0.8051
16470TIP3    H170825   1.066   5.400  14.142 -1.8215 -3.3031  0.5767
16470TIP3    H270826   0.987   5.408  14.271  1.4334  0.9869  2.4029
16471TIP3   OH270827   1.500   6.683   4.102 -0.2486  0.1482 -0.3170
16471TIP3    H170828   1.508   6.617   4.033  1.2863  1.0664 -1.0539
16471TIP3    H270829   1.586   6.685   4.143 -0.8116  0.4479  0.8626
16472TIP3   OH270830   5.488   0.376  14.839 -0.9194  0.0468  0.1801
16472TIP3    H170831   5.556   0.430  14.797 -0.7760  0.5269  1.0157
16472TIP3    H270832   5.503   0.288  14.804  0.1285  0.1542  0.3381
16473TIP3   OH270833   4.651   0.314  15.016 -0.3887 -0.4482  0.7692
16473TIP3    H170834   4.567   0.305  14.972 -1.1221 -0.0740  2.0669
16473TIP3    H270835   4.629   0.342  15.105  1.1414  0.4852  0.8773
16474TIP3   OH270836   0.677   4.118  14.518  0.2730  0.1295  0.6491
16474TIP3    H170837   0.730   4.052  14.474 -0.5403  0.0232 -0.1738
16474TIP3    H270838   0.736   4.156  14.583  0.7531 -1.3921  1.1319
16475TIP3   OH270839   3.331   4.666  15.913 -0.0437 -0.6987 -0.0051
16475TIP3    H170840   3.295   4.586  15.876  1.2936 -2.1614  1.7500
16475TIP3    H270841   3.425   4.659  15.898  0.4333 -0.9417  2.8552
16476TIP3   OH270842   0.992   2.356  13.121  0.5631  0.3970 -0.1926
16476TIP3    H170843   1.040   2.311  13.051  0.3869 -0.1785  0.0627
16476TIP3    H270844   0.900   2.352  13.094  0.6768  1.8902 -0.9046
16477TIP3   OH270845   6.505   6.495  15.912 -0.2460  0.1301 -0.6639
16477TIP3    H170846   6.596   6.518  15.929 -0.0646 -0.5774 -0.6300
16477TIP3    H270847   6.479   6.444  15.989 -1.2262  1.8260  0.1609
16478TIP3   OH270848   3.694   6.305   4.660 -0.5588  0.3888 -0.7267
16478TIP3    H170849   3.628   6.287   4.593  0.3891  0.9345 -1.8144
16478TIP3    H270850   3.646   6.296   4.743 -1.9777  0.7014 -1.4931
16479TIP3   OH270851   0.625   1.473   4.256  0.3911  0.1345  0.4331
16479TIP3    H170852   0.613   1.522   4.337 -0.3672 -0.6931  0.8249
16479TIP3    H270853   0.538   1.439   4.235  0.5777  0.3774 -0.7435
16480TIP3   OH270854   3.857   5.750   2.895 -0.3143  0.1927  0.8357
16480TIP3    H170855   3.910   5.817   2.853 -0.1016 -1.2069 -1.1899
16480TIP3    H270856   3.909   5.670   2.889 -2.0077 -0.9025  0.1251
16481TIP3   OH270857   1.099   2.598  11.222 -0.2098  0.7028  0.3646
16481TIP3    H170858   1.134   2.592  11.311  0.3050  1.7182  0.2254
16481TIP3    H270859   1.131   2.681  11.188 -2.5894  1.5854  0.1646
16482TIP3   OH270860   0.592   5.304  13.298 -0.5658 -0.0506  0.0508
16482TIP3    H170861   0.629   5.385  13.262 -0.4332  0.2582  0.8542
16482TIP3    H270862   0.586   5.321  13.392 -2.4477 -0.2181 -0.0221
16483TIP3   OH270863   4.185   3.359  15.184  0.1497  0.1546 -0.0570
16483TIP3    H170864   4.235   3.335  15.106  2.4272 -2.5737  2.1102
16483TIP3    H270865   4.105   3.307  15.179  0.4623 -0.2966 -0.3531
16484TIP3   OH270866   4.287   0.172  10.965 -0.1584 -0.1495 -0.0546
16484TIP3    H170867   4.194   0.181  10.945 -0.2356 -1.2828 -0.2595
16484TIP3    H270868   4.323   0.125  10.890  0.9518  1.8703 -0.8443
16485TIP3   OH270869   3.414   4.182   4.517  0.1343  0.2567 -0.0876
16485TIP3    H170870   3.505   4.182   4.545 -0.3740  0.2054  1.6443
16485TIP3    H270871   3.376   4.258   4.561 -0.7532 -0.0001 -0.4044
16486TIP3   OH270872   6.459   0.011  16.342  0.3016 -0.0467 -0.4644
16486TIP3    H170873   6.400  -0.042  16.396 -1.1615  1.0229 -0.9616
16486TIP3    H270874   6.439  -0.016  16.252  0.7134  0.1874 -0.6258
16487TIP3   OH270875   4.374   4.987  12.231 -0.1781 -0.3239  0.2006
16487TIP3    H170876   4.397   5.020  12.318  1.0604  0.2752 -0.3401
16487TIP3    H270877   4.403   4.896  12.232  2.1322  0.3660 -0.4017
16488TIP3   OH270878   4.865   2.027  15.573  0.2573 -0.7242 -0.1895
16488TIP3    H170879   4.913   2.013  15.654 -0.0672 -2.4952 -0.2688
16488TIP3    H270880   4.779   2.057  15.601  0.8050  0.6613  0.0286
16489TIP3   OH270881   0.216   4.798  11.776  0.0477  0.0597 -0.5348
16489TIP3    H170882   0.233   4.831  11.688  1.0361  0.2545 -0.2842
16489TIP3    H270883   0.187   4.874  11.826  1.5545  0.4118 -0.1605
16490TIP3   OH270884   3.827   5.478  16.345  0.9408  0.4650  0.6001
16490TIP3    H170885   3.759   5.516  16.400  0.6521  1.9692 -0.7557
16490TIP3    H270886   3.869   5.553  16.303  0.3408 -0.6638 -2.1681
16491TIP3   OH270887   0.731   6.721  15.804  0.0491 -0.6816  0.4733
16491TIP3    H170888   0.661   6.661  15.833 -0.6672 -0.0065  0.1618
16491TIP3    H270889   0.738   6.785  15.875  0.3150 -0.7162  0.4781
16492TIP3   OH270890   1.462   1.980  11.694 -0.0490  0.0392 -0.2704
16492TIP3    H170891   1.504   1.975  11.780 -0.7783  1.3213  0.1673
16492TIP3    H270892   1.379   1.933  11.704 -0.8075  1.4497  0.1448
16493TIP3   OH270893   4.992   1.600  11.914 -0.6160  0.6358 -0.2672
16493TIP3    H170894   4.961   1.593  11.824  0.0922  0.2298 -0.4802
16493TIP3    H270895   4.922   1.560  11.966 -0.5828 -0.0118 -0.7179
16494TIP3   OH270896   2.813   5.178  16.451  0.1340  0.3216  0.1507
16494TIP3    H170897   2.746   5.147  16.512 -0.8508  1.8426 -0.1414
16494TIP3    H270898   2.780   5.153  16.364  0.6918 -0.2746  0.1022
16495TIP3   OH270899   4.078   6.736  11.217  0.3018  0.3773 -0.2814
16495TIP3    H170900   4.161   6.709  11.255  0.2291  0.1999 -0.2472
16495TIP3    H270901   4.022   6.755  11.292 -0.2779 -1.2727 -0.2597
16496TIP3   OH270902   1.305   6.152  11.568  0.3353  0.8935  0.3635
16496TIP3    H170903   1.245   6.113  11.505  0.4652  0.2148  0.6607
16496TIP3    H270904   1.298   6.247  11.552 -1.5284  0.8997  1.0219
16497TIP3   OH270905   1.152   4.992  14.613  0.2887 -0.6064 -0.4148
16497TIP3    H170906   1.076   4.963  14.563 -1.3882 -0.1777  1.7799
16497TIP3    H270907   1.210   5.032  14.549 -2.1719  0.7198 -1.8779
16498TIP3   OH270908   4.593   2.655   0.394  0.0733 -0.1105  0.0971
16498TIP3    H170909   4.635   2.570   0.407 -0.0605 -0.1471  0.2967
16498TIP3    H270910   4.538   2.642   0.316  0.2986 -0.1129 -0.0602
16499TIP3   OH270911   4.057   6.535  14.133 -0.4459 -0.3897 -0.1736
16499TIP3    H170912   4.033   6.547  14.041  0.9480  0.7584 -0.4068
16499TIP3    H270913   4.137   6.483  14.130 -0.0144  0.2370  0.3496
16500TIP3   OH270914   4.765   1.483  10.820 -0.1886 -0.2227  0.4868
16500TIP3    H170915   4.707   1.434  10.880 -1.6580  0.5926 -0.2484
16500TIP3    H270916   4.717   1.486  10.737  0.7048  0.8837 -0.0057
16501TIP3   OH270917   5.161   2.675   0.641 -0.0350 -0.6855  0.1681
16501TIP3    H170918   5.130   2.750   0.591 -0.5335 -0.0615  1.3897
16501TIP3    H270919   5.248   2.656   0.606 -0.6014 -0.5951 -1.2851
16502TIP3   OH270920   0.418   0.133  17.010 -0.2465  0.1047 -0.0756
16502TIP3    H170921   0.469   0.104  16.934  0.6264  2.6642 -0.5087
16502TIP3    H270922   0.335   0.162  16.973 -0.2968  0.1821  0.0997
16503TIP3   OH270923   1.204   6.417  16.288  0.1644 -0.0222 -0.2262
16503TIP3    H170924   1.222   6.426  16.194  0.9082 -0.6241 -0.1470
16503TIP3    H270925   1.116   6.453  16.299  0.6032  1.3084 -0.9354
16504TIP3   OH270926   0.424   5.737   1.069 -0.1231  0.6425 -0.2408
16504TIP3    H170927   0.354   5.735   1.135 -0.6509 -1.2957 -0.8142
16504TIP3    H270928   0.380   5.768   0.990 -0.4538 -0.8951 -0.6880
16505TIP3   OH270929   5.158   4.748  15.641  0.3757 -0.4374 -0.4446
16505TIP3    H170930   5.113   4.723  15.560 -1.4594 -1.1007  0.7322
16505TIP3    H270931   5.244   4.708  15.633 -0.3082 -1.7901 -1.4344
16506TIP3   OH270932   6.210   4.576   5.008 -0.2204  0.7260 -0.4808
16506TIP3    H170933   6.238   4.485   5.002  0.0962  0.8592 -1.1367
16506TIP3    H270934   6.114   4.572   5.010 -0.2022  0.3724 -0.3110
16507TIP3   OH270935   6.714   5.395   5.407 -0.4448 -1.2213  0.0082
16507TIP3    H170936   6.670   5.372   5.325  0.2988  1.9975 -1.3516
16507TIP3    H270937   6.806   5.375   5.391 -0.1822  0.1770 -0.2351
16508TIP3   OH270938   0.014   0.779   3.155 -0.6864  0.1814 -0.0472
16508TIP3    H170939  -0.055   0.801   3.091  0.3632 -0.0208 -1.2762
16508TIP3    H270940   0.085   0.839   3.134 -1.0705  1.5182  2.2858
16509TIP3   OH270941   0.043   4.566   0.982 -0.1277 -0.3351  0.4274
16509TIP3    H170942   0.011   4.500   1.043  1.5483 -1.7184 -0.1266
16509TIP3    H270943  -0.015   4.641   0.995 -1.9441 -1.8232  1.2338
16510TIP3   OH270944   2.041   6.458   4.964  0.0132 -0.1876 -0.1922
16510TIP3    H170945   2.124   6.411   4.968  0.6439  0.8237 -0.9958
16510TIP3    H270946   1.999   6.425   4.885 -0.5716 -1.0359  0.4617
16511TIP3   OH270947   4.610   6.542  14.472  0.2108 -0.2299  0.0621
16511TIP3    H170948   4.632   6.556  14.380  1.3382 -2.8728 -0.1132
16511TIP3    H270949   4.639   6.453  14.491 -0.8495 -0.0708  2.7394
16512TIP3   OH270950   5.653   1.237  15.246 -0.0896 -0.0740  0.3067
16512TIP3    H170951   5.578   1.181  15.226  0.9117 -0.6390 -2.0561
16512TIP3    H270952   5.719   1.177  15.282 -0.4996  0.2830  1.6374
16513TIP3   OH270953   5.867   5.094   3.799  0.1762 -0.1357 -1.0720
16513TIP3    H170954   5.787   5.047   3.824  0.0790  0.2043 -0.7415
16513TIP3    H270955   5.926   5.082   3.873 -0.7693  2.4240  0.1806
16514TIP3   OH270956   3.698   0.560  10.533  0.1453 -0.3369 -0.1079
16514TIP3    H170957   3.649   0.637  10.507  0.0166 -1.0503 -2.0459
16514TIP3    H270958   3.786   0.592  10.554 -0.1624  0.4468 -0.0280
16515TIP3   OH270959   2.822   1.198   3.391 -0.0844 -0.1958 -0.0225
16515TIP3    H170960   2.797   1.213   3.482 -0.0515  2.7114 -0.4605
16515TIP3    H270961   2.779   1.115   3.368  0.0401 -1.0488  2.6459
16516TIP3   OH270962   6.259   1.144   2.275  0.6746  0.2502  0.1338
16516TIP3    H170963   6.203   1.113   2.204  1.5736 -1.5068  0.1698
16516TIP3    H270964   6.203   1.203   2.325 -0.1781  1.0055 -1.6451
16517TIP3   OH270965   3.097   3.101   1.612 -0.0218 -0.0603 -0.3301
16517TIP3    H170966   3.081   3.152   1.532 -1.8617 -0.2041 -0.0754
16517TIP3    H270967   3.036   3.138   1.676 -0.5396 -1.7953  0.2067
16518TIP3   OH270968   4.499   0.277  10.761  0.7557  0.1508 -0.2775
16518TIP3    H170969   4.563   0.290  10.691  0.2833 -0.1514 -0.7625
16518TIP3    H270970   4.480   0.183  10.760 -1.3902  0.5550 -1.6360
16519TIP3   OH270971   0.251   1.865   2.663  0.1843 -0.1065 -0.3425
16519TIP3    H170972   0.295   1.944   2.630 -0.3812  0.9090  1.2773
16519TIP3    H270973   0.163   1.871   2.625 -0.3255  0.8324  0.9422
16520TIP3   OH270974   1.299   5.127  10.770  0.0654  0.0636 -0.0309
16520TIP3    H170975   1.271   5.052  10.822 -1.5795 -0.0216 -1.0058
16520TIP3    H270976   1.282   5.202  10.827  0.5668 -0.2165  0.4863
16521TIP3   OH270977   5.261   2.733   5.734  0.0646  0.1663  0.4868
16521TIP3    H170978   5.205   2.677   5.682 -0.9987  0.8957  0.8349
16521TIP3    H270979   5.342   2.683   5.745  0.1987 -0.1303 -1.5980
16522TIP3   OH270980   6.170   3.472   1.377  0.6156  0.4607  0.3383
16522TIP3    H170981   6.166   3.556   1.424 -1.5974  1.5094 -1.6142
16522TIP3    H270982   6.185   3.407   1.445  0.5537  2.2642  2.1155
16523TIP3   OH270983   6.152   0.723   1.590 -0.3726 -0.2201 -0.2602
16523TIP3    H170984   6.195   0.790   1.538 -1.8826  0.2929 -0.8760
16523TIP3    H270985   6.111   0.771   1.662  1.6764 -0.9214  1.4061
16524TIP3   OH270986   2.364   1.016  11.291  0.3798  0.3561 -0.0229
16524TIP3    H170987   2.432   1.035  11.226 -0.2533  1.9467 -0.2559
16524TIP3    H270988   2.309   0.950  11.249 -0.1815  1.5630 -1.2488
16525TIP3   OH270989   0.968   0.568   2.826 -0.0464 -0.2922  0.4598
16525TIP3    H170990   1.050   0.601   2.790  0.4552  0.3182  2.1215
16525TIP3    H270991   0.905   0.575   2.754  0.9160  0.9283 -0.2703
16526TIP3   OH270992   4.729   6.482   0.759  0.5186  0.3277  0.0071
16526TIP3    H170993   4.635   6.492   0.775  0.5499  1.0626 -0.2643
16526TIP3    H270994   4.735   6.414   0.693  0.0009  2.4633 -2.3136
16527TIP3   OH270995   6.573   5.826  15.159 -0.1248  0.5785 -0.0520
16527TIP3    H170996   6.551   5.821  15.252 -1.6613  0.9103 -0.3989
16527TIP3    H270997   6.504   5.777  15.115  0.8907 -0.0402 -0.9893
16528TIP3   OH270998   6.053   3.667  14.842  0.2340  0.3250 -0.2385
16528TIP3    H170999   6.018   3.740  14.792 -0.5194  1.1205  1.4532
16528TIP3    H271000   6.005   3.668  14.925  0.5353 -1.7954 -0.0098
16529TIP3   OH271001   5.426   2.276   1.942 -0.4339  0.5557  0.1105
16529TIP3    H171002   5.521   2.260   1.938 -0.2527  1.6652 -0.3055
16529TIP3    H271003   5.419   2.371   1.949 -1.5370  0.5022 -0.2941
16530TIP3   OH271004   2.612   1.646  11.794 -0.3114  0.2507 -0.5568
16530TIP3    H171005   2.678   1.592  11.837 -1.0921  1.0639  1.7635
16530TIP3    H271006   2.660   1.724  11.765 -0.2140  0.8062  1.0504
16531TIP3   OH271007   5.558   1.920   1.542 -0.2638  0.3646 -0.0174
16531TIP3    H171008   5.491   1.936   1.609 -1.9252  0.2518 -1.6406
16531TIP3    H271009   5.576   1.826   1.548 -1.4426  0.0987 -0.6961
16532TIP3   OH271010   5.111   3.959   2.507  0.3552 -0.4487  0.1287
16532TIP3    H171011   5.125   3.969   2.601  0.6857  0.9871 -0.0542
16532TIP3    H271012   5.196   3.929   2.474  0.7609  0.7071  0.0754
16533TIP3   OH271013   4.089   5.554  17.109 -0.4982  0.2900 -0.1142
16533TIP3    H171014   4.002   5.514  17.110  0.0821 -1.0244 -0.0074
16533TIP3    H271015   4.140   5.501  17.171  1.0085 -0.4649 -1.9278
16534TIP3   OH271016   0.378   3.638  16.092  0.0202 -0.2258  0.3600
16534TIP3    H171017   0.328   3.557  16.090 -2.0017  1.0262 -2.0378
16534TIP3    H271018   0.451   3.623  16.031 -0.3864 -0.2047 -0.1290
16535TIP3   OH271019   3.883   1.328   3.569 -0.2005  0.2678  0.1132
16535TIP3    H171020   3.846   1.264   3.509 -1.0513  1.1522 -0.3281
16535TIP3    H271021   3.845   1.307   3.654  0.2820 -0.4098  0.1627
16536TIP3   OH271022   0.906   4.351   4.442 -0.0649 -0.1048  0.5546
16536TIP3    H171023   0.921   4.407   4.517  1.1366 -1.9795  1.7662
16536TIP3    H271024   0.819   4.314   4.455  0.0109 -0.1725  0.8591
16537TIP3   OH271025   3.176   6.279  17.170 -0.6027  0.0921  0.0857
16537TIP3    H171026   3.241   6.337  17.208 -0.8191  0.2075  0.2860
16537TIP3    H271027   3.165   6.309  17.080  1.3450 -1.3986 -0.6890
16538TIP3   OH271028   4.276   1.339   6.400 -0.2012 -0.0873  0.0263
16538TIP3    H171029   4.238   1.334   6.487  0.6114  1.6862  0.5206
16538TIP3    H271030   4.310   1.429   6.394  1.1017 -0.6533 -1.5370
16539TIP3   OH271031   2.400   4.611  13.202 -0.2936 -0.2568  0.0029
16539TIP3    H171032   2.335   4.674  13.233 -0.4163  0.0337 -0.8314
16539TIP3    H271033   2.384   4.532  13.254  1.6303  1.2240  3.0446
16540TIP3   OH271034   5.964   0.708  12.048 -0.1413 -0.2209 -0.4786
16540TIP3    H171035   5.967   0.649  11.973 -0.2203 -0.7023 -0.1018
16540TIP3    H271036   6.048   0.697  12.091 -0.8506 -1.4244  0.6318
16541TIP3   OH271037   2.446   1.174  11.795 -0.4878  0.3268 -0.0099
16541TIP3    H171038   2.518   1.209  11.742 -0.0322 -0.4076  0.1261
16541TIP3    H271039   2.478   1.176  11.885 -1.1123  1.1852  0.2090
16542TIP3   OH271040   1.521   6.164  15.620 -0.1003 -0.3697  0.5183
16542TIP3    H171041   1.585   6.149  15.691 -0.8536 -0.2022  1.2422
16542TIP3    H271042   1.448   6.107  15.641 -0.0356 -0.8379 -0.5217
16543TIP3   OH271043   4.163   6.762   5.668  0.0937 -0.7939  0.1463
16543TIP3    H171044   4.209   6.774   5.585 -1.3365  1.1319 -0.3702
16543TIP3    H271045   4.234   6.755   5.733  1.1678  0.7023 -0.8286
16544TIP3   OH271046   4.926   6.026  11.492  0.4843 -0.0215  0.4844
16544TIP3    H171047   4.887   6.020  11.579  0.6931  0.2722  0.5953
16544TIP3    H271048   4.936   6.120  11.476  0.2866 -0.0677  0.0747
16545TIP3   OH271049   0.323   0.297   5.034 -0.1309 -0.3550 -0.1993
16545TIP3    H171050   0.338   0.228   5.098  2.4982  0.3041 -0.0483
16545TIP3    H271051   0.248   0.266   4.982 -1.8944 -1.1946  2.7195
16546TIP3   OH271052   4.879   4.634  15.846  0.2363 -0.1060 -0.1632
16546TIP3    H171053   4.943   4.681  15.899  1.0288 -1.6466  0.2996
16546TIP3    H271054   4.895   4.663  15.757  1.0684  0.0959  0.0524
16547TIP3   OH271055   3.581   1.803   0.224 -0.0304  0.4010  0.0476
16547TIP3    H171056   3.584   1.720   0.177  3.6872  0.5934 -0.1988
16547TIP3    H271057   3.673   1.826   0.239 -1.0226  3.1731  2.4197
16548TIP3   OH271058   4.464   4.503  15.488 -0.5896 -0.2850  0.1304
16548TIP3    H171059   4.524   4.452  15.434 -1.5382 -1.6388  0.3163
16548TIP3    H271060   4.395   4.531  15.427  0.2072  1.2421 -0.0780
16549TIP3   OH271061   1.794   3.653  11.740 -0.1714  0.1759 -0.2947
16549TIP3    H171062   1.701   3.635  11.728 -0.4809  2.1355 -0.9670
16549TIP3    H271063   1.801   3.748  11.738  1.7184  0.0922  0.8001
16550TIP3   OH271064   2.659   1.417  16.737 -0.1665 -0.0048  0.1406
16550TIP3    H171065   2.634   1.442  16.648 -0.0327 -0.5418 -0.0487
16550TIP3    H271066   2.750   1.388  16.729 -0.1206  0.0466  0.4764
16551TIP3   OH271067   3.218   2.747   4.508  0.1467 -0.1397  0.1718
16551TIP3    H171068   3.123   2.750   4.500  0.0748  0.3623  1.2070
16551TIP3    H271069   3.246   2.692   4.434 -1.0618 -1.5446  0.7326
16552TIP3   OH271070   4.946   5.327   3.449 -0.0863  0.1021 -0.0212
16552TIP3    H171071   4.886   5.379   3.396 -0.0340 -0.9799 -1.1647
16552TIP3    H271072   4.904   5.321   3.534 -0.9315  0.5394 -0.3990
16553TIP3   OH271073   5.954   5.867  12.597  0.2845  0.1092 -0.0392
16553TIP3    H171074   5.878   5.917  12.625 -0.3542 -0.9099  0.0511
16553TIP3    H271075   6.008   5.931  12.550 -0.3462  0.9673  0.3899
16554TIP3   OH271076   0.319   5.292  12.939 -0.6479  0.4578 -0.4316
16554TIP3    H171077   0.312   5.325  13.029  1.0961 -1.6120  0.5126
16554TIP3    H271078   0.330   5.197  12.949  0.8755  0.3528 -2.7663
16555TIP3   OH271079   4.673   6.224  11.592 -0.0891 -0.1443 -0.6500
16555TIP3    H171080   4.720   6.160  11.646 -0.2388  0.9101  0.7624
16555TIP3    H271081   4.586   6.228  11.631 -0.7634 -0.6821 -2.0910
16556TIP3   OH271082   5.777   4.984   2.428  0.0917  0.2172  0.3136
16556TIP3    H171083   5.760   4.983   2.334 -0.1132  4.8778  0.1917
16556TIP3    H271084   5.692   4.964   2.467  0.3786 -2.6365 -0.4582
16557TIP3   OH271085   5.170   6.101  16.326  0.1841  0.1007  0.3417
16557TIP3    H171086   5.152   6.106  16.420 -0.0578 -1.6832  0.4139
16557TIP3    H271087   5.098   6.048  16.291 -0.0787  1.2799 -0.9634
16558TIP3   OH271088   3.287   6.525   2.516 -0.1869 -0.4423 -0.6195
16558TIP3    H171089   3.283   6.470   2.437  1.4939  0.2097 -1.1886
16558TIP3    H271090   3.221   6.488   2.574  1.4861 -3.6855 -0.6364
16559TIP3   OH271091   1.277   3.575  11.078 -0.0143 -0.3709  0.0927
16559TIP3    H171092   1.363   3.601  11.046 -0.7397  0.8236 -0.9520
16559TIP3    H271093   1.232   3.658  11.095 -0.9282 -0.9814  0.6745
16560TIP3   OH271094   3.194   3.736  14.742 -0.4402 -0.3062 -0.2533
16560TIP3    H171095   3.193   3.798  14.670  0.0782 -0.5453 -0.4683
16560TIP3    H271096   3.229   3.655  14.704 -0.0333 -0.3918  0.2952
16561TIP3   OH271097   1.784   2.303   5.462 -0.6912 -0.2181  0.6662
16561TIP3    H171098   1.781   2.366   5.534 -1.9469 -0.9420  1.2613
16561TIP3    H271099   1.819   2.352   5.388 -2.5267  1.4359  0.8650
16562TIP3   OH271100   5.553   5.886  16.679  0.6739  0.0173  0.1363
16562TIP3    H171101   5.521   5.950  16.743 -1.2052  0.4839 -1.2138
16562TIP3    H271102   5.637   5.857  16.714 -0.4766 -0.0153  3.0111
16563TIP3   OH271103   5.730   4.655   2.950 -0.1052 -0.2669 -0.1598
16563TIP3    H171104   5.647   4.648   2.902  0.2905 -1.0510 -0.7532
16563TIP3    H271105   5.759   4.564   2.961  0.4666 -0.0198  0.4078
16564TIP3   OH271106   4.846   0.599   5.197  0.1382  0.3805 -0.5503
16564TIP3    H171107   4.923   0.615   5.252  0.7395  0.2296 -1.3371
16564TIP3    H271108   4.840   0.504   5.191  1.6730  0.3978 -2.9259
16565TIP3   OH271109   5.861   1.898  16.868 -0.1416 -0.2332  0.0368
16565TIP3    H171110   5.897   1.961  16.930  1.5935 -0.5253 -0.6362
16565TIP3    H271111   5.916   1.820  16.878  1.1540  0.2233 -2.8859
16566TIP3   OH271112   6.720   2.575   5.798 -0.3183 -0.3356 -0.4388
16566TIP3    H171113   6.626   2.587   5.804 -0.1240  0.2503  1.5062
16566TIP3    H271114   6.749   2.558   5.888  1.4925 -0.0746 -0.9454
16567TIP3   OH271115   2.706   2.189   0.030  0.5278 -0.2279 -0.0537
16567TIP3    H171116   2.786   2.207  -0.019 -0.1881 -2.0238 -1.9967
16567TIP3    H271117   2.643   2.253  -0.004  0.8919  0.6544  0.8963
16568TIP3   OH271118   0.783   3.051  13.263 -0.6704  0.4306  0.3776
16568TIP3    H171119   0.857   2.995  13.285 -0.2248  0.1972 -1.5970
16568TIP3    H271120   0.808   3.093  13.181 -2.6150  0.5340 -0.1954
16569TIP3   OH271121   3.776   4.656  10.923 -0.0073 -0.0460 -0.0718
16569TIP3    H171122   3.742   4.670  10.835  2.4856 -0.1184 -1.1078
16569TIP3    H271123   3.776   4.561  10.934 -0.9828 -0.0078  0.2974
16570TIP3   OH271124   0.278   6.115  12.121 -0.5973 -0.2999 -0.1646
16570TIP3    H171125   0.244   6.072  12.200 -0.0288 -1.7169 -0.6727
16570TIP3    H271126   0.331   6.187  12.153  0.4839 -1.5007  0.7964
16571TIP3   OH271127   6.185   4.969   2.049  0.0215  0.2070 -0.1570
16571TIP3    H171128   6.205   5.001   2.137  0.4890 -1.7610  0.4842
16571TIP3    H271129   6.103   4.921   2.059 -0.5238  0.9330 -1.0439
16572TIP3   OH271130   3.523   2.691  16.390 -0.1747  0.4608  0.7628
16572TIP3    H171131   3.533   2.773  16.340 -0.1230 -0.3508 -0.5790
16572TIP3    H271132   3.602   2.687  16.445  0.8037  0.3485 -0.6137
16573TIP3   OH271133   5.600   2.427   2.823  0.1670  0.3527 -0.0037
16573TIP3    H171134   5.571   2.341   2.790  3.4520 -0.2863 -1.3650
16573TIP3    H271135   5.610   2.414   2.917 -1.0730 -0.2151  0.0702
16574TIP3   OH271136   1.632   0.828   0.228  0.4541  0.4049  0.0276
16574TIP3    H171137   1.669   0.741   0.218  0.4518  0.5442 -1.1665
16574TIP3    H271138   1.708   0.886   0.238  0.5812  0.7042 -2.5225
16575TIP3   OH271139   2.187   6.042  12.289  0.2566  0.3521 -0.0851
16575TIP3    H171140   2.183   6.135  12.266  3.4834  1.1136  2.0540
16575TIP3    H271141   2.130   6.034  12.365  2.6747  1.4218  1.9396
16576TIP3   OH271142   1.371   0.308   5.620  0.0188 -0.2129 -0.5368
16576TIP3    H171143   1.316   0.335   5.693 -0.0336 -0.2980 -0.5445
16576TIP3    H271144   1.360   0.213   5.615  1.7431 -0.4965  0.7323
16577TIP3   OH271145   1.018   6.415   6.587 -0.4376  0.0297  0.3987
16577TIP3    H171146   0.973   6.444   6.666 -3.2223  0.3476 -1.2261
16577TIP3    H271147   0.988   6.326   6.573 -1.0184  0.4298 -1.0113
16578TIP3   OH271148   2.079   5.284  14.408 -0.0934 -0.8258  0.1640
16578TIP3    H171149   2.010   5.274  14.343  0.1421 -2.3199  0.1239
16578TIP3    H271150   2.069   5.374  14.440 -2.9374 -1.4498  1.1502
16579TIP3   OH271151   6.769   3.550  17.068 -0.0116  0.1943  0.7422
16579TIP3    H171152   6.781   3.529  16.975  2.5366  0.8178  0.8894
16579TIP3    H271153   6.707   3.623  17.069 -0.7068 -0.3725 -0.4127
16580TIP3   OH271154   5.013   1.439   5.780  0.5418 -0.2450 -0.4403
16580TIP3    H171155   5.046   1.526   5.802  1.4459 -0.8725  0.7787
16580TIP3    H271156   4.958   1.415   5.855 -2.3248  0.5734 -2.2097
16581TIP3   OH271157   0.525   3.560  12.451  0.2299  0.0782  0.1037
16581TIP3    H171158   0.434   3.590  12.454  0.3355  0.3056  1.2673
16581TIP3    H271159   0.520   3.466  12.468 -0.0318 -0.4814 -2.7792
16582TIP3   OH271160   0.275   1.129   2.130  0.2210 -0.3086 -0.0985
16582TIP3    H171161   0.239   1.103   2.045 -0.7108 -0.6090  0.3741
16582TIP3    H271162   0.262   1.223   2.133 -0.2241 -0.3696 -0.0732
16583TIP3   OH271163   1.680   3.111  13.239 -0.2528  0.4091  0.0237
16583TIP3    H171164   1.629   3.067  13.307 -0.5289  0.0579 -0.4134
16583TIP3    H271165   1.629   3.190  13.219 -1.4495 -0.7454 -1.5536
16584TIP3   OH271166   1.878   2.394  14.195  0.2881  0.0199  0.1154
16584TIP3    H171167   1.864   2.396  14.100 -1.1968 -0.0975  0.3141
16584TIP3    H271168   1.956   2.340  14.207  0.8903  0.5998 -1.0800
16585TIP3   OH271169   6.436   5.892  14.533 -0.3731  0.3892  0.0980
16585TIP3    H171170   6.455   5.800  14.512 -1.3853  0.3604 -0.6905
16585TIP3    H271171   6.374   5.888  14.606 -0.9025  0.4404 -0.3491
16586TIP3   OH271172   6.214   6.001  14.842 -0.3513 -0.2893  0.9088
16586TIP3    H171173   6.234   5.916  14.802 -0.5016  0.2111 -0.2390
16586TIP3    H271174   6.300   6.038  14.863 -0.3240 -1.4569  2.9994
16587TIP3   OH271175   4.972   6.031  15.488 -0.3665  0.2444  0.4662
16587TIP3    H171176   4.986   6.034  15.583  0.9497  0.8788  0.2624
16587TIP3    H271177   4.986   5.939  15.465 -3.3901 -0.4912  1.2492
16588TIP3   OH271178   1.561   1.155  11.876  0.1590  0.5078  0.2591
16588TIP3    H171179   1.469   1.129  11.872  0.1376  0.8389 -2.0541
16588TIP3    H271180   1.606   1.081  11.918 -0.8732 -0.4605 -0.3306
16589TIP3   OH271181   1.045   6.051   2.286  0.1665 -0.0086 -0.1640
16589TIP3    H171182   1.126   6.001   2.288  0.1363 -0.0689 -0.5326
16589TIP3    H271183   1.073   6.143   2.280  0.1860 -0.1015 -1.5354
16590TIP3   OH271184   0.866   3.205  14.730  0.8706  0.0882 -0.2447
16590TIP3    H171185   0.936   3.221  14.793  0.4315 -1.3729  0.6482
16590TIP3    H271186   0.901   3.137  14.672  0.2575 -0.5635  0.1351
16591TIP3   OH271187   4.834   3.194   4.230 -0.3177  0.7966 -0.3449
16591TIP3    H171188   4.739   3.193   4.240 -0.3919 -0.2960 -1.1569
16591TIP3    H271189   4.863   3.268   4.285 -1.5939  0.9436  0.1421
16592TIP3   OH271190   4.122   5.958  11.989  0.1876 -0.1146 -0.6591
16592TIP3    H171191   4.201   6.012  11.977  0.5211 -0.7325 -1.2544
16592TIP3    H271192   4.059   5.993  11.926 -0.3884  1.0792  0.5599
16593TIP3   OH271193   1.351   1.215  15.351  0.0488  0.5127  0.0806
16593TIP3    H171194   1.291   1.142  15.369 -0.2359  0.8389  0.4479
16593TIP3    H271195   1.435   1.185  15.385 -0.6582  1.4700  2.7960
16594TIP3   OH271196   3.289   2.953   3.131 -0.4235 -0.1694  0.3999
16594TIP3    H171197   3.307   3.039   3.093 -1.3762 -0.3902 -0.5874
16594TIP3    H271198   3.235   2.909   3.065  1.4846 -2.1742  0.1141
16595TIP3   OH271199   1.424   4.466   2.005  0.2968 -0.4129  0.4972
16595TIP3    H171200   1.478   4.490   2.080  1.5042  0.4525 -0.6275
16595TIP3    H271201   1.447   4.375   1.986  0.5739 -0.3817  0.6849
16596TIP3   OH271202   3.807   1.349  11.701  0.6594 -0.1742  0.3045
16596TIP3    H171203   3.761   1.418  11.749  0.0994  0.2583 -0.8453
16596TIP3    H271204   3.900   1.365  11.720  0.4743  0.3519  0.7706
16597TIP3   OH271205   4.279   4.068   3.277 -0.0371 -0.4221  0.0553
16597TIP3    H171206   4.361   4.026   3.248  0.7279  0.2893  1.1547
16597TIP3    H271207   4.265   4.035   3.366 -1.3855 -1.1496 -0.4072
16598TIP3   OH271208   2.543   2.265   1.470 -0.6367  0.1000  0.7862
16598TIP3    H171209   2.467   2.218   1.439 -0.2512 -0.7805  1.1626
16598TIP3    H271210   2.509   2.328   1.533 -1.1946  0.5912 -0.0044
16599TIP3   OH271211   4.882   0.253  17.233 -0.0375 -0.0685  0.1264
16599TIP3    H171212   4.908   0.180  17.177  0.8071  0.7649 -0.5766
16599TIP3    H271213   4.809   0.218  17.284  0.1599 -1.3130 -0.4102
16600TIP3   OH271214   5.746   2.899   0.047 -0.3815  0.4032 -0.2946
16600TIP3    H171215   5.834   2.937   0.043 -0.7411  1.5099  1.6212
16600TIP3    H271216   5.747   2.846   0.127 -0.5552 -1.9829 -1.8226
16601TIP3   OH271217   2.900   0.452  13.936 -0.1211 -0.4495  0.0546
16601TIP3    H171218   2.884   0.404  13.855 -0.1352 -0.2751 -0.0456
16601TIP3    H271219   2.886   0.387  14.006  0.1230 -0.6589 -0.0912
16602TIP3   OH271220   2.872   4.100   5.247  0.4873  0.1117 -0.1304
16602TIP3    H171221   2.903   4.106   5.157  2.5017  1.0866  0.5883
16602TIP3    H271222   2.897   4.012   5.275 -2.0027 -0.9622 -1.1470
16603TIP3   OH271223   3.411   4.219   3.423  0.6469  0.1208 -0.0912
16603TIP3    H171224   3.453   4.284   3.479  1.5586 -0.2493 -0.3299
16603TIP3    H271225   3.387   4.267   3.344  0.1373  0.4546  0.2670
16604TIP3   OH271226   4.218   2.469   3.924  0.2115 -0.6343 -0.2242
16604TIP3    H171227   4.247   2.522   3.998 -0.1590 -1.0165  0.1972
16604TIP3    H271228   4.250   2.516   3.847  0.1831  0.0181  0.1576
16605TIP3   OH271229   4.714   0.725  16.083 -0.1647  0.3835 -0.1534
16605TIP3    H171230   4.691   0.752  15.994 -0.5835 -0.8697 -0.4461
16605TIP3    H271231   4.809   0.723  16.085 -0.1612 -0.2574 -0.7966
16606TIP3   OH271232   2.320   3.895  16.093  0.4755  0.3950  0.2572
16606TIP3    H171233   2.239   3.860  16.055  0.5128  1.7780 -1.1436
16606TIP3    H271234   2.337   3.839  16.169 -0.6410 -1.2414 -0.6664
16607TIP3   OH271235   0.428   4.176  12.220 -0.2688 -0.7519  0.0158
16607TIP3    H171236   0.426   4.225  12.302  0.5632 -0.5815 -0.0687
16607TIP3    H271237   0.497   4.111  12.231  1.4780  0.7991 -1.4145
16608TIP3   OH271238   3.612   6.646   4.992 -0.2864 -0.0449  0.6636
16608TIP3    H171239   3.549   6.615   4.927  0.5956 -1.9050  0.6609
16608TIP3    H271240   3.573   6.725   5.028 -0.3112  1.6585 -2.8903
16609TIP3   OH271241   2.247   6.733  12.674 -0.0227  0.6833 -0.4650
16609TIP3    H171242   2.164   6.778  12.654 -0.4568  1.0536  1.9943
16609TIP3    H271243   2.226   6.640  12.668 -0.9477  0.7511  1.1738
16610TIP3   OH271244   3.653   6.305  11.279  0.3454 -0.1755  0.2001
16610TIP3    H171245   3.629   6.320  11.370  0.6835  1.0622  0.0957
16610TIP3    H271246   3.634   6.213  11.263 -0.7937 -0.1066  1.1849
16611TIP3   OH271247   3.487   3.724  12.994 -0.4492 -0.2796 -0.1157
16611TIP3    H171248   3.547   3.765  13.056 -0.7604  1.0450 -0.6664
16611TIP3    H271249   3.457   3.797  12.939 -2.6434 -0.8856  0.2363
16612TIP3   OH271250   0.105   6.071   5.597  0.1705  0.3267  0.2184
16612TIP3    H171251   0.036   6.005   5.604  0.8882 -0.4178  0.2561
16612TIP3    H271252   0.059   6.151   5.570 -0.4389 -0.6694 -1.7336
16613TIP3   OH271253   0.028   1.638  13.578 -0.2259  0.5341 -0.0507
16613TIP3    H171254   0.040   1.547  13.552 -0.3886  0.7346 -0.8506
16613TIP3    H271255   0.097   1.686  13.532 -0.7768  0.9570 -0.4428
16614TIP3   OH271256   0.184   5.713  15.954 -0.6733  0.7544  0.3512
16614TIP3    H171257   0.262   5.707  15.900 -1.3519 -0.5658 -0.5440
16614TIP3    H271258   0.150   5.801  15.938 -0.2328  0.7808 -0.4869
16615TIP3   OH271259   0.034   1.410  14.084 -0.0072  0.1274  0.5742
16615TIP3    H171260   0.015   1.465  14.008  0.4005  1.5374  1.4886
16615TIP3    H271261   0.097   1.346  14.051  0.3054  0.8372 -0.2402
16616TIP3   OH271262   6.775   3.200   3.596  0.6106  0.3574 -0.3822
16616TIP3    H171263   6.823   3.203   3.679  1.6851 -0.3199 -0.9729
16616TIP3    H271264   6.731   3.114   3.596  1.4208 -0.0621 -0.9559
16617TIP3   OH271265   5.955   1.815  13.227  0.1091 -0.4338  0.3824
16617TIP3    H171266   5.945   1.720  13.217 -0.2187 -0.4702  1.0585
16617TIP3    H271267   5.905   1.837  13.305 -1.1642  0.5259 -0.6606
16618TIP3   OH271268   6.136   6.198  11.358  0.6351 -0.1469 -0.5534
16618TIP3    H171269   6.042   6.186  11.372  0.0147  2.5505 -2.0765
16618TIP3    H271270   6.176   6.122  11.401 -2.4378 -3.5197 -3.2997
16619TIP3   OH271271   5.942   1.284  15.507 -0.1543  0.1008  0.2060
16619TIP3    H171272   6.016   1.238  15.547  0.2742 -1.1178 -1.9350
16619TIP3    H271273   5.869   1.222  15.514 -0.7418  0.9089  1.4110
16620TIP3   OH271274   3.720   4.770  14.003  0.0854 -0.3972 -0.4820
16620TIP3    H171275   3.658   4.782  14.076  0.7164 -1.8078  0.3126
16620TIP3    H271276   3.671   4.795  13.925 -1.3809 -1.1194  0.1817
16621TIP3   OH271277   0.306   1.049  13.104 -0.4815  0.6997 -0.3787
16621TIP3    H171278   0.265   1.113  13.046  0.2696  0.6451 -0.9769
16621TIP3    H271279   0.234   1.016  13.158 -0.9241  1.8444 -0.2539
16622TIP3   OH271280   2.023   4.612  16.414 -0.3755  0.6370  0.3736
16622TIP3    H171281   1.959   4.676  16.444 -0.5991  1.4173 -1.7332
16622TIP3    H271282   1.991   4.583  16.329  1.2898 -0.0485 -0.0430
16623TIP3   OH271283   5.972   5.081  13.101  0.2263  0.5020 -0.1319
16623TIP3    H171284   6.059   5.042  13.103 -0.6255 -1.4757  0.2636
16623TIP3    H271285   5.980   5.160  13.154  1.4550 -0.4215  1.1163
16624TIP3   OH271286   3.397   0.939  16.564 -0.0973 -0.0340 -0.3297
16624TIP3    H171287   3.373   0.891  16.485  0.3473 -0.2254 -0.3509
16624TIP3    H271288   3.425   0.872  16.626 -0.6943  0.0961  0.0830
16625TIP3   OH271289   2.796   2.095  16.143 -0.1257 -0.2771 -0.3924
16625TIP3    H171290   2.828   2.020  16.092 -1.5958 -1.5381  0.5261
16625TIP3    H271291   2.862   2.107  16.211 -0.6805 -1.7447  0.4160
16626TIP3   OH271292   4.179   6.299   0.616 -0.0645 -1.0218 -0.8475
16626TIP3    H171293   4.129   6.343   0.546  0.8914 -1.6068 -1.9138
16626TIP3    H271294   4.269   6.326   0.601 -0.0607  0.1907  1.2033
16627TIP3   OH271295   0.978   6.327  12.515 -0.2259  0.0582  0.3050
16627TIP3    H171296   0.883   6.336  12.524 -0.1014 -0.6485  2.4974
16627TIP3    H271297   1.014   6.404  12.559  0.2441  0.0339 -0.0310
16628TIP3   OH271298   0.988   0.962  16.726 -0.2456  0.3828  0.6363
16628TIP3    H171299   0.938   0.977  16.807  1.7734  0.3691  1.9322
16628TIP3    H271300   1.050   0.892  16.750 -1.4591 -1.5904 -1.7484
16629TIP3   OH271301   2.172   5.998   4.696 -0.4093 -0.1700  0.2043
16629TIP3    H171302   2.096   6.053   4.711  0.0450  0.2086  1.1441
16629TIP3    H271303   2.140   5.927   4.640 -1.4175  0.0546  0.4945
16630TIP3   OH271304   1.915   1.972   0.285 -0.1280 -0.3349  0.6739
16630TIP3    H171305   1.904   1.942   0.375  1.1653 -0.7141  0.7187
16630TIP3    H271306   1.825   1.984   0.253 -0.6246 -1.4073  1.6069
16631TIP3   OH271307   5.239   1.682   4.207 -0.3145 -0.1021 -0.6510
16631TIP3    H171308   5.197   1.764   4.184  0.8070  0.5639 -0.3464
16631TIP3    H271309   5.244   1.683   4.303 -1.1709 -0.9658 -0.5854
16632TIP3   OH271310   5.437   5.431  16.628 -0.3846  0.2264 -0.0293
16632TIP3    H171311   5.427   5.357  16.568 -1.6988  1.7289 -1.7196
16632TIP3    H271312   5.463   5.391  16.711  0.5041 -1.9822 -1.3264
16633TIP3   OH271313   6.053   0.449  14.659 -0.1697  0.2000  0.3022
16633TIP3    H171314   6.042   0.511  14.730  0.5389 -1.9133  2.3240
16633TIP3    H271315   5.978   0.390  14.666  0.6037 -0.8340  0.1901
16634TIP3   OH271316   3.719   6.293  12.914 -0.6965 -0.0401 -0.5279
16634TIP3    H171317   3.812   6.271  12.927 -0.0424  2.2997 -1.0134
16634TIP3    H271318   3.672   6.227  12.965  1.1606 -2.1482 -1.4519
16635TIP3   OH271319   2.309   4.999  15.079  0.1803 -0.2368  0.1233
16635TIP3    H171320   2.334   4.945  15.004 -1.8590 -1.5778  0.3503
16635TIP3    H271321   2.284   5.083  15.041  0.0343 -0.6121 -0.6245
16636TIP3   OH271322   5.978   6.101  14.696 -0.0318 -0.8974 -0.1828
16636TIP3    H171323   6.043   6.031  14.706  2.5530  1.6756  2.3564
16636TIP3    H271324   6.020   6.177  14.737 -3.2634  1.7937 -1.6942
16637TIP3   OH271325   2.232   1.059   5.908  0.5024 -0.5588 -0.2277
16637TIP3    H171326   2.176   1.078   5.984  2.1628  1.4164  0.5386
16637TIP3    H271327   2.181   1.092   5.834  0.6425  1.3145  0.4717
16638TIP3   OH271328   4.484   2.701  14.794  0.1197  0.1273 -0.2561
16638TIP3    H171329   4.498   2.608  14.811  2.5847  0.2400 -1.4721
16638TIP3    H271330   4.524   2.716  14.709 -2.9783  1.6848 -1.5195
16639TIP3   OH271331   5.123   1.734  16.288  0.1655 -0.5844 -0.2623
16639TIP3    H171332   5.145   1.649  16.328  0.6226 -0.2851  0.1315
16639TIP3    H271333   5.035   1.753  16.321 -0.1498 -1.1523 -0.7648
16640TIP3   OH271334   6.054   6.414  14.521 -0.2534 -0.1284  0.5101
16640TIP3    H171335   6.093   6.489  14.476  1.1755 -0.6409  0.8905
16640TIP3    H271336   6.092   6.416  14.609  1.2410 -2.3797 -0.0520
16641TIP3   OH271337   4.535   2.275   5.152 -0.0351  0.3957 -0.2345
16641TIP3    H171338   4.620   2.317   5.135  1.0538 -1.8477 -0.5301
16641TIP3    H271339   4.475   2.318   5.091  1.2089  1.0059 -1.0601
16642TIP3   OH271340   0.207   0.844  16.721  0.0420 -0.0105  0.1188
16642TIP3    H171341   0.214   0.912  16.654 -2.1912 -1.1351 -1.2994
16642TIP3    H271342   0.162   0.887  16.794 -1.1022  0.1539 -0.6628
16643TIP3   OH271343   1.654   3.299  15.057 -0.4659 -0.6504  0.2131
16643TIP3    H171344   1.735   3.295  15.107  0.5136 -2.5701 -1.4822
16643TIP3    H271345   1.588   3.261  15.115 -0.4904  2.1294  2.1148
16644TIP3   OH271346   2.970   6.689  16.001  0.7526  0.2905 -0.1583
16644TIP3    H171347   3.024   6.631  15.947  0.1253 -0.3704 -0.0847
16644TIP3    H271348   2.983   6.776  15.963  1.9907  0.1652 -0.0487
16645TIP3   OH271349   1.964   4.461   1.450  0.3089  0.3503 -0.0062
16645TIP3    H171350   1.972   4.504   1.535  1.4058 -0.1809  0.1705
16645TIP3    H271351   2.020   4.511   1.391 -2.1027  2.0102 -0.9579
16646TIP3   OH271352   5.171   1.358  13.549  0.2281 -0.3218  0.2440
16646TIP3    H171353   5.152   1.438  13.500 -0.9645 -1.1482 -0.6804
16646TIP3    H271354   5.089   1.338  13.595  0.0070 -1.8470 -0.7604
16647TIP3   OH271355   3.084   0.669   3.130 -0.0945  0.3287 -0.4183
16647TIP3    H171356   2.999   0.626   3.120 -0.4894  1.0285 -0.0764
16647TIP3    H271357   3.101   0.707   3.044  0.1867 -0.3678 -0.6790
16648TIP3   OH271358   4.339   1.239  12.386 -0.1387 -0.0934 -0.0719
16648TIP3    H171359   4.387   1.200  12.459  4.8165  1.0598 -2.5005
16648TIP3    H271360   4.324   1.167  12.326 -1.2883 -0.4195  0.6003
16649TIP3   OH271361   3.200   0.562   3.669  0.4601 -0.3042  0.3333
16649TIP3    H171362   3.252   0.642   3.671  0.5462 -0.2934 -1.1665
16649TIP3    H271363   3.265   0.491   3.675  0.3626 -0.2745  1.9398
16650TIP3   OH271364   4.833   5.441   1.606 -0.0732 -0.4069  0.1357
16650TIP3    H171365   4.744   5.437   1.643 -0.8740  0.6871 -1.5985
16650TIP3    H271366   4.848   5.534   1.591  1.0025 -0.6747 -0.4523
16651TIP3   OH271367   1.873   3.407  14.749  0.7556  0.3143  0.4431
16651TIP3    H171368   1.842   3.327  14.791  1.3303 -0.7524 -1.1207
16651TIP3    H271369   1.823   3.477  14.790 -0.7570 -0.9910  0.8498
16652TIP3   OH271370   1.732   6.483   0.496  0.1510  0.2952 -0.1520
16652TIP3    H171371   1.637   6.485   0.510  0.3679  1.1723  1.2964
16652TIP3    H271372   1.768   6.522   0.575  1.6429  1.5646 -1.4314
16653TIP3   OH271373   2.015   0.206   2.127  0.4760 -0.5781  0.7644
16653TIP3    H171374   1.961   0.285   2.115  1.4620  0.0394  0.2868
16653TIP3    H271375   1.953   0.134   2.123  0.0140 -0.0831 -2.8990
16654TIP3   OH271376   6.091   6.747  12.866  0.3401  0.0243 -0.6267
16654TIP3    H171377   6.150   6.788  12.803 -0.0141  1.4935 -0.0335
16654TIP3    H271378   6.135   6.758  12.950  0.0294 -0.4297 -0.4048
16655TIP3   OH271379   6.259   0.710   0.449 -0.0014  0.3094  0.9561
16655TIP3    H171380   6.170   0.745   0.453 -0.5328 -0.9303  0.1063
16655TIP3    H271381   6.293   0.724   0.537 -1.2999  0.1495  1.5052
16656TIP3   OH271382   2.557   6.349   5.555  1.0749  0.1234 -0.3120
16656TIP3    H171383   2.488   6.375   5.494  0.4559 -0.1917  0.2514
16656TIP3    H271384   2.523   6.272   5.599  1.3096  0.6589  0.8084
16657TIP3   OH271385   4.271   4.839  14.123  0.0109 -0.3017 -0.3253
16657TIP3    H171386   4.261   4.933  14.139  0.8142 -0.3462  0.5350
16657TIP3    H271387   4.217   4.797  14.190  0.3407 -0.4528 -0.1491
16658TIP3   OH271388   2.061   4.558   2.886  0.5432 -0.2661 -0.6150
16658TIP3    H171389   2.026   4.481   2.931  1.1973 -0.6083 -0.6881
16658TIP3    H271390   2.023   4.554   2.798  0.1930 -0.2397 -0.4647
16659TIP3   OH271391   2.002   1.151  12.281 -0.0243  0.4475  0.6171
16659TIP3    H171392   2.023   1.227  12.336 -1.5593  0.1668  1.5955
16659TIP3    H271393   1.982   1.082  12.343  0.7613 -0.6082 -0.2882
16660TIP3   OH271394   3.789   1.583  11.857  0.4787 -0.0165 -0.3611
16660TIP3    H171395   3.696   1.593  11.880  0.0903 -0.3127 -1.7607
16660TIP3    H271396   3.818   1.671  11.834  0.0505 -0.2035 -1.6818
16661TIP3   OH271397   5.232   5.860   1.423 -0.4395  0.3233 -0.2992
16661TIP3    H171398   5.233   5.797   1.494  2.3941  1.9098  1.1607
16661TIP3    H271399   5.167   5.925   1.449  1.0648  1.2527  1.2079
16662TIP3   OH271400   0.156   6.783   4.190 -0.7552  0.0570 -0.3579
16662TIP3    H171401   0.184   6.855   4.133 -1.5629  1.1862  0.6318
16662TIP3    H271402   0.224   6.777   4.257 -0.3610 -0.5306 -0.8132
16663TIP3   OH271403   1.958   5.480   4.278  0.7030 -0.6019 -0.1936
16663TIP3    H171404   1.924   5.537   4.209 -0.6963 -0.3665  0.6753
16663TIP3    H271405   1.882   5.431   4.309  0.8453  0.9482  2.7448
16664TIP3   OH271406   0.326   6.202   5.760 -0.0092  0.1759  0.5248
16664TIP3    H171407   0.272   6.153   5.698  1.0827 -0.2145 -0.1513
16664TIP3    H271408   0.337   6.142   5.834 -1.0790  0.5290  0.9720
16665TIP3   OH271409   4.818   4.461   1.611 -0.0438  0.0973  0.3085
16665TIP3    H171410   4.725   4.440   1.617  0.1695 -0.9931 -0.1187
16665TIP3    H271411   4.830   4.495   1.523  0.1774 -0.9200 -0.0671
16666TIP3   OH271412   2.038   0.363  11.856  0.3316 -0.0195 -0.5087
16666TIP3    H171413   1.972   0.314  11.806  0.1267  0.0260 -0.2841
16666TIP3    H271414   1.989   0.400  11.930  0.4454  0.7044 -0.7948
16667TIP3   OH271415   5.316   0.908   0.026  0.8944  0.1625 -0.0230
16667TIP3    H171416   5.245   0.850   0.050  0.2161  0.5971 -0.9494
16667TIP3    H271417   5.387   0.849  -0.001  0.0381 -0.2447 -1.4482
16668TIP3   OH271418   4.815   1.475  16.738  0.2599 -0.7745 -0.0750
16668TIP3    H171419   4.750   1.407  16.721 -0.7236  0.3223 -0.7913
16668TIP3    H271420   4.860   1.486  16.654  0.1451 -0.2595 -0.0692
16669TIP3   OH271421   5.276   4.788  10.846 -0.0943  0.5154  0.1628
16669TIP3    H171422   5.298   4.722  10.779  1.8673  2.0033 -0.7025
16669TIP3    H271423   5.185   4.812  10.827  1.0961  2.5424 -3.4323
16670TIP3   OH271424   1.943   6.609  10.282 -0.3332  0.4353 -0.1897
16670TIP3    H171425   2.027   6.639  10.317 -0.3451  0.3660 -0.1004
16670TIP3    H271426   1.930   6.522  10.320  0.2348 -0.1562 -1.3250
16671TIP3   OH271427   1.800   5.417  15.687 -0.4324 -0.1929  0.1281
16671TIP3    H171428   1.784   5.330  15.652 -1.9013 -0.2040  0.8304
16671TIP3    H271429   1.822   5.403  15.779 -0.5456  0.1712  0.2125
16672TIP3   OH271430   2.877   6.692  15.631  0.2225 -0.2890  0.1283
16672TIP3    H171431   2.792   6.685  15.674 -1.4556  1.6675 -2.6874
16672TIP3    H271432   2.869   6.637  15.553  1.1310  0.7752 -0.7366
16673TIP3   OH271433   1.432   3.314   4.861  0.4584  0.6402 -0.0729
16673TIP3    H171434   1.351   3.287   4.905  1.1123  1.3560  1.6318
16673TIP3    H271435   1.484   3.234   4.854  0.8242  0.7087  1.5421
16674TIP3   OH271436   4.302   2.534   0.362  0.3185 -0.3729 -0.5658
16674TIP3    H171437   4.243   2.461   0.379  0.9899 -0.7777  0.0740
16674TIP3    H271438   4.384   2.492   0.335  0.9753  0.1106  0.6550
16675TIP3   OH271439   6.214   1.068  12.778  0.3022 -0.5080  0.2716
16675TIP3    H171440   6.137   1.014  12.797 -0.9451  1.0101 -0.3404
16675TIP3    H271441   6.285   1.005  12.770 -1.1426 -2.1033 -0.5936
16676TIP3   OH271442   4.132   0.902   1.533 -0.1188 -0.6272 -0.0895
16676TIP3    H171443   4.044   0.868   1.513 -0.8165  1.1750 -0.1470
16676TIP3    H271444   4.148   0.968   1.466  0.7075  0.0252  0.7433
16677TIP3   OH271445   6.481   4.437   1.777  0.1673 -0.2967 -0.2245
16677TIP3    H171446   6.400   4.476   1.809  0.5837 -0.7415  1.4551
16677TIP3    H271447   6.465   4.343   1.779 -0.1443 -0.3123 -2.3550
16678TIP3   OH271448   0.662   1.277   0.406  0.0062 -0.4173  0.1133
16678TIP3    H171449   0.600   1.288   0.334  1.1157 -0.8757 -0.9229
16678TIP3    H271450   0.666   1.182   0.419  0.4675 -0.3819  0.2125
16679TIP3   OH271451   1.699   1.717  13.403  0.3237  0.5296 -0.1407
16679TIP3    H171452   1.735   1.744  13.318  1.4563  1.0140  0.4760
16679TIP3    H271453   1.718   1.790  13.461 -0.0061 -0.0125  0.6508
16680TIP3   OH271454   4.843   4.383  12.646  0.1256  0.3345 -0.3967
16680TIP3    H171455   4.918   4.442  12.646 -0.3580  0.9604  0.3216
16680TIP3    H271456   4.870   4.309  12.700  0.2541  0.5226 -0.2039
16681TIP3   OH271457   5.563   1.181  13.988  0.1732 -0.1327 -0.2112
16681TIP3    H171458   5.478   1.204  14.024 -0.0424  1.5198 -1.6992
16681TIP3    H271459   5.551   1.186  13.893  1.6847 -0.7667 -0.4540
16682TIP3   OH271460   0.484   0.529  13.091 -0.0258 -0.6198 -0.1846
16682TIP3    H171461   0.427   0.467  13.045  2.2420 -2.0806 -1.1032
16682TIP3    H271462   0.536   0.474  13.149  1.5182  0.5163 -0.4770
16683TIP3   OH271463   1.647   4.253  16.000  0.4071  0.0670 -0.1867
16683TIP3    H171464   1.703   4.215  15.933  1.7975  0.9364  0.4591
16683TIP3    H271465   1.699   4.325  16.037 -0.6868  0.1676  1.1935
16684TIP3   OH271466   1.666   1.207  17.039 -0.7348 -0.0376  0.6032
16684TIP3    H171467   1.760   1.204  17.061 -1.0627  2.3048  2.5439
16684TIP3    H271468   1.638   1.115  17.042  1.7729 -0.9383 -1.4057
16685TIP3   OH271469   3.901   4.859   0.399 -0.3712 -0.4708  0.0625
16685TIP3    H171470   3.970   4.924   0.415 -3.7716  3.3170  0.1405
16685TIP3    H271471   3.902   4.805   0.478  3.4951 -1.5871 -0.6137
16686TIP3   OH271472   5.282   6.574  12.418  0.2521 -0.4494  0.0604
16686TIP3    H171473   5.377   6.577  12.431  0.1743  1.0252  0.4230
16686TIP3    H271474   5.263   6.649  12.361 -0.6297 -1.0579 -0.4588
16687TIP3   OH271475   3.305   1.419  14.850  0.3094 -0.0242  0.4291
16687TIP3    H171476   3.216   1.454  14.860  0.2500 -0.1826  0.4586
16687TIP3    H271477   3.339   1.416  14.940 -0.6561 -2.5803  0.7579
16688TIP3   OH271478   4.878   6.647  13.205 -0.8161  0.3730  0.0821
16688TIP3    H171479   4.914   6.717  13.260 -1.7820 -0.3201  1.6493
16688TIP3    H271480   4.853   6.578  13.267  1.2925 -1.9274 -1.5405
16689TIP3   OH271481   3.322   5.889  15.901  0.7293  0.7518 -0.7648
16689TIP3    H171482   3.418   5.890  15.908  0.7370 -2.5167  0.3588
16689TIP3    H271483   3.295   5.968  15.947  2.8304  0.8864  0.3259
16690TIP3   OH271484   5.412   0.466  12.856  0.3374  0.4192  0.2063
16690TIP3    H171485   5.371   0.472  12.770 -0.1321 -0.7263  0.3331
16690TIP3    H271486   5.351   0.512  12.915 -0.3346 -0.4896  0.2412
16691TIP3   OH271487   6.241   0.051   5.184  0.0421  0.2534 -0.1762
16691TIP3    H171488   6.248   0.086   5.095 -3.4480  0.3335 -0.4590
16691TIP3    H271489   6.190   0.115   5.232 -0.1836 -0.9695  1.2584
16692TIP3   OH271490   3.841   2.513  13.047 -0.2478  0.3019  0.1657
16692TIP3    H171491   3.782   2.466  13.106  0.5371 -0.8335  0.0501
16692TIP3    H271492   3.887   2.445  12.999  0.8754  1.1948 -0.0368
16693TIP3   OH271493   5.344   3.803   5.286  0.0828 -0.3760  0.2065
16693TIP3    H171494   5.329   3.891   5.250 -0.0706 -0.3270  0.3857
16693TIP3    H271495   5.318   3.811   5.378  0.3838 -0.5224  0.3051
16694TIP3   OH271496   0.772   2.853  14.621 -0.7290  0.3445 -0.4927
16694TIP3    H171497   0.854   2.900  14.630 -0.4005 -0.5052  1.1641
16694TIP3    H271498   0.753   2.855  14.527  1.1798  0.5567 -0.8942
16695TIP3   OH271499   0.671   5.170  16.465 -0.0182 -0.2558 -0.3566
16695TIP3    H171500   0.624   5.087  16.466 -0.3346 -0.0924 -1.2777
16695TIP3    H271501   0.634   5.219  16.539 -1.7296  0.1054 -1.4321
16696TIP3   OH271502   0.017   1.499   5.246  0.4636  0.3670  0.1079
16696TIP3    H171503   0.031   1.568   5.311 -2.5262 -0.6744  1.9821
16696TIP3    H271504   0.049   1.419   5.289 -1.6891 -0.3587  0.4063
16697TIP3   OH271505   6.040   2.742   5.835  0.0392 -0.4776  0.6730
16697TIP3    H171506   6.109   2.782   5.782 -0.5791 -0.4449 -0.1143
16697TIP3    H271507   6.076   2.742   5.924 -0.8472  4.0244  1.1480
16698TIP3   OH271508   4.280   5.664  11.394 -0.1219  0.5339 -0.5649
16698TIP3    H171509   4.303   5.744  11.441  0.3263  0.6684 -1.0054
16698TIP3    H271510   4.252   5.603  11.462 -0.1069  0.9465 -0.1905
16699TIP3   OH271511   5.148   4.160  17.157  0.4173  0.2471 -0.0411
16699TIP3    H171512   5.243   4.159  17.148  0.4194  0.7038 -0.1305
16699TIP3    H271513   5.121   4.241  17.112 -0.1698 -0.7578 -1.5480
16700TIP3   OH271514   2.232   1.632  13.705 -0.0179 -0.3522  0.4271
16700TIP3    H171515   2.295   1.679  13.760 -0.0847  0.4043 -0.1373
16700TIP3    H271516   2.148   1.645  13.747  0.1934 -1.3931  1.2045
16701TIP3   OH271517   4.901   0.459   3.238 -0.0545 -0.0517 -0.2501
16701TIP3    H171518   4.942   0.545   3.245 -0.6423  0.0964  1.3786
16701TIP3    H271519   4.961   0.409   3.183  1.2326  0.8196  0.3427
16702TIP3   OH271520   1.998   2.142  13.309 -0.0060  0.0795  0.1478
16702TIP3    H171521   2.087   2.135  13.275  0.7937  1.4877  1.9167
16702TIP3    H271522   2.004   2.112  13.399 -1.4167 -0.2480  0.1369
16703TIP3   OH271523   4.892   2.747  14.385 -0.1777  0.0717  0.3084
16703TIP3    H171524   4.905   2.658  14.418  1.2536 -0.5054 -1.6647
16703TIP3    H271525   4.944   2.802  14.444  0.4473 -0.6410  0.4406
16704TIP3   OH271526   2.348   5.228   3.535  0.0740  0.4707  0.5598
16704TIP3    H171527   2.388   5.251   3.451  0.2616  0.9854  0.7835
16704TIP3    H271528   2.295   5.151   3.517 -1.0756  1.4529 -0.3591
16705TIP3   OH271529   2.967   3.274  14.895 -0.1461 -0.2833 -0.3926
16705TIP3    H171530   2.947   3.180  14.889  2.6622 -0.9555  0.2282
16705TIP3    H271531   3.006   3.285  14.981 -0.4557  1.4754 -0.4640
16706TIP3   OH271532   6.502   4.713   6.059 -0.5868 -0.0848 -0.6898
16706TIP3    H171533   6.417   4.669   6.070  0.1749 -1.1164  1.2090
16706TIP3    H271534   6.567   4.646   6.080  0.7507  0.4545 -2.9710
16707TIP3   OH271535   1.872   6.315   1.555  0.0651 -0.0730 -0.1675
16707TIP3    H171536   1.788   6.286   1.591 -1.2937  2.8967 -0.7907
16707TIP3    H271537   1.938   6.269   1.607 -1.9338 -0.0467  2.4714
16708TIP3   OH271538   6.707   0.301  13.277  0.1243 -0.2236  0.2715
16708TIP3    H171539   6.728   0.259  13.193  0.0316  1.0337 -0.3817
16708TIP3    H271540   6.652   0.237  13.322  0.7504 -1.2011 -0.3363
16709TIP3   OH271541   2.545   4.163  11.571 -0.4002 -0.1441  0.0339
16709TIP3    H171542   2.600   4.216  11.630  0.2715 -1.2185  0.3795
16709TIP3    H271543   2.567   4.196  11.484  0.2688 -0.0827  0.2209
16710TIP3   OH271544   4.299   4.183  16.224  0.4821  0.2267 -0.0539
16710TIP3    H171545   4.365   4.215  16.286  0.7362  1.4047 -0.9039
16710TIP3    H271546   4.334   4.099  16.194  0.7448  0.0280  0.8058
16711TIP3   OH271547   2.827   5.913  16.972  0.2688  0.3414  0.3154
16711TIP3    H171548   2.850   5.829  16.934  0.6107  0.9927 -0.9482
16711TIP3    H271549   2.741   5.934  16.936 -0.5781 -0.2615  1.9725
16712TIP3   OH271550   6.712   5.813   3.008  0.0150 -0.5322  0.3531
16712TIP3    H171551   6.794   5.822   3.056 -0.2913  0.3844  0.7069
16712TIP3    H271552   6.739   5.814   2.916  0.5151 -1.4416  0.4788
16713TIP3   OH271553   4.745   5.222  12.093  0.2618 -1.0216 -0.0859
16713TIP3    H171554   4.652   5.222  12.113  0.2574  0.8695 -0.0149
16713TIP3    H271555   4.775   5.135  12.118 -1.5574 -1.7859 -0.4732
16714TIP3   OH271556   6.512   3.753   5.151  0.3685 -0.2601 -0.1091
16714TIP3    H171557   6.572   3.826   5.136  0.4340 -0.1628  0.6106
16714TIP3    H271558   6.494   3.718   5.064  0.0715  0.8305 -0.4920
16715TIP3   OH271559   5.041   0.873   2.739  0.1919  0.3422 -0.0513
16715TIP3    H171560   5.005   0.784   2.732 -0.4823  0.4699  1.5841
16715TIP3    H271561   5.050   0.902   2.648 -1.9901 -0.4438 -0.5615
16716TIP3   OH271562   0.276   1.806  11.213  0.0229  0.0507  0.0736
16716TIP3    H171563   0.269   1.859  11.293  1.0661 -0.7122  0.6940
16716TIP3    H271564   0.256   1.717  11.242  1.2606 -0.3686 -0.3271
16717TIP3   OH271565   2.296   4.157  15.998 -0.0311 -0.0985  0.5918
16717TIP3    H171566   2.208   4.167  15.961  0.7753 -0.0326 -1.4168
16717TIP3    H271567   2.295   4.073  16.042  0.1882 -2.3440 -3.4128
16718TIP3   OH271568   6.352   0.591   1.797 -0.1140 -0.1292  0.3264
16718TIP3    H171569   6.313   0.669   1.835 -0.1545 -0.3414  0.7233
16718TIP3    H271570   6.445   0.610   1.791 -0.0226 -0.3372  1.1176
16719TIP3   OH271571   2.636   3.853  11.827 -0.2521  0.0656  0.3338
16719TIP3    H171572   2.683   3.771  11.846 -0.8372  0.0545  1.8619
16719TIP3    H271573   2.677   3.918  11.884 -2.0938  0.0349  1.7784
16720TIP3   OH271574   1.045   5.301  12.282 -0.3560 -0.3232 -0.0548
16720TIP3    H171575   1.082   5.332  12.199  0.3308  1.9828  1.0811
16720TIP3    H271576   1.117   5.309  12.344 -0.4391 -3.4203  0.4867
16721TIP3   OH271577   3.381   0.623   6.183  0.1640  0.1835  0.2178
16721TIP3    H171578   3.468   0.600   6.217 -0.1087 -0.5581  0.4108
16721TIP3    H271579   3.321   0.567   6.231 -0.2494 -0.7451 -1.3381
16722TIP3   OH271580   6.139   2.980   4.984  0.1412 -0.1661 -0.0186
16722TIP3    H171581   6.219   3.003   5.033  0.0165  0.8077 -0.2503
16722TIP3    H271582   6.072   3.037   5.021 -0.9361 -2.4139  1.5945
16723TIP3   OH271583   6.708   3.301  14.301  0.2330  0.2859 -0.1398
16723TIP3    H171584   6.706   3.206  14.295 -1.3674  0.2342  0.8502
16723TIP3    H271585   6.794   3.321  14.338  0.9057 -0.7229 -1.1593
16724TIP3   OH271586   4.380   2.055  12.329  0.0073  0.2522 -0.6169
16724TIP3    H171587   4.308   1.997  12.353 -1.2884  1.7568 -0.8049
16724TIP3    H271588   4.400   2.033  12.238 -0.6543  0.2863 -0.7699
16725TIP3   OH271589   0.770   2.058   5.090 -0.0535 -0.2592 -0.7191
16725TIP3    H171590   0.765   2.138   5.037  2.1723 -0.6372 -1.5484
16725TIP3    H271591   0.781   1.987   5.026 -3.0329 -1.4033 -0.0691
16726TIP3   OH271592   3.038   2.573   3.613  0.0892  0.2694  0.1235
16726TIP3    H171593   3.090   2.625   3.551  1.6737 -1.7497 -0.2822
16726TIP3    H271594   3.021   2.633   3.686  2.7633  1.0853  0.1385
16727TIP3   OH271595   4.875   3.747  15.726 -0.7339  0.9133  0.1689
16727TIP3    H171596   4.929   3.702  15.661 -2.4322 -0.5512 -0.2741
16727TIP3    H271597   4.812   3.797  15.674 -1.2336  0.8262  0.6871
16728TIP3   OH271598   1.568   6.178   5.407 -0.0759 -0.2638  0.3910
16728TIP3    H171599   1.574   6.087   5.377 -1.0730 -0.4372  0.6955
16728TIP3    H271600   1.646   6.191   5.461 -0.0879 -1.0354  0.6021
16729TIP3   OH271601   3.385   2.637  12.172  0.4270 -0.1567  0.1398
16729TIP3    H171602   3.451   2.651  12.241  0.4420 -2.3018  0.6036
16729TIP3    H271603   3.413   2.556  12.129 -0.4447  0.3538 -1.3892
16730TIP3   OH271604   4.407   0.740  14.677  0.3802  0.3744 -0.2153
16730TIP3    H171605   4.418   0.794  14.755 -0.1181  1.1838 -0.7009
16730TIP3    H271606   4.312   0.732  14.667  0.4469 -0.5492 -0.1810
16731TIP3   OH271607   2.672   3.038  14.299  0.6315 -0.8160  0.4663
16731TIP3    H171608   2.701   2.985  14.373 -0.5817 -0.1429  1.4447
16731TIP3    H271609   2.583   3.008  14.281 -0.1612  1.0279  1.1894
16732TIP3   OH271610   0.726   1.917  16.009 -0.1702 -0.1600 -0.1843
16732TIP3    H171611   0.751   1.958  16.092 -0.7347  1.2150 -0.6724
16732TIP3    H271612   0.683   1.987  15.960 -1.6316 -1.4852 -0.8409
16733TIP3   OH271613   5.414   1.688  12.972  0.1246 -0.2386 -0.5162
16733TIP3    H171614   5.330   1.642  12.972  0.2331 -0.4423  0.0486
16733TIP3    H271615   5.479   1.619  12.964  0.3090 -0.2412  0.8085
16734TIP3   OH271616   4.969   5.364  11.024 -0.7066  0.5204  0.3864
16734TIP3    H171617   5.030   5.399  10.959 -0.0270  0.4627  0.9902
16734TIP3    H271618   5.005   5.391  11.108 -0.8926 -0.5064  0.8015
16735TIP3   OH271619   5.943   3.093  15.393 -0.4725  0.4528 -0.2106
16735TIP3    H171620   6.008   3.155  15.359 -0.3878 -0.0645 -1.0008
16735TIP3    H271621   5.993   3.036  15.452  0.0019 -0.5639 -1.5745
16736TIP3   OH271622   4.435   3.311   4.620  0.7460  0.1049  0.3594
16736TIP3    H171623   4.383   3.347   4.549  1.4703 -1.5441 -1.0471
16736TIP3    H271624   4.476   3.387   4.661 -0.3522  1.1433 -0.4401
16737TIP3   OH271625   3.961   5.951   1.043  0.3299  0.6329  0.1833
16737TIP3    H171626   4.009   6.030   1.019  0.2924  0.5887 -0.0441
16737TIP3    H271627   3.893   5.981   1.103  0.3858  0.7589  0.1829
16738TIP3   OH271628   2.200   1.105   5.192  0.0602  0.6241  0.0827
16738TIP3    H171629   2.239   1.115   5.105 -0.3542 -0.6321 -0.2644
16738TIP3    H271630   2.275   1.101   5.251  0.6046 -3.3379 -0.7439
16739TIP3   OH271631   1.580   2.467  16.644 -0.0506  0.0842  0.1403
16739TIP3    H171632   1.486   2.455  16.660 -0.1418  1.0116  0.2981
16739TIP3    H271633   1.621   2.447  16.728 -0.3510  2.6600  0.9393
16740TIP3   OH271634   5.206   6.143   1.095 -0.2961  0.4981 -0.2189
16740TIP3    H171635   5.158   6.224   1.114 -0.6148  0.5263 -1.1299
16740TIP3    H271636   5.202   6.094   1.177 -0.1237  1.3905  0.3287
16741TIP3   OH271637   0.500   5.951   6.367  0.4452  0.4006  0.0271
16741TIP3    H171638   0.425   5.976   6.314  0.0689 -0.1211  0.3061
16741TIP3    H271639   0.464   5.937   6.455  0.4235 -2.2019 -0.3550
16742TIP3   OH271640   5.119   3.941  10.751  0.1732 -0.5647  0.2950
16742TIP3    H171641   5.057   3.963  10.820  0.3066 -2.5286  1.0850
16742TIP3    H271642   5.199   3.988  10.774  0.1971 -1.1575  1.4609
16743TIP3   OH271643   3.387   0.591  16.441 -0.0016  0.1367  0.0134
16743TIP3    H171644   3.406   0.630  16.356  2.0438 -2.0935 -0.6106
16743TIP3    H271645   3.464   0.537  16.461 -2.2931 -2.8781  1.1636
16744TIP3   OH271646   1.824   3.754  15.031  0.9105 -0.7953  0.2802
16744TIP3    H171647   1.778   3.683  14.987  1.7146 -1.0126 -0.2116
16744TIP3    H271648   1.903   3.768  14.979  0.4176  0.9309 -0.0500
16745TIP3   OH271649   4.584   0.366  15.391  0.2591 -0.1573 -0.3627
16745TIP3    H171650   4.538   0.382  15.473 -0.2099 -0.7463 -0.5055
16745TIP3    H271651   4.672   0.338  15.419  0.1889 -0.0871 -0.0658
16746TIP3   OH271652   4.602   2.391  15.604  0.9794  0.0816 -0.1580
16746TIP3    H171653   4.594   2.295  15.601 -0.5530  0.1594  0.9041
16746TIP3    H271654   4.602   2.418  15.512  1.5483 -0.9559 -0.4661
16747TIP3   OH271655   2.780   1.085   3.666 -0.3728 -0.1172 -0.1424
16747TIP3    H171656   2.869   1.109   3.693 -0.2936 -0.3060 -0.2343
16747TIP3    H271657   2.723   1.143   3.716 -0.1958  0.0211 -0.1016
16748TIP3   OH271658   4.335   6.403  13.310  0.0179  0.4290 -0.3345
16748TIP3    H171659   4.358   6.496  13.298 -0.5106  0.4931 -0.8790
16748TIP3    H271660   4.239   6.401  13.301 -0.0575 -0.0409  0.5530
16749TIP3   OH271661   5.253   0.883  13.778 -0.6351 -0.1983  0.3534
16749TIP3    H171662   5.338   0.840  13.765 -1.0946 -0.9016 -0.3430
16749TIP3    H271663   5.211   0.880  13.692 -2.1709 -1.5768  1.1364
16750TIP3   OH271664   3.916   4.987  10.308 -0.4483 -0.0134  0.1570
16750TIP3    H171665   3.911   5.053  10.376  0.1358  0.7354 -0.5239
16750TIP3    H271666   3.825   4.967  10.287 -0.6420 -0.6646  1.5409
16751TIP3   OH271667   4.913   4.934   2.875  0.1888  0.4404  0.4834
16751TIP3    H171668   4.851   4.977   2.816 -0.1002 -1.0221 -0.2910
16751TIP3    H271669   4.865   4.926   2.958 -0.3553  0.1171  0.1448
16752TIP3   OH271670   3.275   0.436  10.730 -0.4803  0.2884 -0.1457
16752TIP3    H171671   3.237   0.397  10.808 -1.0845  0.4105 -0.3773
16752TIP3    H271672   3.280   0.364  10.667  0.3879  0.0931  0.1366
16753TIP3   OH271673   5.358   0.782  15.918  0.7779 -0.4642 -0.1379
16753TIP3    H171674   5.365   0.867  15.874 -2.1869 -0.9383 -1.6606
16753TIP3    H271675   5.331   0.803  16.007 -1.7089  0.2033 -0.9845
16754TIP3   OH271676   2.133   2.630   1.421 -0.3094  0.6344  0.6710
16754TIP3    H171677   2.051   2.605   1.463 -0.9207  0.4422 -0.5913
16754TIP3    H271678   2.139   2.573   1.345  0.4923  1.3302  0.2022
16755TIP3   OH271679   0.004   5.727   5.140  0.3376  0.1972 -0.3732
16755TIP3    H171680  -0.003   5.660   5.208 -0.5493  1.3398  0.7044
16755TIP3    H271681  -0.082   5.729   5.099  0.4251  0.5123 -0.5439
16756TIP3   OH271682   3.558   1.739   3.510  0.0347 -0.2968 -0.0443
16756TIP3    H171683   3.558   1.784   3.595 -1.2473  0.1987 -0.2993
16756TIP3    H271684   3.649   1.712   3.497  1.4374  4.5713 -1.1197
16757TIP3   OH271685   5.274   2.907   4.365  0.0180 -0.3894 -0.0803
16757TIP3    H171686   5.195   2.887   4.416  0.1034 -0.1964  0.1291
16757TIP3    H271687   5.344   2.909   4.431  0.4994 -2.3908 -0.4981
16758TIP3   OH271688   4.411   5.819  13.761  0.3519  0.0753 -0.6118
16758TIP3    H171689   4.322   5.834  13.792  0.7461 -0.1695  0.6744
16758TIP3    H271690   4.401   5.790  13.671 -0.8297  0.7372 -0.7013
16759TIP3   OH271691   4.796   3.145  13.587 -0.1485 -0.2183  0.3582
16759TIP3    H171692   4.872   3.127  13.532 -1.2672 -0.2662 -1.2071
16759TIP3    H271693   4.817   3.228  13.630  1.1240 -0.6334  0.5698
16760TIP3   OH271694   3.354   5.772   3.800  0.3163 -0.3110  0.7561
16760TIP3    H171695   3.395   5.857   3.791 -0.9113  0.0906 -1.4235
16760TIP3    H271696   3.405   5.714   3.743 -0.7081 -0.3326 -0.1478
16761TIP3   OH271697   5.080   0.993  16.200  0.0320 -0.1048  0.9124
16761TIP3    H171698   5.025   1.069  16.181  1.6139  0.8974  0.2688
16761TIP3    H271699   5.158   1.005  16.145 -0.2122 -2.7823 -0.0868
16762TIP3   OH271700   0.808   6.685   2.955 -0.1663  0.3195 -0.0474
16762TIP3    H171701   0.885   6.643   2.993 -0.2360  1.2937  1.2140
16762TIP3    H271702   0.752   6.704   3.030 -0.3748  2.1545 -0.6324
16763TIP3   OH271703   3.041   3.181   5.510 -0.4679  0.0232 -0.3836
16763TIP3    H171704   3.055   3.265   5.467 -0.2410 -0.3805 -1.1116
16763TIP3    H271705   3.003   3.203   5.595 -0.2209  0.8688 -0.4912
16764TIP3   OH271706   0.103   4.948  15.403 -0.4637  0.2565  0.2285
16764TIP3    H171707   0.088   5.011  15.472 -0.6702  0.2156  0.2211
16764TIP3    H271708   0.185   4.905  15.427 -1.3295 -0.8357  1.2580
16765TIP3   OH271709   2.099   0.976  13.188 -0.2334  0.2151  0.0182
16765TIP3    H171710   2.107   1.055  13.243 -0.5121  1.0124 -1.0790
16765TIP3    H271711   2.024   0.993  13.132  0.0692 -0.5958 -0.6346
16766TIP3   OH271712   5.400   6.713   4.933 -0.3538  0.0815  0.0389
16766TIP3    H171713   5.369   6.685   4.847  0.1679 -1.4333  0.3261
16766TIP3    H271714   5.331   6.686   4.994 -0.7997  1.2978  0.0872
16767TIP3   OH271715   6.303   3.570  16.132 -0.1853  0.0230 -0.5088
16767TIP3    H171716   6.329   3.501  16.071  2.6304 -2.3827  3.1913
16767TIP3    H271717   6.360   3.644  16.110  1.4032 -1.1095 -0.3022
16768TIP3   OH271718   3.785   2.102  12.879  0.9583  0.6520  0.2615
16768TIP3    H171719   3.759   2.028  12.934  0.3935  1.3215  0.9158
16768TIP3    H271720   3.735   2.091  12.798  1.7692 -0.3266 -0.1119
16769TIP3   OH271721   5.817   0.494  17.088  0.0907  0.3320  0.4028
16769TIP3    H171722   5.779   0.577  17.058  0.8432  0.0893 -1.2793
16769TIP3    H271723   5.823   0.440  17.009  0.0125 -1.1739  1.4035
16770TIP3   OH271724   3.548   2.512   2.245  0.5886 -0.0652  0.0546
16770TIP3    H171725   3.544   2.442   2.179  0.8760  1.0816 -1.1950
16770TIP3    H271726   3.639   2.541   2.244  0.9249 -0.9757  1.9658
16771TIP3   OH271727   0.334   6.000   2.778 -0.3454 -0.4442  0.2180
16771TIP3    H171728   0.374   6.011   2.864  0.4670  0.2550 -0.2415
16771TIP3    H271729   0.359   5.912   2.750  1.2730  0.1702 -0.2751
16772TIP3   OH271730   0.390   0.097   0.058  0.2797  0.0830 -0.3293
16772TIP3    H171731   0.296   0.115   0.055  0.2654  0.0095 -0.3300
16772TIP3    H271732   0.414   0.080  -0.033  0.4022  0.6476 -0.4028
16773TIP3   OH271733   3.826   5.056  11.860 -0.1270 -0.0330 -0.4811
16773TIP3    H171734   3.865   5.064  11.948 -0.8237 -0.1643 -0.1569
16773TIP3    H271735   3.793   5.144  11.842 -0.5046 -0.1496 -0.3626
16774TIP3   OH271736   4.753   6.071  12.957 -0.2280  0.1518 -0.6112
16774TIP3    H171737   4.826   6.132  12.944 -0.5097  0.3234 -1.4453
16774TIP3    H271738   4.678   6.114  12.916 -0.9818  0.3328  0.9474
16775TIP3   OH271739   4.135   5.677   4.419 -0.0599 -0.0581 -0.0913
16775TIP3    H171740   4.153   5.751   4.361 -1.2285 -0.1733 -0.6147
16775TIP3    H271741   4.069   5.710   4.480  0.5889 -0.1806  0.6884
16776TIP3   OH271742   0.435   4.283  13.254  0.4684  0.2651 -0.2930
16776TIP3    H171743   0.357   4.328  13.287  0.2177  1.2187 -2.1058
16776TIP3    H271744   0.429   4.195  13.290 -1.1672  0.5043  0.0520
16777TIP3   OH271745   5.373   5.397  11.136  0.8290  0.0772  0.1042
16777TIP3    H171746   5.309   5.331  11.111 -0.0162  0.9334 -0.0426
16777TIP3    H271747   5.348   5.475  11.086  2.3070  0.2737 -0.3653
16778TIP3   OH271748   3.697   4.647  13.071  0.6860 -0.2987  0.2551
16778TIP3    H171749   3.670   4.601  13.151  1.0991 -0.3269  0.3767
16778TIP3    H271750   3.657   4.734  13.081 -0.1486 -0.6443 -0.0075
16779TIP3   OH271751   3.504   4.210  12.203 -0.3455 -0.1742  0.0825
16779TIP3    H171752   3.465   4.193  12.117  0.3769 -1.6612  0.0338
16779TIP3    H271753   3.588   4.253  12.183 -1.2890  1.7377  0.1404
16780TIP3   OH271754   3.048   4.835   2.521  0.1042  0.0987  0.7823
16780TIP3    H171755   3.103   4.862   2.448 -1.1649 -1.1321 -0.6594
16780TIP3    H271756   3.011   4.917   2.555  1.0415  0.7129  0.3308
16781TIP3   OH271757   6.433   6.744   3.458  0.3734 -0.0708  0.2423
16781TIP3    H171758   6.526   6.728   3.442  1.1233  1.2323  3.1209
16781TIP3    H271759   6.410   6.813   3.396  1.0558 -1.1078 -1.1906
16782TIP3   OH271760   3.253   0.255   2.534 -0.2076  0.1007  0.2211
16782TIP3    H171761   3.257   0.348   2.558  2.1931 -0.3415  1.6942
16782TIP3    H271762   3.308   0.211   2.599 -1.5360 -2.4067 -0.2890
16783TIP3   OH271763   0.837   0.453  12.067  0.1116  0.3712  0.6016
16783TIP3    H171764   0.749   0.435  12.035  0.2106  1.1981 -0.1608
16783TIP3    H271765   0.873   0.516  12.004  1.5155 -0.5291  0.4770
16784TIP3   OH271766   2.741   4.857  11.792 -0.2820  0.6808 -0.1875
16784TIP3    H171767   2.772   4.919  11.858 -1.5731  1.0190  0.1083
16784TIP3    H271768   2.649   4.842  11.814  0.1944 -1.8541  0.1303
16785TIP3   OH271769   4.176   6.009   0.627  0.5014 -0.1971 -0.0866
16785TIP3    H171770   4.191   6.089   0.578 -1.3070 -0.1359 -0.5663
16785TIP3    H271771   4.200   6.030   0.717 -1.2223  1.2835  0.0379
16786TIP3   OH271772   6.044   2.998  11.641  0.3946 -0.3955 -0.6936
16786TIP3    H171773   6.031   3.050  11.721 -1.0920 -0.9820 -0.5226
16786TIP3    H271774   6.036   2.907  11.671  3.2175 -0.7452 -0.9478
16787TIP3   OH271775   2.379   3.884   5.650 -0.5068  0.0175  0.9176
16787TIP3    H171776   2.308   3.836   5.694  0.3208  0.2188  2.4910
16787TIP3    H271777   2.374   3.854   5.559 -1.0543 -1.8223  1.5228
16788TIP3   OH271778   6.105   2.637   2.570  0.9300 -0.1727  0.4035
16788TIP3    H171779   6.011   2.637   2.587  0.9776 -0.6554  0.6755
16788TIP3    H271780   6.120   2.559   2.516  1.0931  0.2034 -0.1000
16789TIP3   OH271781   4.812   1.640   6.018 -0.1195  0.1607 -0.2490
16789TIP3    H171782   4.842   1.717   6.066  1.0650 -1.3426  1.5395
16789TIP3    H271783   4.812   1.666   5.926 -0.8095  2.6081  0.4312
16790TIP3   OH271784   2.875   6.031   1.317 -0.3849 -0.0095  0.9831
16790TIP3    H171785   2.787   5.998   1.334 -0.5210  0.0193  0.3498
16790TIP3    H271786   2.929   5.993   1.386 -0.8152 -0.3676  1.1246
16791TIP3   OH271787   6.539   3.219   5.536  0.2121 -0.1625 -0.1462
16791TIP3    H171788   6.630   3.198   5.560  0.3687 -0.6730 -1.1767
16791TIP3    H271789   6.531   3.313   5.551  0.9819 -0.0748 -0.2736
16792TIP3   OH271790   5.400   4.792   2.199 -0.7270  0.5185 -0.3410
16792TIP3    H171791   5.452   4.726   2.243 -1.8679 -1.4995 -1.8950
16792TIP3    H271792   5.370   4.850   2.269  1.6813  0.4014  0.8335
16793TIP3   OH271793   2.309   5.538  13.165  0.3628 -0.1293  0.2063
16793TIP3    H171794   2.259   5.542  13.247 -0.5041 -1.3153 -0.2424
16793TIP3    H271795   2.281   5.456  13.124  0.8540  0.3984 -1.2277
16794TIP3   OH271796   1.026   5.324  13.971  0.4379  0.8028 -0.1715
16794TIP3    H171797   0.968   5.266  13.922 -1.0351  0.4370  1.9351
16794TIP3    H271798   1.046   5.395  13.910 -0.6311 -0.0906 -1.5787
16795TIP3   OH271799   1.499   5.013   1.457  0.1349 -0.4478  0.2940
16795TIP3    H171800   1.461   4.953   1.521 -1.3275  0.3341  0.1664
16795TIP3    H271801   1.427   5.036   1.399  1.1682 -0.1929 -0.9178
16796TIP3   OH271802   0.828   2.599  13.344 -0.1512  0.7713 -0.2249
16796TIP3    H171803   0.788   2.639  13.421 -0.2914  2.1693 -1.0087
16796TIP3    H271804   0.921   2.619  13.352 -0.1012  0.5168 -0.1768
16797TIP3   OH271805   1.303   0.678  13.709 -0.3712 -0.4541 -0.1127
16797TIP3    H171806   1.390   0.646  13.732 -0.0682 -0.3878 -1.1114
16797TIP3    H271807   1.265   0.707  13.791 -0.2938 -2.4880  0.6778
16798TIP3   OH271808   6.024   1.412   0.277 -0.1954 -0.2920  0.0409
16798TIP3    H171809   5.971   1.491   0.291 -0.1693 -0.0459 -1.1878
16798TIP3    H271810   6.110   1.435   0.312  0.5631  1.1871 -2.5979
16799TIP3   OH271811   0.709   5.193   3.470 -0.5293  0.6556 -0.2578
16799TIP3    H171812   0.706   5.101   3.445  1.7323  1.0043 -2.0507
16799TIP3    H271813   0.670   5.240   3.396 -0.0703  1.2341 -0.1452
16800TIP3   OH271814   0.149   1.692   0.643  0.2201 -0.0515  0.3977
16800TIP3    H171815   0.061   1.655   0.639  0.9567 -1.7743 -0.4865
16800TIP3    H271816   0.158   1.722   0.734 -1.3046  0.2234  0.4637
16801TIP3   OH271817   1.053   0.375  17.187  0.1885  0.1593  0.3665
16801TIP3    H171818   1.079   0.449  17.242  0.9248 -0.4395  0.8245
16801TIP3    H271819   0.975   0.340  17.230  0.8428 -0.3908  1.1048
16802TIP3   OH271820   4.488   5.603  12.963 -0.3335  0.1262  0.2573
16802TIP3    H171821   4.485   5.526  13.020 -1.2913 -0.6663 -0.8476
16802TIP3    H271822   4.576   5.602  12.925 -0.2758 -0.3007  0.4081
16803TIP3   OH271823   2.971   1.037   1.996 -1.1121  0.1008 -0.3241
16803TIP3    H171824   2.926   1.098   2.056  0.3550 -0.9547  1.9290
16803TIP3    H271825   3.035   1.092   1.951 -0.5562  0.4822  0.8863
16804TIP3   OH271826   3.140   4.256   0.018  0.7224 -0.0831 -0.1161
16804TIP3    H171827   3.097   4.287   0.098  0.1159 -3.0457  0.7828
16804TIP3    H271828   3.077   4.195  -0.021  2.1033 -0.6853 -1.4453
16805TIP3   OH271829   5.438   6.219  17.168  0.0387 -0.0248 -0.2878
16805TIP3    H171830   5.423   6.313  17.179 -0.0350 -0.1727  0.9899
16805TIP3    H271831   5.457   6.208  17.075  2.7577  1.6404  0.0256
16806TIP3   OH271832   5.294   4.311  13.720 -0.1222  0.1881 -0.1323
16806TIP3    H171833   5.246   4.259  13.655 -0.7338 -0.0219  0.4817
16806TIP3    H271834   5.293   4.400  13.686 -0.2215  0.0318 -0.5344
16807TIP3   OH271835   3.456   4.302  10.980 -0.0442  0.1440 -0.0848
16807TIP3    H171836   3.375   4.324  10.933 -0.0017 -0.8218 -0.6515
16807TIP3    H271837   3.452   4.206  10.989  0.5741  0.1942  0.7457
16808TIP3   OH271838   5.074   4.608   5.399 -0.1943 -0.0955 -0.4366
16808TIP3    H171839   5.055   4.699   5.425  0.0735 -0.2224  0.2167
16808TIP3    H271840   4.999   4.583   5.346  0.0659  0.7467 -1.2217
16809TIP3   OH271841   3.069   6.461   5.575  0.4385 -0.0268 -0.0132
16809TIP3    H171842   2.979   6.434   5.591  0.8786 -0.2240  2.4437
16809TIP3    H271843   3.110   6.385   5.533 -0.2718 -0.3243 -0.1631
16810TIP3   OH271844   6.103   1.073   2.986 -1.0475 -0.0437  0.0360
16810TIP3    H171845   6.014   1.096   3.009 -0.1329  1.6967  1.9563
16810TIP3    H271846   6.116   0.985   3.023 -1.9879 -0.3648 -0.3841
16811TIP3   OH271847   1.915   4.361  15.613 -0.1695 -0.7525 -0.5131
16811TIP3    H171848   1.996   4.377  15.564  0.4369 -1.9035  0.0946
16811TIP3    H271849   1.927   4.410  15.695  0.2752 -1.6025 -0.0652
16812TIP3   OH271850   2.112   5.661   2.579 -0.1482  0.6583  0.1356
16812TIP3    H171851   2.144   5.582   2.536  1.7723  1.3337  0.2674
16812TIP3    H271852   2.040   5.691   2.524 -0.5792 -0.9086 -0.1754
16813TIP3   OH271853   5.486   1.218  11.441  0.0843 -0.7322  0.0634
16813TIP3    H171854   5.539   1.138  11.443  0.5478 -0.4340 -0.2443
16813TIP3    H271855   5.513   1.263  11.361  1.5257  0.8850  1.4079
16814TIP3   OH271856   0.103   6.271   2.667  0.2293 -0.5502 -0.5380
16814TIP3    H171857   0.060   6.283   2.752 -2.1884 -1.5163 -1.5736
16814TIP3    H271858   0.133   6.359   2.643  0.0733 -0.1004  0.8499
16815TIP3   OH271859   2.161   4.189  14.359  0.2336 -0.1883  0.1691
16815TIP3    H171860   2.162   4.166  14.266  0.6594 -0.6569  0.2882
16815TIP3    H271861   2.222   4.128  14.400 -0.8283 -0.7571  0.9418
16816TIP3   OH271862   4.506   3.223   5.445  0.3632  0.5051  0.2004
16816TIP3    H171863   4.500   3.128   5.448 -1.7384  0.6595  2.4308
16816TIP3    H271864   4.424   3.254   5.483  0.2076  3.2470 -2.1522
16817TIP3   OH271865   0.800   2.150  14.104 -0.4709 -0.0328  0.4687
16817TIP3    H171866   0.848   2.214  14.155 -0.8105  0.5064  0.1209
16817TIP3    H271867   0.801   2.184  14.014 -1.2466 -0.1560  0.4054
16818TIP3   OH271868   3.908   1.940  11.657  0.0940  0.0933 -0.0466
16818TIP3    H171869   3.953   1.972  11.735  0.1173  0.6582 -0.2890
16818TIP3    H271870   3.816   1.959  11.673 -0.0098 -0.6766  0.2653
16819TIP3   OH271871   3.207   3.102   6.217 -0.6677 -0.0667  0.0196
16819TIP3    H171872   3.174   3.013   6.222 -1.0684  0.1198  0.7149
16819TIP3    H271873   3.169   3.137   6.136 -1.1979 -0.2500  0.1875
16820TIP3   OH271874   2.015   0.826  12.261  0.0153  0.0554  0.8280
16820TIP3    H171875   2.103   0.814  12.296 -0.0728  0.1562  1.0787
16820TIP3    H271876   2.028   0.871  12.177  0.0658  1.8042  1.7584
16821TIP3   OH271877   1.635   3.209   0.962 -0.1812 -0.1619 -0.3695
16821TIP3    H171878   1.587   3.130   0.988 -0.0934 -0.5121 -1.2725
16821TIP3    H271879   1.722   3.179   0.939  0.2407  0.3736  0.4920
16822TIP3   OH271880   6.320   3.731  14.923  0.4731  0.3293  0.3517
16822TIP3    H171881   6.244   3.712  14.868  0.6790 -0.4399  0.3245
16822TIP3    H271882   6.343   3.822  14.901 -0.4086  0.5577  0.3393
16823TIP3   OH271883   2.731   4.174  12.838  0.0138  1.1785  0.5343
16823TIP3    H171884   2.639   4.190  12.814 -0.4893 -1.1109  0.7360
16823TIP3    H271885   2.725   4.130  12.923  1.3281  1.4215  0.7563
16824TIP3   OH271886   5.123   0.342   0.981 -0.4629  0.1658  0.1529
16824TIP3    H171887   5.130   0.431   0.947 -0.3450  0.7720  1.7254
16824TIP3    H271888   5.029   0.323   0.981 -0.4204 -0.1215 -1.1714
16825TIP3   OH271889   2.440   3.955   0.244 -0.2268  0.6147 -0.0087
16825TIP3    H171890   2.390   3.874   0.227 -0.8051  0.9069  0.2984
16825TIP3    H271891   2.377   4.013   0.286  0.5654  0.7506  0.9947
16826TIP3   OH271892   2.443   5.495  12.516 -0.0489 -0.2481  0.3353
16826TIP3    H171893   2.406   5.480  12.603 -2.4509  1.1837 -0.4100
16826TIP3    H271894   2.496   5.574  12.527 -1.6358  0.8678  0.1640
16827TIP3   OH271895   5.519   2.350   4.419  0.0750 -0.2254  0.1304
16827TIP3    H171896   5.566   2.289   4.362 -0.1473  0.5002 -0.8488
16827TIP3    H271897   5.497   2.424   4.362 -1.8154 -0.3367  0.6888
16828TIP3   OH271898   1.788   4.924  14.147 -0.2913  0.0218 -0.3425
16828TIP3    H171899   1.692   4.931  14.141 -0.3602 -0.1345  0.5735
16828TIP3    H271900   1.820   4.987  14.082 -1.0140  0.3974 -0.3441
16829TIP3   OH271901   5.711   6.265  11.615  0.0394  0.6326 -0.3414
16829TIP3    H171902   5.653   6.312  11.556  1.2995  2.8807  0.1762
16829TIP3    H271903   5.666   6.269  11.700  1.3317  3.1726  0.2620
16830TIP3   OH271904   3.723   5.376  16.723  0.3603 -1.0044  0.7756
16830TIP3    H171905   3.648   5.394  16.779  0.3833 -0.1333  0.5350
16830TIP3    H271906   3.719   5.443  16.655  1.1586 -1.1646  0.5636
16831TIP3   OH271907   1.272   2.589   5.638  0.1772 -0.2353 -0.6284
16831TIP3    H171908   1.252   2.609   5.546 -0.9190  0.9143 -0.1471
16831TIP3    H271909   1.362   2.621   5.650 -0.0208  0.4873 -1.0390
16832TIP3   OH271910   3.796   1.656   6.179 -0.5252  0.2302  0.1881
16832TIP3    H171911   3.720   1.707   6.207 -0.4516  1.0966 -1.1317
16832TIP3    H271912   3.866   1.682   6.238 -0.5637  1.4682 -0.3020
16833TIP3   OH271913   3.654   1.745   3.127  0.1252  0.2799  0.4051
16833TIP3    H171914   3.584   1.699   3.175  1.3668 -1.7867  0.2871
16833TIP3    H271915   3.712   1.778   3.195 -0.4027  1.1066  0.4630
16834TIP3   OH271916   2.410   5.529  17.016  0.1538  0.3223 -0.2432
16834TIP3    H171917   2.427   5.600  16.954  2.0112  2.3592  2.5268
16834TIP3    H271918   2.315   5.520  17.017 -0.0103  1.6605 -1.7803
16835TIP3   OH271919   4.553   2.009   6.621 -0.2000  0.4048  0.4070
16835TIP3    H171920   4.616   1.986   6.690 -1.0658 -2.1610  0.4224
16835TIP3    H271921   4.487   1.939   6.625 -1.4392  1.4111 -1.5821
16836TIP3   OH271922   3.955   5.935   5.787 -0.0327  0.5322 -0.1015
16836TIP3    H171923   3.892   5.883   5.737  1.4944 -1.0188 -0.4813
16836TIP3    H271924   3.940   5.911   5.878  0.9839 -0.9292 -0.3195
16837TIP3   OH271925   4.510   2.074   3.507 -0.2062  0.2190  0.2039
16837TIP3    H171926   4.578   2.135   3.538  1.0295 -0.8404 -0.3725
16837TIP3    H271927   4.532   2.059   3.415 -0.8853 -0.5872  0.1762
16838TIP3   OH271928   4.739   0.248  14.505  0.1832 -0.4049  0.6623
16838TIP3    H171929   4.783   0.249  14.419 -0.7754  1.0867  0.1759
16838TIP3    H271930   4.667   0.186  14.494 -2.6051  2.9819 -1.0158
16839TIP3   OH271931   6.237   4.841   0.513 -0.0015 -0.1174  0.0360
16839TIP3    H171932   6.173   4.775   0.488  1.1812 -0.7380 -1.4219
16839TIP3    H271933   6.235   4.841   0.609 -0.7154 -1.5680  0.0335
16840TIP3   OH271934   1.397   0.080  15.711 -0.5761 -0.1584 -0.4092
16840TIP3    H171935   1.414   0.148  15.777 -1.8227 -0.9679  0.7852
16840TIP3    H271936   1.477   0.077  15.658  0.9459 -0.2823  1.8159
16841TIP3   OH271937   5.625   1.286  12.670  0.5783  0.0190 -0.1620
16841TIP3    H171938   5.703   1.324  12.708 -0.0745  0.1206  1.0837
16841TIP3    H271939   5.645   1.193  12.661  0.4254 -0.1601  1.2422
16842TIP3   OH271940   4.530   4.168  15.264  0.4473 -0.0152  0.1645
16842TIP3    H171941   4.444   4.194  15.232  0.3887  1.9365  1.8060
16842TIP3    H271942   4.582   4.248  15.261  2.0379 -1.0397 -0.2544
16843TIP3   OH271943   1.568   4.728  13.300  0.0780  0.2495  0.4720
16843TIP3    H171944   1.478   4.759  13.284 -0.3926 -1.2634  0.0953
16843TIP3    H271945   1.594   4.687  13.217  0.4380 -0.9156  1.1487
16844TIP3   OH271946   3.803   0.119  11.710 -0.5003 -0.3807  0.7143
16844TIP3    H171947   3.866   0.081  11.772  0.0417 -1.8408 -0.6975
16844TIP3    H271948   3.741   0.166  11.766  0.2657 -1.2286  2.3402
16845TIP3   OH271949   5.201   0.043  16.183  0.1057 -0.3409  0.3096
16845TIP3    H171950   5.185  -0.030  16.124 -3.0857 -1.2114  2.1088
16845TIP3    H271951   5.187   0.006  16.271  0.5575  1.8985  1.3623
16846TIP3   OH271952   3.150   1.332   3.674 -0.2085  0.0057 -0.1151
16846TIP3    H171953   3.126   1.277   3.599 -0.9377 -1.1928  0.9587
16846TIP3    H271954   3.209   1.398   3.638  0.6289 -1.4387 -1.4712
16847TIP3   OH271955   1.867   0.615   2.124  0.4724  0.0102  0.3087
16847TIP3    H171956   1.862   0.580   2.213  1.1208 -1.3652 -0.1704
16847TIP3    H271957   1.890   0.707   2.135 -1.4539  0.3544  1.6221
16848TIP3   OH271958   0.134   0.920   4.010  0.3058  0.2934 -0.0905
16848TIP3    H171959   0.143   0.882   3.922 -1.4315  0.9033 -0.5412
16848TIP3    H271960   0.114   0.845   4.066 -1.5032  0.2839 -0.7172
16849TIP3   OH271961   5.209   4.635   6.199 -0.3413  0.1970  0.0125
16849TIP3    H171962   5.160   4.634   6.281  0.6957 -0.8852  0.6286
16849TIP3    H271963   5.163   4.700   6.144 -1.7690  0.0215  0.9801
16850TIP3   OH271964   3.326   1.947  13.502 -0.4411 -0.2294 -0.3479
16850TIP3    H171965   3.305   1.916  13.590  1.5437  1.1794  0.6580
16850TIP3    H271966   3.404   1.897  13.477  0.2233  0.8722 -0.4746
16851TIP3   OH271967   1.416   4.659   5.475 -0.2120 -0.1004 -0.2285
16851TIP3    H171968   1.334   4.642   5.430 -0.5664 -0.0943  0.4145
16851TIP3    H271969   1.482   4.613   5.423 -0.6120 -0.0692 -0.7673
16852TIP3   OH271970   3.192   1.425  14.094 -0.6580 -0.5282 -0.0372
16852TIP3    H171971   3.176   1.371  14.170 -0.8885  1.5735  1.4622
16852TIP3    H271972   3.236   1.503  14.129 -1.4609  0.8191 -1.9157
16853TIP3   OH271973   4.996   0.069  13.065 -0.0236 -0.3191  0.3143
16853TIP3    H171974   5.090   0.054  13.056  0.1851  0.9779  0.2156
16853TIP3    H271975   4.962  -0.013  13.101  1.1942 -0.6892  0.6577
16854TIP3   OH271976   1.655   0.345  15.116  0.5732  0.3285 -0.0151
16854TIP3    H171977   1.642   0.406  15.188  0.5586 -1.8025  1.8584
16854TIP3    H271978   1.585   0.365  15.054  0.0489  1.5876  0.9702
16855TIP3   OH271979   1.972   3.344   4.359 -0.1142 -0.4879  0.3267
16855TIP3    H171980   1.898   3.400   4.333  0.9754  0.0559 -1.7690
16855TIP3    H271981   2.045   3.405   4.368  0.9971 -1.4721 -1.5918
16856TIP3   OH271982   2.145   5.028   5.462 -0.2230 -0.5347 -0.5334
16856TIP3    H171983   2.191   5.014   5.545  1.9410  1.0859 -1.4141
16856TIP3    H271984   2.095   5.108   5.475  1.1464  0.4453 -1.1952
16857TIP3   OH271985   4.410   3.041   1.218  0.2511 -0.3488 -0.3352
16857TIP3    H171986   4.433   2.990   1.141  1.7781 -1.0785  0.6022
16857TIP3    H271987   4.381   2.976   1.283  1.0556  0.0732  0.4526
16858TIP3   OH271988   3.035   0.872   2.876 -0.1357  0.0172 -0.0574
16858TIP3    H171989   2.985   0.906   2.951  1.7332  0.2025  1.1415
16858TIP3    H271990   2.971   0.822   2.825 -1.6183  0.5343  1.2528
16859TIP3   OH271991   1.466   6.465   0.534  0.4633  0.3084 -0.6552
16859TIP3    H171992   1.456   6.375   0.503  0.1253  0.0751  0.1087
16859TIP3    H271993   1.405   6.472   0.608 -0.2282  1.4479 -1.3071
16860TIP3   OH271994   6.315   0.027  12.705  0.1672 -0.0806 -0.1079
16860TIP3    H171995   6.392  -0.017  12.669  1.4151  0.4532  1.7555
16860TIP3    H271996   6.321   0.010  12.800 -0.7563  1.8550  0.3211
16861TIP3   OH271997   3.798   5.833  11.806  0.2253 -0.8800  0.0636
16861TIP3    H171998   3.776   5.750  11.846 -0.2893 -1.5302 -1.5404
16861TIP3    H271999   3.773   5.824  11.715  0.9071  0.7494 -0.3178
16862TIP3   OH272000   4.795   5.088   2.188  0.3552 -0.1439  0.3026
16862TIP3    H172001   4.744   5.142   2.248  1.2949 -0.1776  1.1444
16862TIP3    H272002   4.739   5.013   2.169 -0.1604  0.1316  0.7223
16863TIP3   OH272003   0.841   2.398   0.032 -0.0014 -0.3890  0.1162
16863TIP3    H172004   0.894   2.449   0.093  1.0102 -0.0091 -1.0476
16863TIP3    H272005   0.767   2.455   0.010  0.3021 -0.0343  0.0197
16864TIP3   OH272006   4.949   5.044  13.627 -0.1174  0.0135  0.2849
16864TIP3    H172007   5.044   5.037  13.621 -0.1339  0.3178 -0.3725
16864TIP3    H272008   4.932   5.138  13.623 -0.3542  0.0685  1.9658
16865TIP3   OH272009   3.141   1.416   5.541 -0.0065  0.4722  0.1875
16865TIP3    H172010   3.183   1.345   5.491  0.8420 -0.8433  2.6812
16865TIP3    H272011   3.116   1.375   5.623 -2.4696  2.3074  0.3934
16866TIP3   OH272012   2.698   2.361   0.234 -0.4695 -0.5749 -0.0541
16866TIP3    H172013   2.674   2.294   0.170  0.9496 -0.9633 -0.1857
16866TIP3    H272014   2.783   2.333   0.268 -2.0213 -1.3676  3.3587
16867TIP3   OH272015   4.916   1.178   4.778 -0.1404  0.1751  0.7053
16867TIP3    H172016   4.868   1.232   4.840  1.5145  0.7792  1.4999
16867TIP3    H272017   4.987   1.140   4.829 -0.1098 -1.1677 -0.3070
16868TIP3   OH272018   5.862   6.586   4.305  0.2430 -0.6315  0.1665
16868TIP3    H172019   5.869   6.631   4.389  1.9854  1.4585 -1.0352
16868TIP3    H272020   5.946   6.542   4.294  0.0621 -0.8135 -0.5108
16869TIP3   OH272021   1.279   5.040   3.360 -0.1497 -0.2526 -0.2546
16869TIP3    H172022   1.253   5.131   3.345 -0.1214  0.1800  2.2151
16869TIP3    H272023   1.365   5.046   3.400 -1.0417 -1.2473  1.8981
16870TIP3   OH272024   2.768   5.756  16.379  0.3901  0.4040  0.1022
16870TIP3    H172025   2.773   5.661  16.380  0.5340  0.3903 -0.8022
16870TIP3    H272026   2.810   5.781  16.296  1.7378  1.3267  1.0385
16871TIP3   OH272027   3.389   5.828  15.073 -0.9019 -0.2960 -0.6305
16871TIP3    H172028   3.394   5.848  14.980  1.8504  0.5623 -0.3692
16871TIP3    H272029   3.310   5.873  15.103 -0.5626  1.3613 -2.1277
16872TIP3   OH272030   6.010   2.133  15.980  0.1164  0.3202  0.5415
16872TIP3    H172031   6.087   2.165  15.933 -1.3444 -0.6690 -2.6213
16872TIP3    H272032   6.046   2.088  16.057  2.7166 -0.6737 -1.1988
16873TIP3   OH272033   5.096   1.599   1.955 -0.3928 -1.0021  0.6081
16873TIP3    H172034   5.078   1.527   2.014  0.5791 -0.3861  1.6724
16873TIP3    H272035   5.113   1.674   2.012 -1.1702  0.0182 -0.4749
16874TIP3   OH272036   0.184   4.439   1.986  0.2651 -0.1363 -0.2146
16874TIP3    H172037   0.107   4.422   2.040  0.7118 -1.2151  0.1085
16874TIP3    H272038   0.251   4.381   2.022  0.9705  0.1495 -1.0535
16875TIP3   OH272039   3.339   0.558   2.044 -0.3486  0.3394  0.2705
16875TIP3    H172040   3.248   0.536   2.067 -1.1237  0.1400 -2.6870
16875TIP3    H272041   3.335   0.651   2.022  0.2778  0.4623  0.6994
16876TIP3   OH272042   2.320   0.585  15.884  0.2304  0.5667 -0.0571
16876TIP3    H172043   2.408   0.574  15.921 -0.2173  0.6414  1.0573
16876TIP3    H272044   2.335   0.627  15.800  1.1557  2.0838  0.8416
16877TIP3   OH272045   0.596   2.795  11.186 -0.1326  0.1687 -0.2797
16877TIP3    H172046   0.625   2.770  11.098 -1.1184  0.1151 -0.5922
16877TIP3    H272047   0.675   2.826  11.229  0.2446  0.7540 -1.3847
16878TIP3   OH272048   2.323   3.825  14.128 -0.2732 -0.0446  0.0241
16878TIP3    H172049   2.380   3.755  14.099  0.6712  0.8512 -0.2997
16878TIP3    H272050   2.239   3.782  14.147  0.0027 -1.0853 -1.1220
16879TIP3   OH272051   4.933   1.335  14.133 -0.4929 -0.1206 -0.1330
16879TIP3    H172052   5.007   1.397  14.135 -1.8491  1.5894 -1.5211
16879TIP3    H272053   4.953   1.277  14.059  0.6444 -1.1869  0.9959
16880TIP3   OH272054   2.043   2.741   2.971 -1.0686 -0.8537 -0.7633
16880TIP3    H172055   1.954   2.724   3.001 -0.6431 -1.1528  0.3591
16880TIP3    H272056   2.084   2.789   3.043 -0.6601  0.2838 -1.7407
16881TIP3   OH272057   6.537   4.342   4.285 -0.6667 -0.0355  0.3131
16881TIP3    H172058   6.513   4.418   4.338  0.8603 -0.8515  2.2053
16881TIP3    H272059   6.631   4.351   4.271 -0.2112 -2.2961  1.7288
16882TIP3   OH272060   3.040   2.168   2.836  0.2848 -0.0835  0.5814
16882TIP3    H172061   3.025   2.263   2.841  1.3192  0.2762 -2.3423
16882TIP3    H272062   3.135   2.159   2.850  0.0933 -0.7583  1.4739
16883TIP3   OH272063   4.000   5.304   5.259 -0.0038 -0.8108 -0.1972
16883TIP3    H172064   3.905   5.301   5.275 -0.0130  1.4477  0.3706
16883TIP3    H272065   4.039   5.311   5.346  0.6975 -1.7729 -0.4268
16884TIP3   OH272066   5.552   3.019  13.037 -0.2643  0.1001 -0.4105
16884TIP3    H172067   5.486   2.988  13.099 -0.0226  1.0610  0.3441
16884TIP3    H272068   5.606   2.943  13.018 -0.4587 -0.2463  0.4196
16885TIP3   OH272069   4.539   2.059  12.651 -0.2089 -0.7584  0.3674
16885TIP3    H172070   4.450   2.042  12.619  0.7682 -0.9177 -2.3626
16885TIP3    H272071   4.596   2.034  12.579  2.0880 -0.6941  2.1040
16886TIP3   OH272072   3.834   1.922  10.982 -0.3000  0.6254 -0.4782
16886TIP3    H172073   3.891   1.981  10.933 -2.0853  1.3414 -1.7228
16886TIP3    H272074   3.750   1.967  10.986 -1.4051 -1.3683 -0.5645
16887TIP3   OH272075   1.901   5.214  11.479 -0.1097  0.3430 -0.8391
16887TIP3    H172076   1.824   5.162  11.456 -0.6020  0.1640  1.1284
16887TIP3    H272077   1.964   5.194  11.410 -1.0242 -1.2695 -1.2436
16888TIP3   OH272078   2.914   5.724   0.645  0.3758  0.4326 -0.2690
16888TIP3    H172079   2.906   5.670   0.724  0.6067  2.9950  1.5715
16888TIP3    H272080   2.830   5.713   0.600 -0.8306  1.0537  1.7674
16889TIP3   OH272081   3.300   2.846   0.777  0.3141  0.1520  0.3537
16889TIP3    H172082   3.213   2.806   0.772 -0.2185  1.3295 -0.0768
16889TIP3    H272083   3.316   2.879   0.688  1.4314 -0.5249  0.2924
16890TIP3   OH272084   3.946   5.603  11.289 -0.2536 -0.2570 -0.0716
16890TIP3    H172085   3.985   5.684  11.321 -1.1061  0.3305 -0.5073
16890TIP3    H272086   3.993   5.585  11.206  0.2910 -0.4993  0.2817
16891TIP3   OH272087   2.493   0.596   2.458  0.5031 -0.3500 -0.3109
16891TIP3    H172088   2.539   0.675   2.428  0.3223  1.0222  2.8435
16891TIP3    H272089   2.426   0.629   2.518 -0.8025 -2.7900 -0.3984
16892TIP3   OH272090   1.803   0.260   1.466 -0.1439 -0.3537  0.1204
16892TIP3    H172091   1.838   0.176   1.495 -0.4566  0.0114  1.6171
16892TIP3    H272092   1.862   0.289   1.397 -0.6229 -2.2788 -1.1189
16893TIP3   OH272093   0.941   2.516  13.861  0.0331  1.1211  0.9308
16893TIP3    H172094   0.993   2.522  13.941  0.3170  0.3989  0.8055
16893TIP3    H272095   0.994   2.462  13.802  0.1673  2.2629 -0.0181
16894TIP3   OH272096   6.227   0.411   2.634  0.5200 -0.5320 -0.3406
16894TIP3    H172097   6.274   0.378   2.711 -0.5172 -1.9636 -0.2889
16894TIP3    H272098   6.137   0.379   2.646 -0.4049  1.9067 -0.5763
16895TIP3   OH272099   1.799   1.910  12.388  0.1415  0.2289 -0.2846
16895TIP3    H172100   1.792   1.819  12.419  0.5831  0.3523  0.1702
16895TIP3    H272101   1.823   1.902  12.295 -1.2907 -0.1418 -0.6356
16896TIP3   OH272102   5.949   2.423   4.455  0.0183  0.2579 -0.3378
16896TIP3    H172103   5.907   2.450   4.536 -0.7885 -1.1723 -0.2596
16896TIP3    H272104   6.042   2.413   4.478  0.0575  1.3507  0.0111
16897TIP3   OH272105   6.356   3.695   3.486  0.2951  0.2351  0.1985
16897TIP3    H172106   6.374   3.728   3.398  2.5595 -0.1267  0.5110
16897TIP3    H272107   6.437   3.710   3.534 -0.7544 -0.0654  2.0816
16898TIP3   OH272108   2.605   2.373  14.021 -0.5041  0.3239  0.5498
16898TIP3    H172109   2.663   2.327  13.960 -1.4583  2.3815 -1.9873
16898TIP3    H272110   2.664   2.420  14.080  0.4277 -1.8467  1.4374
16899TIP3   OH272111   4.760   6.501   2.682  0.2485  0.0213  0.0752
16899TIP3    H172112   4.754   6.418   2.730 -0.7170  0.2671  0.4048
16899TIP3    H272113   4.825   6.485   2.614 -0.6271 -1.3220 -0.4731
16900TIP3   OH272114   4.268   1.719  13.560 -0.2266  0.3078 -0.4262
16900TIP3    H172115   4.336   1.785  13.546  0.3920 -0.6306 -2.0079
16900TIP3    H272116   4.254   1.719  13.654  3.3291 -0.7509  0.1793
16901TIP3   OH272117   0.919   5.038   5.644 -0.0910  0.1149  0.3941
16901TIP3    H172118   0.827   5.066   5.637 -0.0605 -0.0719 -0.9755
16901TIP3    H272119   0.920   4.974   5.715 -0.6856  1.4781  1.6421
16902TIP3   OH272120   3.898   0.503  15.622  0.1086 -0.5253  0.0704
16902TIP3    H172121   3.977   0.541  15.584  0.2113  0.7237  1.5142
16902TIP3    H272122   3.853   0.463  15.548  0.0563  2.2866 -1.4781
16903TIP3   OH272123   5.462   1.929   0.332  0.3782 -0.0610 -0.4703
16903TIP3    H172124   5.410   2.003   0.362  0.6320 -0.3489  0.6711
16903TIP3    H272125   5.504   1.895   0.410  0.1524 -1.5074 -0.9661
16904TIP3   OH272126   0.761   3.152   1.254 -0.6060  0.3720 -0.0318
16904TIP3    H172127   0.803   3.216   1.312  0.5223 -0.3263 -0.0646
16904TIP3    H272128   0.709   3.097   1.312  0.8495 -0.5856  0.3835
16905TIP3   OH272129   1.942   1.792  14.556  0.1980 -0.5019  0.3665
16905TIP3    H172130   2.003   1.779  14.629  1.7985 -2.9522 -1.3151
16905TIP3    H272131   1.968   1.876  14.517  1.3562 -0.6743  0.7519
16906TIP3   OH272132   2.748   2.867   5.945 -0.3369  0.5967 -0.2880
16906TIP3    H172133   2.756   2.784   5.992 -2.4626  0.6905  0.2966
16906TIP3    H272134   2.697   2.923   6.005  0.0233  1.9063 -1.1889
16907TIP3   OH272135   2.573   4.898  16.217 -0.4344  0.2091  0.0463
16907TIP3    H172136   2.545   4.917  16.307 -0.4138 -0.6677  0.2361
16907TIP3    H272137   2.611   4.811  16.221  3.7233  1.9092  0.0927
16908TIP3   OH272138   0.877   3.827   5.509 -0.4477 -0.0726 -0.0604
16908TIP3    H172139   0.844   3.742   5.482 -3.8420  1.9485 -2.6545
16908TIP3    H272140   0.831   3.846   5.591 -1.2945  0.1265 -0.5713
16909TIP3   OH272141   6.776   5.748   0.486  0.3591 -0.7106  0.1060
16909TIP3    H172142   6.798   5.699   0.566 -1.6009  0.5761  1.4942
16909TIP3    H272143   6.681   5.737   0.478  0.2739  0.7971 -0.9526
16910TIP3   OH272144   1.906   1.456   1.316  0.0111  0.5006  0.2995
16910TIP3    H172145   1.829   1.400   1.321 -0.7227  1.4833  0.1844
16910TIP3    H272146   1.955   1.421   1.241 -1.9010  1.7766 -1.6336
16911TIP3   OH272147   5.048   3.660  14.232  0.0598 -0.2295 -0.3993
16911TIP3    H172148   5.051   3.672  14.327  1.6399 -1.5488 -0.2585
16911TIP3    H272149   5.001   3.578  14.220  0.4504 -0.4090 -0.7149
16912TIP3   OH272150   5.728   4.890   4.640 -0.1657  0.5472  0.0689
16912TIP3    H172151   5.808   4.921   4.597 -0.1893  1.7278  0.8565
16912TIP3    H272152   5.758   4.817   4.695 -0.0796 -0.7537 -1.6316
16913TIP3   OH272153   2.150   4.055  14.101  0.0656  0.5128  0.1226
16913TIP3    H172154   2.214   3.985  14.114  0.5101  0.9565  0.3694
16913TIP3    H272155   2.098   4.027  14.026  1.8360  1.0489 -1.3685
16914TIP3   OH272156   1.049   0.898  11.776  0.0478 -0.2656  0.3262
16914TIP3    H172157   1.034   0.977  11.827 -1.6072 -0.9825  0.9905
16914TIP3    H272158   1.010   0.916  11.691 -1.2957 -0.7647  0.8360
16915TIP3   OH272159   1.405   6.663  11.256  0.0240 -0.3053 -0.1084
16915TIP3    H172160   1.423   6.737  11.315 -1.2383 -0.5815  0.6437
16915TIP3    H272161   1.449   6.589  11.297 -1.0890 -0.5581  0.6681
16916TIP3   OH272162   1.266   6.310  12.721 -0.3272  0.2137  0.4646
16916TIP3    H172163   1.300   6.297  12.633 -0.5265  1.4208  0.2037
16916TIP3    H272164   1.222   6.395  12.718 -3.0162 -1.1140  0.8941
16917TIP3   OH272165   4.552   5.432  16.004 -0.0973  0.3557 -0.1699
16917TIP3    H172166   4.642   5.412  15.980 -0.5974 -1.6501 -0.4617
16917TIP3    H272167   4.503   5.431  15.922 -0.8299 -1.0590  0.2741
16918TIP3   OH272168   1.879   1.512  16.143 -0.8801 -0.0220 -0.5547
16918TIP3    H172169   1.904   1.472  16.060  0.8836 -0.9368  0.3845
16918TIP3    H272170   1.838   1.441  16.193  2.9739 -0.9898  1.4315
16919TIP3   OH272171   3.566   4.406  14.430  0.3989 -0.2934  1.0439
16919TIP3    H172172   3.631   4.471  14.458 -0.9154  0.6250  2.0675
16919TIP3    H272173   3.580   4.332  14.489  0.1714  0.1142  1.6189
16920TIP3   OH272174   6.469   5.748  13.739  0.0620  0.1038 -0.4839
16920TIP3    H172175   6.471   5.745  13.835  0.0181 -0.6418 -0.5048
16920TIP3    H272176   6.478   5.841  13.718  1.4810  0.1300  0.2033
16921TIP3   OH272177   4.998   2.236  11.781 -0.0492 -0.6548 -0.3907
16921TIP3    H172178   4.935   2.180  11.826 -0.1437  0.9850  1.5710
16921TIP3    H272179   5.075   2.235  11.837  1.0205 -1.1322 -1.8275
16922TIP3   OH272180   6.325   3.963  16.785 -0.4296  0.1927  0.1777
16922TIP3    H172181   6.297   3.894  16.845 -0.5025  0.3808  0.3593
16922TIP3    H272182   6.357   3.916  16.708  1.0421 -0.1154  0.9466
16923TIP3   OH272183   6.401   2.295   5.445  0.0936  0.6596  0.1163
16923TIP3    H172184   6.481   2.244   5.448  0.5637  1.2940 -1.2669
16923TIP3    H272185   6.353   2.270   5.524  0.4013 -1.7470 -0.4331
16924TIP3   OH272186   1.904   0.207   3.723  0.6301  0.3113  0.8715
16924TIP3    H172187   1.904   0.129   3.778  0.0296  1.3209  2.3279
16924TIP3    H272188   1.827   0.256   3.751 -1.2018 -0.3855 -2.6562
16925TIP3   OH272189   1.744   2.914   2.756 -0.3359 -0.3629  0.0161
16925TIP3    H172190   1.680   2.984   2.747  1.8730  1.4177 -2.3343
16925TIP3    H272191   1.796   2.939   2.834 -1.7747 -1.2613  1.2870
16926TIP3   OH272192   2.305   4.450  15.146 -0.0627  0.6237  0.1665
16926TIP3    H172193   2.295   4.542  15.168 -1.1553  0.2997  1.0828
16926TIP3    H272194   2.217   4.422  15.120 -0.0552 -0.4982  1.2867
16927TIP3   OH272195   1.046   4.569  13.157 -1.0904 -0.2774 -0.4310
16927TIP3    H172196   1.097   4.555  13.078 -1.7277  2.7266 -1.4411
16927TIP3    H272197   0.970   4.511  13.148 -0.8765 -0.3615 -1.7573
16928TIP3   OH272198   0.230   0.016   0.860  0.8536 -0.5453 -0.5654
16928TIP3    H172199   0.206  -0.039   0.935  2.0480  1.0439  1.0231
16928TIP3    H272200   0.176   0.094   0.870 -0.5620 -1.2254 -2.6091
16929TIP3   OH272201   5.306   6.293  11.349 -0.0295  0.1646  0.1687
16929TIP3    H172202   5.359   6.301  11.270 -1.7519  2.0376 -0.8005
16929TIP3    H272203   5.293   6.198  11.359  1.7046 -0.2002 -0.7260
16930TIP3   OH272204   2.539   6.148   6.061  0.7004  0.0091  0.0063
16930TIP3    H172205   2.569   6.090   5.991  1.1852  2.3498 -1.7788
16930TIP3    H272206   2.477   6.206   6.019  1.8718  2.2146  1.2482
16931TIP3   OH272207   4.332   5.453   3.746 -0.3486  0.0589  0.6725
16931TIP3    H172208   4.271   5.515   3.785  1.1593 -0.1654  3.5654
16931TIP3    H272209   4.305   5.368   3.781  1.1508 -0.1200  1.4668
16932TIP3   OH272210   0.698   1.444   5.004  0.3139  1.3094 -0.0506
16932TIP3    H172211   0.646   1.523   5.021  0.6922  1.9832 -1.9468
16932TIP3    H272212   0.665   1.411   4.921  2.5138  1.4112 -0.9858
16933TIP3   OH272213   5.380   5.700   4.671  0.0233  0.5753 -0.6491
16933TIP3    H172214   5.288   5.693   4.697 -0.0873  2.6407 -0.3810
16933TIP3    H272215   5.407   5.786   4.704  1.6680  0.5561 -1.9113
16934TIP3   OH272216   1.076   5.013  15.831  0.2753  0.1249 -0.0726
16934TIP3    H172217   0.998   4.987  15.781 -1.1613 -1.1852  2.7733
16934TIP3    H272218   1.097   4.937  15.885  2.2970  1.2257  0.7416
16935TIP3   OH272219   1.130   5.780  15.177 -0.0928  0.2651  0.3871
16935TIP3    H172220   1.115   5.722  15.102  2.3909 -0.0488  0.0898
16935TIP3    H272221   1.116   5.724  15.254  1.1588 -0.4335  0.1102
16936TIP3   OH272222   1.121   4.614  16.209 -0.5000  0.3592  0.0235
16936TIP3    H172223   1.032   4.620  16.243 -0.5959  0.2814 -0.2160
16936TIP3    H272224   1.148   4.524  16.227 -1.1494 -0.1754 -1.5809
16937TIP3   OH272225   3.609   5.035  13.642  0.1422  0.9310  0.4257
16937TIP3    H172226   3.570   4.950  13.663 -0.7762  1.3745  0.5246
16937TIP3    H272227   3.543   5.080  13.589  1.2982  0.9338 -1.0362
16938TIP3   OH272228   2.928   4.732  15.762  0.3537 -0.3914 -0.1179
16938TIP3    H172229   2.873   4.657  15.739  0.1080  0.4479 -2.4093
16938TIP3    H272230   2.988   4.741  15.688  0.0935  1.9356 -0.0732
16939TIP3   OH272231   0.957   4.177   5.323 -0.1174 -0.0200  0.1141
16939TIP3    H172232   0.924   4.202   5.409 -1.0118 -1.4200  0.2053
16939TIP3    H272233   0.878   4.152   5.273  0.5491 -0.9440 -0.5051
16940TIP3   OH272234   3.295   5.252  15.452 -0.0358 -0.1066 -0.3177
16940TIP3    H172235   3.353   5.319  15.488  0.0588  0.5601 -1.7035
16940TIP3    H272236   3.338   5.223  15.372 -1.8371  0.7076 -1.5917
16941TIP3   OH272237   5.632   6.463  12.155 -0.4405  0.0433 -0.2006
16941TIP3    H172238   5.721   6.432  12.170 -1.1766 -1.4786  1.1978
16941TIP3    H272239   5.600   6.488  12.242 -0.6276  2.7517 -0.9897
16942TIP3   OH272240   1.309   1.422   1.815  0.6835  0.4307 -0.2766
16942TIP3    H172241   1.241   1.434   1.748  0.4790  1.1560  0.0447
16942TIP3    H272242   1.311   1.328   1.830  0.1007  0.3478 -0.6581
16943TIP3   OH272243   2.380   5.883  14.066  0.0181  0.4604 -0.2234
16943TIP3    H172244   2.360   5.904  14.158  0.2099  1.9418 -0.5149
16943TIP3    H272245   2.470   5.853  14.067 -0.7245 -1.8521  0.4191
16944TIP3   OH272246   3.748   2.364   5.600  0.1826  0.0034 -0.8077
16944TIP3    H172247   3.822   2.384   5.542 -1.1823  1.7964 -2.0018
16944TIP3    H272248   3.744   2.440   5.659 -0.2850 -0.4059 -0.3182
16945TIP3   OH272249   5.666   5.638  13.734 -0.0409  0.3917 -0.5420
16945TIP3    H172250   5.648   5.718  13.783  0.6819  0.7097 -0.7945
16945TIP3    H272251   5.746   5.657  13.685 -0.1229 -0.3245 -0.9587
16946TIP3   OH272252   5.716   4.430   0.194 -0.1376  0.3320 -0.0131
16946TIP3    H172253   5.782   4.406   0.129 -0.6820 -1.2118 -0.0240
16946TIP3    H272254   5.696   4.522   0.176  0.6519  0.2724 -1.2055
16947TIP3   OH272255   1.712   5.131   2.537  0.4840 -0.0841 -0.4733
16947TIP3    H172256   1.728   5.048   2.582 -0.0751  0.4387  0.7309
16947TIP3    H272257   1.731   5.113   2.445  0.5590 -1.4911 -0.1964
16948TIP3   OH272258   6.212   1.171   2.754 -0.5246  0.2059 -0.2994
16948TIP3    H172259   6.174   1.175   2.841  1.7436 -0.2640  0.7456
16948TIP3    H272260   6.220   1.077   2.736 -0.1640  0.2942 -0.6181
16949TIP3   OH272261   2.912   3.951   6.280 -0.4500  0.5126 -0.4629
16949TIP3    H172262   2.817   3.957   6.291 -0.2763  3.9857 -0.3573
16949TIP3    H272263   2.947   3.970   6.367  0.3994  1.5522 -1.0302
16950TIP3   OH272264   6.150   1.436   0.012  0.3237  0.3342 -0.0539
16950TIP3    H172265   6.088   1.371   0.045 -0.3026  0.0734 -1.6791
16950TIP3    H272266   6.108   1.520   0.028  0.7671  0.3032  1.3066
16951TIP3   OH272267   5.293   4.712  11.991  0.3963  0.7918 -0.0073
16951TIP3    H172268   5.384   4.681  11.988  0.3817  0.8341 -1.0979
16951TIP3    H272269   5.290   4.773  12.064  0.5536 -1.4007  1.8639
16952TIP3   OH272270   4.498   4.970   6.029 -0.3576  0.1807 -0.2148
16952TIP3    H172271   4.557   5.045   6.023  1.9147 -1.5522 -0.1756
16952TIP3    H272272   4.439   4.992   6.102  0.0838  2.0214 -0.3838
16953TIP3   OH272273   1.616   1.113   5.238 -0.5932 -0.3442 -0.1639
16953TIP3    H172274   1.675   1.042   5.262 -0.3830 -0.0332  0.2292
16953TIP3    H272275   1.576   1.083   5.156  0.3393 -0.4255 -0.6043
16954TIP3   OH272276   6.415   3.351  17.106 -0.0207 -0.1660 -1.0812
16954TIP3    H172277   6.509   3.334  17.115 -0.5574 -2.3403  0.5449
16954TIP3    H272278   6.407   3.445  17.123  1.9465  0.2449 -2.1486
16955TIP3   OH272279   3.389   4.485   5.709 -0.0510 -0.3673 -0.3330
16955TIP3    H172280   3.427   4.418   5.652  3.1020  0.6901  0.4391
16955TIP3    H272281   3.335   4.436   5.772  2.4232 -2.2256  0.3831
16956TIP3   OH272282   3.468   0.417  16.912 -0.6403 -0.3990 -0.4801
16956TIP3    H172283   3.513   0.446  16.833  0.2130  0.1709  0.2119
16956TIP3    H272284   3.537   0.379  16.966 -1.4664 -2.2404 -0.6717
16957TIP3   OH272285   1.621   6.224  14.433  0.0012 -0.0362 -0.3878
16957TIP3    H172286   1.595   6.307  14.393 -0.8276  0.0079  0.2278
16957TIP3    H272287   1.685   6.187  14.373 -0.8775  0.2485 -1.5048
16958TIP3   OH272288   5.641   0.888  14.900  0.3968  0.2485  0.0737
16958TIP3    H172289   5.617   0.808  14.948 -0.2165 -0.4706 -1.3934
16958TIP3    H272290   5.561   0.940  14.900 -0.1635 -0.5847 -1.7690
16959TIP3   OH272291   1.611   5.842   0.351  0.0589 -0.6162 -0.0687
16959TIP3    H172292   1.583   5.867   0.440  1.9499  0.8161  0.1620
16959TIP3    H272293   1.563   5.901   0.293 -2.4720 -2.6654 -0.1732
16960TIP3   OH272294   6.266   3.961   3.750  0.2799 -0.2096 -0.0097
16960TIP3    H172295   6.248   3.967   3.656  0.0196  0.1757  0.0629
16960TIP3    H272296   6.326   4.033   3.768 -0.8785  0.6864  0.3968
16961TIP3   OH272297   0.508   1.317  13.025 -0.2390 -0.3255  0.0060
16961TIP3    H172298   0.449   1.320  12.950  1.8022 -1.5127 -1.6827
16961TIP3    H272299   0.535   1.226  13.031  0.5290 -0.0196  1.4821
16962TIP3   OH272300   2.522   1.906   3.785 -0.0764  0.1942 -0.0651
16962TIP3    H172301   2.485   1.958   3.856 -0.2817  0.1149 -0.1127
16962TIP3    H272302   2.576   1.968   3.736 -0.0655  0.2881  0.0643
16963TIP3   OH272303   5.575   0.252  15.394  0.3693  0.3315 -0.5752
16963TIP3    H172304   5.593   0.206  15.312  0.0534  2.2848 -1.7698
16963TIP3    H272305   5.653   0.238  15.447  0.5403 -1.0262 -1.1754
16964TIP3   OH272306   4.111   1.476   5.127  0.0234  0.2574  0.6591
16964TIP3    H172307   4.051   1.496   5.198  0.4489 -0.8549  1.3433
16964TIP3    H272308   4.054   1.452   5.053 -0.4138  1.4105  0.5963
16965TIP3   OH272309   5.704   5.784   2.163  0.0745  0.3412  0.4328
16965TIP3    H172310   5.727   5.701   2.121  0.1054  1.3463 -1.5938
16965TIP3    H272311   5.745   5.779   2.250  0.8493 -1.3668 -0.0035
16966TIP3   OH272312   1.512   2.266   3.564 -0.0646  0.6665  0.6497
16966TIP3    H172313   1.522   2.263   3.469 -0.5038 -1.4998  0.6570
16966TIP3    H272314   1.430   2.312   3.579 -1.1428 -1.0059 -0.0915
16967TIP3   OH272315   6.588   4.738  13.651  0.6011  0.2532 -0.0326
16967TIP3    H172316   6.571   4.674  13.583  2.1310 -0.1946  0.0132
16967TIP3    H272317   6.572   4.691  13.733 -1.0285  0.7329 -0.0515
16968TIP3   OH272318   5.774   0.064   3.473 -0.2595  0.4032  0.5275
16968TIP3    H172319   5.869   0.048   3.472 -0.5473 -1.4951  0.5433
16968TIP3    H272320   5.739   0.001   3.409 -1.6640 -0.1000  1.7508
16969TIP3   OH272321   0.512   2.488  11.027 -0.2527  0.6984 -0.2443
16969TIP3    H172322   0.421   2.512  11.011 -0.2678  0.2682 -0.8231
16969TIP3    H272323   0.563   2.563  10.997 -0.3103  0.1241 -1.7984
16970TIP3   OH272324   4.863   0.693   3.006 -0.0381 -0.1326 -0.1578
16970TIP3    H172325   4.816   0.611   3.020 -0.2707  0.1046  0.4441
16970TIP3    H272326   4.903   0.683   2.919 -1.0375 -0.4105 -0.5940
16971TIP3   OH272327   2.110   3.817   1.037 -0.3869 -0.3441  0.0233
16971TIP3    H172328   2.166   3.862   0.973 -1.0715 -1.2645 -1.2553
16971TIP3    H272329   2.127   3.724   1.022 -1.8222 -0.6184  0.0017
16972TIP3   OH272330   2.605   1.803   4.135  0.1778 -0.3621 -0.2390
16972TIP3    H172331   2.617   1.876   4.074  0.8190 -0.3196 -0.0639
16972TIP3    H272332   2.534   1.832   4.193  1.9928  1.1253  1.3250
16973TIP3   OH272333   5.575   4.568  13.178  0.3306 -0.2491 -0.4958
16973TIP3    H172334   5.646   4.583  13.241 -1.2476  0.0312  1.2670
16973TIP3    H272335   5.555   4.655  13.143 -0.7126  0.0478  0.7818
16974TIP3   OH272336   4.374   5.349   1.663 -0.0466  0.0498  0.1633
16974TIP3    H172337   4.287   5.332   1.625 -0.8111 -0.8771  2.2373
16974TIP3    H272338   4.399   5.265   1.703  0.9416  0.8410  1.2338
16975TIP3   OH272339   1.333   5.992  16.633 -0.4516  0.1664 -0.6316
16975TIP3    H172340   1.304   5.954  16.550  1.3837  0.7693 -1.5792
16975TIP3    H272341   1.314   5.925  16.698  1.5803 -1.8879 -2.0942
16976TIP3   OH272342   6.109   5.058  11.867  0.0822  0.0327 -0.1696
16976TIP3    H172343   6.153   4.986  11.911  1.1309 -1.3570 -3.3355
16976TIP3    H272344   6.029   5.072  11.918  0.0928 -3.0318  0.8044
16977TIP3   OH272345   1.889   0.052  16.006  0.3577 -0.3075  0.3086
16977TIP3    H172346   1.861   0.002  15.930  1.0459 -0.2631  0.0219
16977TIP3    H272347   1.956  -0.002  16.048  0.0135 -0.3133  0.8626
16978TIP3   OH272348   6.245   5.945   0.591  0.0882  0.5100 -0.1887
16978TIP3    H172349   6.166   5.995   0.569 -0.3245  1.0913  2.5526
16978TIP3    H272350   6.212   5.867   0.636  1.0725  0.6268  0.7333
16979TIP3   OH272351   5.652   2.872   3.888 -0.0753  0.1002  0.5994
16979TIP3    H172352   5.560   2.889   3.908  0.1509  0.5770  1.2301
16979TIP3    H272353   5.667   2.781   3.915 -0.1287  0.3056  1.3112
16980TIP3   OH272354   0.047   3.061  10.747 -0.9923  0.1807  0.3148
16980TIP3    H172355   0.073   2.986  10.800  0.5338  0.1968 -0.3613
16980TIP3    H272356   0.017   3.023  10.664 -0.0061  0.3071 -0.1111
16981TIP3   OH272357   0.544   3.018  13.113 -0.2128 -0.1226 -0.0941
16981TIP3    H172358   0.601   3.066  13.173  1.7598 -0.3821 -1.7034
16981TIP3    H272359   0.533   2.932  13.154  2.1409 -0.7309 -0.6790
16982TIP3   OH272360   1.059   0.735   2.346 -0.0069  0.0451  0.3816
16982TIP3    H172361   0.996   0.682   2.297 -1.4262  1.0741  1.0585
16982TIP3    H272362   1.053   0.822   2.306  1.5460 -0.0106 -0.0362
16983TIP3   OH272363   5.595   5.296   1.099 -0.2844  0.6419 -0.2462
16983TIP3    H172364   5.532   5.264   1.034 -0.3175 -1.4952  0.7853
16983TIP3    H272365   5.542   5.331   1.170 -0.2986  0.4327 -0.1519
16984TIP3   OH272366   1.551   1.271   0.241  0.4900  0.5164  0.1680
16984TIP3    H172367   1.469   1.271   0.191  1.4381  0.5192 -1.3895
16984TIP3    H272368   1.619   1.290   0.177  1.9393 -1.4036  1.0639
16985TIP3   OH272369   2.114   0.775   2.358 -0.0544 -0.2526  0.2324
16985TIP3    H172370   2.160   0.710   2.305 -0.9551 -0.8808  0.2022
16985TIP3    H272371   2.079   0.725   2.432 -1.0304  0.1366  0.0431
16986TIP3   OH272372   0.194   2.804  12.970 -0.2473  0.0673 -0.4103
16986TIP3    H172373   0.284   2.820  12.943  0.1301  0.1256  0.8505
16986TIP3    H272374   0.191   2.711  12.991 -0.2410  0.2370  0.3796
16987TIP3   OH272375   3.002   0.485  13.413 -0.8405  0.3762 -0.2660
16987TIP3    H172376   3.026   0.399  13.447 -0.2303  0.7186  0.1757
16987TIP3    H272377   2.975   0.469  13.323 -1.0032 -0.3201 -0.0888
16988TIP3   OH272378   3.712   6.777  12.086 -0.1692  0.5416 -0.5053
16988TIP3    H172379   3.631   6.791  12.135 -0.6460  0.3902 -1.2292
16988TIP3    H272380   3.721   6.682  12.083 -0.9715  0.4941 -2.0124
16989TIP3   OH272381   1.142   4.364   3.992 -0.0983 -0.6725  0.0320
16989TIP3    H172382   1.116   4.360   4.084 -0.5509 -0.6543 -0.0934
16989TIP3    H272383   1.209   4.431   3.988  0.7757 -1.5108  0.5558
16990TIP3   OH272384   3.316   6.407  15.394 -0.0541  0.0600 -0.4386
16990TIP3    H172385   3.265   6.327  15.383 -0.2294  0.4384 -2.5174
16990TIP3    H272386   3.370   6.390  15.471 -1.6428 -1.2221  0.4342
16991TIP3   OH272387   5.697   2.840   1.215  0.3537 -0.2684  0.4971
16991TIP3    H172388   5.732   2.814   1.129 -0.4313  0.0487  0.0827
16991TIP3    H272389   5.678   2.757   1.259 -0.1902 -0.4205 -0.0241
16992TIP3   OH272390   0.115   1.427  16.458 -0.6116  0.0559 -0.7390
16992TIP3    H172391   0.042   1.387  16.504  1.5386 -1.3469  1.5459
16992TIP3    H272392   0.137   1.365  16.388 -0.5237 -0.3647 -0.3422
16993TIP3   OH272393   6.699   6.377  14.172  0.0209 -0.4909  0.1171
16993TIP3    H172394   6.788   6.372  14.139 -0.2220 -5.6759 -0.1886
16993TIP3    H272395   6.649   6.420  14.103  1.8000  0.1983 -0.7496
16994TIP3   OH272396   3.075   2.387   6.120 -0.1971 -0.1011 -0.1169
16994TIP3    H172397   3.058   2.406   6.027  0.2469  0.8639 -0.0041
16994TIP3    H272398   3.110   2.298   6.120  1.2097  0.4310 -1.0368
16995TIP3   OH272399   3.455   5.549   3.639 -0.0646 -0.4764 -0.5285
16995TIP3    H172400   3.509   5.488   3.690  0.6880 -0.1579 -0.9352
16995TIP3    H272401   3.514   5.583   3.572 -0.4006  0.8893 -0.1507
16996TIP3   OH272402   2.435   2.756  13.019 -0.7898  0.0237 -0.0080
16996TIP3    H172403   2.369   2.688  13.013 -3.7013  2.8159 -0.9890
16996TIP3    H272404   2.474   2.759  12.931 -1.1095  0.0681 -0.1476
16997TIP3   OH272405   6.302   3.093  17.107  0.7037 -0.5045  0.1749
16997TIP3    H172406   6.375   3.069  17.050  2.6467  0.6310  2.1195
16997TIP3    H272407   6.305   3.189  17.110  0.1130 -0.5184  1.5044
16998TIP3   OH272408   0.228   4.876   2.963  0.3621 -0.4656 -0.2528
16998TIP3    H172409   0.216   4.791   2.922  0.7652  0.4286 -2.2769
16998TIP3    H272410   0.268   4.930   2.895 -0.3407  1.4797  0.8376
16999TIP3   OH272411   5.303   3.755   4.771 -0.1324  0.1387  0.3645
16999TIP3    H172412   5.246   3.805   4.830 -1.5269  0.7924 -1.4879
16999TIP3    H272413   5.326   3.817   4.702 -1.4489 -1.5806 -1.6854
17000TIP3   OH272414   6.179   5.832   3.500 -0.2400  0.3717 -0.4651
17000TIP3    H172415   6.188   5.748   3.455  1.8436 -0.1160  0.7849
17000TIP3    H272416   6.126   5.812   3.577 -0.1124  0.3006 -0.3962
17001TIP3   OH272417   5.270   6.166   5.324 -0.3986 -0.3692  0.6783
17001TIP3    H172418   5.326   6.115   5.265 -0.4172  1.3049 -0.8227
17001TIP3    H272419   5.318   6.247   5.339 -1.1766 -0.0680  1.6067
17002TIP3   OH272420   1.044   3.470   5.542 -0.1747 -0.1702  0.2118
17002TIP3    H172421   1.098   3.510   5.474 -1.4548  0.8552 -0.2304
17002TIP3    H272422   1.070   3.378   5.543  2.4777  0.5426  0.9142
17003TIP3   OH272423   3.302   0.466   1.610  0.1576  0.1728 -0.6069
17003TIP3    H172424   3.233   0.531   1.598  1.3286  1.3286 -1.2597
17003TIP3    H272425   3.370   0.493   1.549  1.6194 -0.3573  0.7607
17004TIP3   OH272426   5.680   0.513  14.701  0.1523 -0.1391 -0.2927
17004TIP3    H172427   5.753   0.477  14.650 -0.3717 -1.1517 -0.3506
17004TIP3    H272428   5.706   0.603  14.720  2.1034 -0.9003  0.9394
17005TIP3   OH272429   2.318   1.392  14.381 -0.3224  0.3204 -0.5590
17005TIP3    H172430   2.320   1.340  14.461  0.2764  0.1795 -0.6655
17005TIP3    H272431   2.314   1.483  14.411  0.8802  0.3159 -0.3609
17006TIP3   OH272432   1.366   6.338  15.029 -0.0347  0.4794  0.1939
17006TIP3    H172433   1.379   6.432  15.042  0.5048  0.6709 -1.6736
17006TIP3    H272434   1.440   6.297  15.073  0.2052  0.9760  0.2549
17007TIP3   OH272435   3.163   2.254  14.896  0.3899  0.2634 -0.4472
17007TIP3    H172436   3.229   2.194  14.929  0.8839  0.2972 -1.3654
17007TIP3    H272437   3.206   2.339  14.896  0.8941  0.0369 -2.5366
17008TIP3   OH272438   6.429   0.057   1.277  0.1469  0.6748  0.4780
17008TIP3    H172439   6.469   0.142   1.294  1.5844  0.3106 -1.0254
17008TIP3    H272440   6.419   0.053   1.182  2.6373 -1.9552  0.2745
17009TIP3   OH272441   6.049   3.403  14.809  0.5325 -0.4159  0.2009
17009TIP3    H172442   6.073   3.493  14.830  1.6854 -0.4869 -0.7671
17009TIP3    H272443   5.959   3.409  14.777  0.6437  0.4061  0.0246
17010TIP3   OH272444   1.182   4.190   5.609  0.2342  0.4972 -1.0353
17010TIP3    H172445   1.237   4.151   5.677 -0.1491 -0.1961 -1.1203
17010TIP3    H272446   1.185   4.127   5.537 -3.0576 -1.0303  0.0605
17011TIP3   OH272447   3.409   3.708  15.050 -0.2728  0.0671  0.1716
17011TIP3    H172448   3.359   3.790  15.051 -0.5832 -0.1200  0.1079
17011TIP3    H272449   3.462   3.714  14.971  0.6200  0.7480  0.8016
17012TIP3   OH272450   4.499   6.316   6.000  0.0296  0.1688 -0.3450
17012TIP3    H172451   4.419   6.273   6.029 -0.0982  0.5946 -0.0478
17012TIP3    H272452   4.537   6.352   6.081  0.8868 -0.6432 -0.3818
17013TIP3   OH272453   5.298   4.259   4.456  0.0671 -0.0431 -0.2618
17013TIP3    H172454   5.279   4.221   4.370  0.1030  0.8137 -0.6494
17013TIP3    H272455   5.214   4.291   4.488  0.0843 -0.2053 -0.0501
17014TIP3   OH272456   4.982   6.514   4.696 -0.3992 -1.0516  0.8784
17014TIP3    H172457   4.895   6.502   4.659  0.1360  0.9901 -1.1593
17014TIP3    H272458   4.971   6.583   4.762 -0.5139 -1.5542  1.3896
17015TIP3   OH272459   1.273   3.299   3.775  0.2420 -0.4323  0.2795
17015TIP3    H172460   1.249   3.260   3.860  2.4502  0.7981  1.5090
17015TIP3    H272461   1.335   3.368   3.797  1.0778 -0.2839 -2.3981
17016TIP3   OH272462   4.404   6.061   5.006  0.4661 -0.7837  0.6334
17016TIP3    H172463   4.374   6.096   4.922 -2.3190 -0.0716  1.8606
17016TIP3    H272464   4.415   6.138   5.062 -0.1746 -1.4186  1.6551
17017TIP3   OH272465   4.322   2.108  16.520 -0.2359  0.0700 -0.4516
17017TIP3    H172466   4.254   2.109  16.453  0.0980  1.6567 -0.7804
17017TIP3    H272467   4.324   2.198  16.554  2.3038  0.2884 -1.0787
17018TIP3   OH272468   5.065   2.128   1.214 -0.2660  0.2088 -0.0619
17018TIP3    H172469   4.975   2.109   1.186 -0.2175  0.5413 -0.4471
17018TIP3    H272470   5.067   2.223   1.224 -0.3239  0.0798  1.2191
17019TIP3   OH272471   0.135   0.166   0.012  0.3195 -0.2672 -0.3457
17019TIP3    H172472   0.146   0.247  -0.039  2.6519 -0.5387 -0.3333
17019TIP3    H272473   0.064   0.186   0.074 -0.2296  1.2095 -1.4270
17020TIP3   OH272474   0.351   4.873  14.472 -0.0972  0.4045  0.0338
17020TIP3    H172475   0.391   4.913  14.549 -0.1159  0.0563  0.2269
17020TIP3    H272476   0.276   4.928  14.453  0.5699  1.1583 -0.4327
17021TIP3   OH272477   3.644   4.513   0.493 -0.2060  0.1281  0.4751
17021TIP3    H172478   3.585   4.580   0.458 -0.1313  0.2312  0.5436
17021TIP3    H272479   3.587   4.452   0.539 -0.2877  0.0750  0.3024
17022TIP3   OH272480   5.018   1.201  13.897  0.1720 -0.1896 -0.4706
17022TIP3    H172481   5.112   1.189  13.883  0.3232  0.5175 -0.0957
17022TIP3    H272482   4.992   1.267  13.832  0.0356 -0.0262 -0.2497
17023TIP3   OH272483   0.442   3.240  16.399  0.0858 -0.4127 -0.2530
17023TIP3    H172484   0.519   3.251  16.454 -0.0862  1.6046 -0.3668
17023TIP3    H272485   0.463   3.287  16.318 -1.5747  0.9691  0.0628
17024TIP3   OH272486   4.899   1.568  13.056 -0.3370 -0.3520  0.1566
17024TIP3    H172487   4.872   1.625  13.127 -0.7830 -1.2363  0.7151
17024TIP3    H272488   4.866   1.610  12.977 -0.7198  0.1223  0.5699
17025TIP3   OH272489   3.790   1.148   3.406 -0.2267 -0.4718 -0.0634
17025TIP3    H172490   3.808   1.091   3.331  2.1315 -1.5123  1.2622
17025TIP3    H272491   3.699   1.129   3.429 -0.5833 -1.0457 -1.8733
17026TIP3   OH272492   2.402   3.231  15.513  0.7924  0.6874 -0.2633
17026TIP3    H172493   2.334   3.271  15.566  1.1164  0.5948  0.2276
17026TIP3    H272494   2.458   3.184  15.576  0.7455 -0.0574 -0.7641
17027TIP3   OH272495   4.052   6.233   4.177  0.0056  0.5119 -0.0292
17027TIP3    H172496   3.980   6.295   4.170  0.7281  1.4096  0.4210
17027TIP3    H272497   4.061   6.196   4.089 -0.1799  1.3197 -0.3863
17028TIP3   OH272498   1.545   3.736   4.316 -0.7443 -0.0718  0.0656
17028TIP3    H172499   1.544   3.811   4.375  0.2591 -0.4032  0.5287
17028TIP3    H272500   1.504   3.768   4.236 -0.5187  0.9143  0.3282
17029TIP3   OH272501   0.535   4.822  13.360 -0.5728 -0.4738 -0.3629
17029TIP3    H172502   0.553   4.733  13.389 -0.6395 -0.6346 -0.8208
17029TIP3    H272503   0.449   4.843  13.398  0.8195  0.5449  2.4204
17030TIP3   OH272504   2.948   2.172  12.756 -0.1561  0.1213  0.0613
17030TIP3    H172505   2.915   2.248  12.805 -0.2904  0.3426 -0.3680
17030TIP3    H272506   2.911   2.096  12.801  0.2835  0.2916  0.7285
17031TIP3   OH272507   4.424   6.651  16.864  0.8459  0.6786 -0.4901
17031TIP3    H172508   4.330   6.647  16.882  0.7498  0.4177 -1.0566
17031TIP3    H272509   4.451   6.737  16.898  0.6015  0.3270  0.5937
17032TIP3   OH272510   2.184   4.594   3.319  0.2084  0.1554 -0.1479
17032TIP3    H172511   2.271   4.632   3.334  0.0700 -0.2443  1.8240
17032TIP3    H272512   2.124   4.667   3.333  0.2130  0.4586 -1.6192
17033TIP3   OH272513   3.397   5.207  13.573 -0.1812  0.3352 -0.2397
17033TIP3    H172514   3.353   5.262  13.638  0.8766  0.4288  0.4234
17033TIP3    H272515   3.357   5.230  13.490 -2.0481 -0.2743  0.4618
17034TIP3   OH272516   2.619   4.822  15.264  0.6619 -0.4238  0.1443
17034TIP3    H172517   2.639   4.845  15.354  0.1524 -0.8065  0.3606
17034TIP3    H272518   2.643   4.900  15.213  0.0812  0.1371  0.7178
17035TIP3   OH272519   5.267   4.958   1.668  0.0405 -0.3197  0.4798
17035TIP3    H172520   5.293   5.045   1.639 -1.2277 -0.5649 -1.4288
17035TIP3    H272521   5.198   4.974   1.733 -2.6548  0.0471 -2.3886
17036TIP3   OH272522   1.594   1.588   3.296 -0.9766 -0.0279 -0.4346
17036TIP3    H172523   1.676   1.564   3.252 -1.3386  0.2359 -1.2570
17036TIP3    H272524   1.619   1.657   3.358 -0.4137 -0.6029 -0.0125
17037TIP3   OH272525   5.662   2.347  12.691  0.4960 -0.3923 -0.4372
17037TIP3    H172526   5.602   2.385  12.628 -1.4124 -2.8275 -0.1554
17037TIP3    H272527   5.683   2.260  12.656  2.9699 -0.0176  0.0333
17038TIP3   OH272528   3.481   5.110   4.080  0.1755 -0.1749 -0.1607
17038TIP3    H172529   3.408   5.061   4.118  0.1840  0.9457  1.3721
17038TIP3    H272530   3.559   5.062   4.106  0.0389 -0.9103 -1.0877
17039TIP3   OH272531   2.550   5.296  16.153 -0.6820 -0.0430  0.2566
17039TIP3    H172532   2.551   5.391  16.163 -0.9406 -0.3135  3.2909
17039TIP3    H272533   2.479   5.279  16.091 -1.6217  1.6522  0.8403
17040TIP3   OH272534   5.920   2.546   2.203 -0.2793  0.1102 -0.1914
17040TIP3    H172535   5.968   2.526   2.284 -0.8648 -1.2316 -0.1563
17040TIP3    H272536   5.851   2.607   2.231  1.1657  1.7864 -0.1848
17041TIP3   OH272537   2.661   0.405   1.754 -0.8927  0.3044  0.3731
17041TIP3    H172538   2.723   0.402   1.827 -1.9404  0.4084  1.2781
17041TIP3    H272539   2.594   0.466   1.782 -2.4739 -1.3473  0.2713
17042TIP3   OH272540   0.670   0.083  14.883  0.1730  0.2233 -0.5146
17042TIP3    H172541   0.726   0.032  14.824  1.4032 -0.0339  0.8441
17042TIP3    H272542   0.584   0.081  14.842  0.1832 -2.9477 -0.5369
17043TIP3   OH272543   4.767   6.481  11.644  0.1089  0.3017  0.4215
17043TIP3    H172544   4.756   6.388  11.624  1.5697  0.4893 -1.3192
17043TIP3    H272545   4.828   6.482  11.718 -0.5037 -0.1358  0.9439
17044TIP3   OH272546   5.525   1.290   3.790 -0.5407  0.1615 -0.5798
17044TIP3    H172547   5.614   1.289   3.756 -1.2930 -0.0821 -2.5941
17044TIP3    H272548   5.529   1.235   3.869  1.0377  0.0175 -0.7459
17045TIP3   OH272549   5.093   2.424  14.205  0.2131 -0.0066  0.7391
17045TIP3    H172550   5.010   2.428  14.158  2.1379 -1.3753 -2.9433
17045TIP3    H272551   5.109   2.514  14.232 -1.7739  0.5147  0.2817
17046TIP3   OH272552   0.004   6.292   4.390 -0.1243  0.0078 -0.1125
17046TIP3    H172553   0.012   6.359   4.322 -2.0931 -1.0298 -1.4040
17046TIP3    H272554   0.009   6.340   4.473  4.2579  1.0883 -0.8738
17047TIP3   OH272555   6.602   4.384   2.472  0.3197 -0.0999 -0.1749
17047TIP3    H172556   6.618   4.422   2.385 -3.5084  1.6056 -0.2473
17047TIP3    H272557   6.554   4.452   2.519 -1.7528 -2.7533  1.6902
17048TIP3   OH272558   6.080   0.853   3.574 -0.3801  0.3661 -0.4898
17048TIP3    H172559   6.118   0.782   3.626 -0.2083  0.2859 -0.7214
17048TIP3    H272560   6.063   0.923   3.637 -0.5860  0.1059 -0.2527
17049TIP3   OH272561   0.625   2.762   0.464 -0.0124 -0.2635  0.3164
17049TIP3    H172562   0.657   2.844   0.504  1.1235 -0.8768  0.6825
17049TIP3    H272563   0.578   2.791   0.385  0.3246  0.7446  0.4740
17050TIP3   OH272564   0.393   0.495   1.716 -0.4968 -0.0685 -0.2200
17050TIP3    H172565   0.334   0.548   1.663 -0.5804 -0.0124 -0.0689
17050TIP3    H272566   0.335   0.435   1.764 -0.3893 -0.4594 -0.5706
17051TIP3   OH272567   2.462   4.275   0.374  0.0697  0.4421 -0.9618
17051TIP3    H172568   2.547   4.263   0.416 -0.5747  0.5347  0.3995
17051TIP3    H272569   2.404   4.303   0.444 -1.0379  0.6283 -1.9253
17052TIP3   OH272570   6.193   6.734   3.075 -0.1184  0.1797  0.3292
17052TIP3    H172571   6.269   6.793   3.071  0.2691 -0.3869 -0.8912
17052TIP3    H272572   6.187   6.697   2.987 -1.3081 -0.4235  0.6585
17053TIP3   OH272573   1.271   3.379   0.367  0.3402  0.8845 -0.2879
17053TIP3    H172574   1.194   3.434   0.351 -1.7610 -1.4555  1.2407
17053TIP3    H272575   1.297   3.348   0.281 -1.6686  0.1950 -0.6809
17054TIP3   OH272576   4.343   3.866  14.102 -0.2204  0.2984 -0.5032
17054TIP3    H172577   4.360   3.822  14.019 -1.5982  0.5609 -0.9301
17054TIP3    H272578   4.365   3.958  14.085 -0.6136  0.3726 -0.6149
17055TIP3   OH272579   5.678   1.001   5.206  0.2287 -0.1837  0.2737
17055TIP3    H172580   5.747   1.050   5.251  0.5542  0.0338 -0.4487
17055TIP3    H272581   5.708   0.997   5.115  0.0934 -1.5302  0.2760
17056TIP3   OH272582   1.768   4.643   5.017 -0.1540 -0.0986 -0.5597
17056TIP3    H172583   1.684   4.608   4.988  0.0644 -0.0799 -1.2201
17056TIP3    H272584   1.804   4.576   5.075 -1.2339  0.4753  0.7922
17057TIP3   OH272585   3.677   2.202   2.975 -0.0908 -0.5799  0.2204
17057TIP3    H172586   3.647   2.112   2.976 -1.3758 -0.1806 -0.8490
17057TIP3    H272587   3.692   2.222   2.882  0.4111  0.2279  0.4647
17058TIP3   OH272588   3.690   3.539  13.550 -0.0188 -0.3596 -0.0730
17058TIP3    H172589   3.777   3.500  13.554 -0.3778 -1.1783 -0.1561
17058TIP3    H272590   3.693   3.600  13.476  0.2817 -0.8647 -0.4739
17059TIP3   OH272591   0.518   2.387   1.427 -0.3005 -0.4810 -0.2035
17059TIP3    H172592   0.476   2.471   1.410 -2.0163 -1.3075 -0.1922
17059TIP3    H272593   0.459   2.323   1.387  1.3912 -1.6227 -0.9269
17060TIP3   OH272594   6.153   0.975   0.640 -0.3691 -0.0467  0.2638
17060TIP3    H172595   6.164   1.060   0.597 -2.4350  0.2642  0.3225
17060TIP3    H272596   6.195   0.985   0.725 -1.2319  1.1598  0.5550
17061TIP3   OH272597   0.923   6.260   3.595 -0.0997  0.0942  0.3252
17061TIP3    H172598   0.921   6.350   3.563 -0.2103  1.1025  3.0369
17061TIP3    H272599   0.890   6.265   3.685  1.3619 -2.4220  1.0719
17062TIP3   OH272600   2.186   6.071  16.939 -0.2235 -0.0063  0.3419
17062TIP3    H172601   2.136   6.131  16.995  0.8682  3.3801 -2.1460
17062TIP3    H272602   2.269   6.059  16.986 -0.3412  0.6500  0.7371
17063TIP3   OH272603   6.275   4.878  14.328 -0.0627 -0.1678 -0.4213
17063TIP3    H172604   6.319   4.963  14.327 -0.2133 -0.0860 -0.1823
17063TIP3    H272605   6.244   4.869  14.418  3.1233 -2.0745  0.5644
17064TIP3   OH272606   4.097   1.928   5.702  0.0473 -0.4514 -0.0079
17064TIP3    H172607   4.054   2.014   5.705  2.5201  0.8488 -0.0907
17064TIP3    H272608   4.115   1.908   5.794 -1.0064 -1.1444  0.0506
17065TIP3   OH272609   6.420   6.128   2.201  0.4542  0.1732  0.3121
17065TIP3    H172610   6.325   6.120   2.207  0.5864  0.1318  2.8287
17065TIP3    H272611   6.435   6.218   2.171 -0.3898  0.2271  0.0516
17066TIP3   OH272612   6.520   5.498  14.180 -1.1423 -0.1683 -0.0024
17066TIP3    H172613   6.608   5.476  14.151 -0.2432  1.6314  1.3556
17066TIP3    H272614   6.464   5.433  14.136  0.8071 -1.1938 -1.0210
17067TIP3   OH272615   5.722   2.090   3.130 -0.6679 -0.0595  0.2444
17067TIP3    H172616   5.798   2.086   3.189  0.0243  2.3938 -0.4155
17067TIP3    H272617   5.672   2.010   3.149  1.8133 -1.4838  1.0443
17068TIP3   OH272618   1.389   5.613  16.857 -0.2347  0.7763  0.1045
17068TIP3    H172619   1.318   5.678  16.866  0.0725  1.1854 -0.4477
17068TIP3    H272620   1.373   5.552  16.929 -0.7503  1.2509  0.4039
17069TIP3   OH272621   3.886   5.228   3.163 -0.0893  0.4582  0.0553
17069TIP3    H172622   3.863   5.317   3.189  0.3608  0.8331 -0.7978
17069TIP3    H272623   3.839   5.214   3.081 -2.1465 -1.0015  1.4253
17070TIP3   OH272624   4.924   6.636  10.793 -0.2152  0.1399  0.2309
17070TIP3    H172625   4.837   6.674  10.779 -0.7656 -0.6327  1.4586
17070TIP3    H272626   4.976   6.709  10.828 -0.3473  0.6209 -0.5637
17071TIP3   OH272627   5.247   0.146   2.059 -0.0478  0.4981  0.0777
17071TIP3    H172628   5.336   0.142   2.092 -1.0095 -0.6537  2.6678
17071TIP3    H272629   5.239   0.070   2.001  0.9240  1.1730 -0.9596
17072TIP3   OH272630   3.429   0.601   4.806  0.8456 -0.0590 -0.0315
17072TIP3    H172631   3.340   0.634   4.800  0.6089 -1.0007 -1.8572
17072TIP3    H272632   3.471   0.629   4.725  1.0168 -3.0948 -1.0297
17073TIP3   OH272633   0.813   2.286   0.739 -0.2395 -0.2419 -0.4831
17073TIP3    H172634   0.805   2.197   0.774 -0.0556  0.0316  0.2411
17073TIP3    H272635   0.893   2.320   0.779 -1.8106  1.2742  1.4292
17074TIP3   OH272636   6.771   5.945  13.461 -0.7405 -0.4476 -0.2999
17074TIP3    H172637   6.837   5.938  13.391 -0.1990 -0.7984  0.2425
17074TIP3    H272638   6.818   5.986  13.533 -1.6906  1.2417 -0.6341
17075TIP3   OH272639   6.066   4.929  13.878 -0.2767 -0.2481  0.0104
17075TIP3    H172640   6.065   4.842  13.838 -1.0313 -0.4190  0.3934
17075TIP3    H272641   6.106   4.985  13.812 -0.6954 -0.6957 -0.6297
17076TIP3   OH272642   1.758   1.701   1.345  0.0251 -0.1273  0.2608
17076TIP3    H172643   1.668   1.672   1.355  0.0889 -0.2131  0.5866
17076TIP3    H272644   1.811   1.624   1.365  0.1298 -0.6469 -1.9692
17077TIP3   OH272645   6.574   3.891   2.677 -0.4220 -0.0202  0.4933
17077TIP3    H172646   6.558   3.852   2.591  1.4958  0.0423  0.0789
17077TIP3    H272647   6.561   3.985   2.663  0.3113  0.0394  0.1334
17078TIP3   OH272648   4.738   0.465   0.566  0.7683 -0.3357 -0.1387
17078TIP3    H172649   4.827   0.430   0.560  0.6502 -0.5258 -0.8736
17078TIP3    H272650   4.687   0.412   0.505  0.2767  0.1653 -0.1686
17079TIP3   OH272651   6.357   2.839  15.432 -0.4542  0.0363  0.2263
17079TIP3    H172652   6.452   2.848  15.438 -0.1189 -2.6999 -0.3714
17079TIP3    H272653   6.337   2.853  15.340 -0.5029 -0.4113  0.1689
17080TIP3   OH272654   2.880   2.820   3.340  0.3134 -0.5849 -0.1148
17080TIP3    H172655   2.889   2.763   3.263 -1.3527 -0.3636 -0.4979
17080TIP3    H272656   2.888   2.909   3.305 -0.9351 -0.4654 -0.1329
17081TIP3   OH272657   3.967   1.551  13.898 -0.0293  0.6970 -0.7081
17081TIP3    H172658   3.991   1.537  13.989 -1.6782 -0.2912 -0.4049
17081TIP3    H272659   3.873   1.570  13.900 -0.2821 -0.2918 -2.2743
17082TIP3   OH272660   2.103   1.927  15.025  0.3810 -0.3251  0.0721
17082TIP3    H172661   2.032   1.930  15.089 -0.8082  0.5148 -1.2570
17082TIP3    H272662   2.067   1.877  14.952  1.3762 -0.4185 -0.3605
17083TIP3   OH272663   4.580   4.032   5.635  0.3195  0.0728  0.9658
17083TIP3    H172664   4.572   4.112   5.686  1.0739  0.2105  0.8811
17083TIP3    H272665   4.587   3.962   5.700  1.9064  0.3102  1.0844
17084TIP3   OH272666   2.590   2.554   4.294 -0.0964 -0.1242 -0.1320
17084TIP3    H172667   2.638   2.637   4.299 -3.5627  1.9146  1.0116
17084TIP3    H272668   2.583   2.536   4.200  2.9012 -0.5282 -0.3223
17085TIP3   OH272669   0.665   5.473   1.439 -0.6972 -0.2553  0.3581
17085TIP3    H172670   0.748   5.517   1.424 -0.4163 -0.8295  0.1882
17085TIP3    H272671   0.655   5.470   1.534  0.4341 -1.9294  0.4398
17086TIP3   OH272672   4.835   4.810   2.266  0.2682 -0.1255  0.1703
17086TIP3    H172673   4.775   4.737   2.250  2.0607 -1.5076 -0.3461
17086TIP3    H272674   4.895   4.809   2.192  0.1906  2.0326  0.0470
17087TIP3   OH272675   0.285   4.378   5.401 -0.4768 -0.2908 -0.1317
17087TIP3    H172676   0.377   4.357   5.420 -0.8137 -1.8560 -0.1594
17087TIP3    H272677   0.240   4.294   5.404 -1.9809  0.5069  0.1915
17088TIP3   OH272678   3.340   3.672  11.178  0.2445 -0.2990  0.4354
17088TIP3    H172679   3.395   3.736  11.133 -0.6870  0.7007  0.7075
17088TIP3    H272680   3.323   3.711  11.264  2.8931 -2.6463  2.1429
17089TIP3   OH272681   6.390   4.139   1.452  0.0903  0.0041  0.2104
17089TIP3    H172682   6.437   4.217   1.480 -1.0234  0.6523  0.2931
17089TIP3    H272683   6.435   4.111   1.373 -0.0871  1.2811 -0.3524
17090TIP3   OH272684   0.114   6.687  13.785  0.6328 -0.8417 -0.1217
17090TIP3    H172685   0.077   6.695  13.697  3.0104  0.1398 -1.0884
17090TIP3    H272686   0.170   6.610  13.780 -0.8434 -2.0043  1.1573
17091TIP3   OH272687   4.871   6.179   5.526 -0.3764  0.2150  0.1963
17091TIP3    H172688   4.793   6.229   5.502 -1.5896 -1.2048  1.0868
17091TIP3    H272689   4.854   6.149   5.615  1.0007 -0.4636  0.2497
17092TIP3   OH272690   6.687   2.014   0.232 -0.2118 -0.4009  0.1098
17092TIP3    H172691   6.742   2.017   0.310  1.0886  0.7438 -0.8144
17092TIP3    H272692   6.673   2.106   0.209 -0.8336 -0.7243 -0.8208
17093TIP3   OH272693   5.294   2.989  14.690  0.2670  0.1681 -0.6391
17093TIP3    H172694   5.373   3.020  14.646  0.7179 -0.7814 -0.5108
17093TIP3    H272695   5.231   3.060  14.679  0.7341  0.4063 -1.8374
17094TIP3   OH272696   6.613   4.314  12.886 -0.4778  0.0805  0.1360
17094TIP3    H172697   6.519   4.332  12.884 -0.3597  1.0490  1.9584
17094TIP3    H272698   6.653   4.399  12.905  0.5289 -0.9300  2.6754
17095TIP3   OH272699   6.708   3.540   1.948  0.1026  0.4803  0.4162
17095TIP3    H172700   6.722   3.508   2.037 -0.2436  1.5609  0.8709
17095TIP3    H272701   6.754   3.624   1.945  0.7688  0.0824 -0.6671
17096TIP3   OH272702   3.755   1.412   1.879 -0.4279 -0.5039 -0.1964
17096TIP3    H172703   3.692   1.433   1.811 -1.2761 -0.4379  0.5977
17096TIP3    H272704   3.834   1.385   1.832 -0.4087  1.2813 -1.2065
17097TIP3   OH272705   5.578   0.469  12.377 -0.3962  0.2828 -0.1935
17097TIP3    H172706   5.626   0.401  12.424 -0.6952  1.5395  2.0248
17097TIP3    H272707   5.645   0.517  12.328 -0.1280 -1.2853 -1.4033
17098TIP3   OH272708   0.902   0.053   1.349 -0.2554  0.2764 -0.1769
17098TIP3    H172709   0.907  -0.040   1.325 -2.8991  0.2564 -0.7957
17098TIP3    H272710   0.993   0.081   1.355  0.6202 -2.7423  1.5717
17099TIP3   OH272711   2.023   4.810  11.916 -0.1121  0.1162 -0.0104
17099TIP3    H172712   1.984   4.820  11.830  1.0181  1.4185 -0.3849
17099TIP3    H272713   1.953   4.835  11.977 -0.3546  0.9730 -0.6236
17100TIP3   OH272714   4.003   3.176  17.010  0.0489  0.1608 -0.7227
17100TIP3    H172715   4.091   3.213  17.022  0.1571 -0.1293 -0.6304
17100TIP3    H272716   3.947   3.253  17.000 -0.2249  0.5076  2.6610
17101TIP3   OH272717   1.536   3.057   4.019 -0.2795  0.2687 -0.8524
17101TIP3    H172718   1.595   3.128   3.994  1.2080 -1.0421 -1.1736
17101TIP3    H272719   1.480   3.095   4.087  1.4890  1.3180  0.0590
17102TIP3   OH272720   5.440   3.706  17.202 -0.3772 -0.3244 -0.0313
17102TIP3    H172721   5.361   3.665  17.167 -1.0946  0.2603  0.8839
17102TIP3    H272722   5.422   3.717  17.295  1.1260 -0.9848  0.3658
17103TIP3   OH272723   6.011   6.102   0.604 -0.4200  0.2427 -0.4219
17103TIP3    H172724   5.939   6.042   0.624 -1.1462  0.2341 -2.8427
17103TIP3    H272725   6.027   6.149   0.685 -1.5318 -1.4716  0.8209
17104TIP3   OH272726   2.593   2.190   0.733  0.0254 -0.3091  0.0739
17104TIP3    H172727   2.626   2.124   0.673  0.0987  0.0145 -0.2430
17104TIP3    H272728   2.608   2.274   0.688  2.8198  0.1769  1.7622
17105TIP3   OH272729   6.056   6.157   1.743  1.0057 -0.0607  0.1569
17105TIP3    H172730   6.017   6.136   1.828  2.1000  0.6122  0.8227
17105TIP3    H272731   5.985   6.200   1.695  0.7619  0.7254  1.1976
17106TIP3   OH272732   1.176   1.067   2.841  0.1229 -0.0606 -0.2577
17106TIP3    H172733   1.141   1.080   2.929 -0.7368  1.8378 -0.8608
17106TIP3    H272734   1.103   1.031   2.791  0.5402 -0.9048 -0.2762
17107TIP3   OH272735   5.349   3.100   3.936  0.2038 -0.0980 -0.1810
17107TIP3    H172736   5.350   3.108   4.031 -1.6341  0.6799 -0.1972
17107TIP3    H272737   5.282   3.034   3.918  0.0847  0.2187 -0.9493
17108TIP3   OH272738   1.435   0.491  14.983 -0.0617 -0.3333  0.4978
17108TIP3    H172739   1.357   0.446  14.951 -1.1682  0.7716  1.6169
17108TIP3    H272740   1.402   0.560  15.040  1.7115  0.4746  0.5901
17109TIP3   OH272741   1.861   5.439  14.196  0.0857 -0.5730  0.2406
17109TIP3    H172742   1.837   5.347  14.202 -0.2633 -0.3211  3.2747
17109TIP3    H272743   1.877   5.453  14.102 -1.7416 -3.2203 -0.5433
17110TIP3   OH272744   2.154   3.322  14.955  0.1634 -0.2157 -0.0220
17110TIP3    H172745   2.075   3.269  14.955  0.6358 -0.9304  0.4431
17110TIP3    H272746   2.212   3.280  14.892 -0.3173  1.0667 -1.3484
17111TIP3   OH272747   6.479   0.373  14.077  0.2495  0.6674 -0.1393
17111TIP3    H172748   6.432   0.443  14.031  0.2324  1.0691  0.4815
17111TIP3    H272749   6.519   0.417  14.152  0.3216  0.0230  0.2023
17112TIP3   OH272750   6.434   4.530  14.349  0.4331  0.9634 -0.0042
17112TIP3    H172751   6.493   4.539  14.423  0.5870 -0.5523  0.0685
17112TIP3    H272752   6.430   4.436  14.332 -2.7280  0.9301  0.6370
17113TIP3   OH272753   2.965   5.672  16.919 -0.5308 -0.0795 -0.3169
17113TIP3    H172754   2.917   5.608  16.866  0.1085 -0.7628 -0.0830
17113TIP3    H272755   3.042   5.693  16.866 -0.3537 -0.0781 -0.0551
17114TIP3   OH272756   4.553   3.688   3.884  0.1635 -0.2780 -0.1835
17114TIP3    H172757   4.460   3.666   3.878  0.0468  0.3921 -0.8906
17114TIP3    H272758   4.591   3.616   3.935 -0.6807 -0.7306 -0.1797
17115TIP3   OH272759   4.888   3.731  11.191  0.4316 -0.3270  0.1348
17115TIP3    H172760   4.947   3.800  11.160 -0.7918  1.1716  1.0104
17115TIP3    H272761   4.942   3.653  11.195  2.8911  1.3785  2.6658
17116TIP3   OH272762   0.883   6.557   4.727  0.2012  0.3789 -0.5448
17116TIP3    H172763   0.818   6.618   4.763  0.6280  1.8293 -2.1327
17116TIP3    H272764   0.842   6.471   4.732 -1.6892  1.2329 -1.1526
17117TIP3   OH272765   1.705   2.310  13.025  0.0005  0.0512  0.4390
17117TIP3    H172766   1.622   2.355  13.010 -0.1035 -0.6382 -1.1355
17117TIP3    H272767   1.771   2.369  12.987 -0.2630 -1.6899 -2.9590
17118TIP3   OH272768   0.983   1.451  16.891 -0.8348  0.1938  0.0247
17118TIP3    H172769   1.011   1.379  16.835 -0.3258  0.3106  0.1306
17118TIP3    H272770   0.981   1.527  16.833  1.5565  0.7189  0.5739
17119TIP3   OH272771   4.728   0.277  14.030 -0.0580 -0.4895 -0.1312
17119TIP3    H172772   4.659   0.279  13.963 -1.1338  0.8669  0.9785
17119TIP3    H272773   4.784   0.351  14.008 -0.7310  0.3033  0.7683
17120TIP3   OH272774   3.482   0.392   3.975  0.0346  0.0608  0.7868
17120TIP3    H172775   3.418   0.321   3.985  1.5823 -1.6680 -1.1053
17120TIP3    H272776   3.450   0.443   3.901  0.3995 -0.3104  0.3729
17121TIP3   OH272777   6.028   4.201  13.833 -0.1195  0.0765  0.7874
17121TIP3    H172778   5.940   4.163  13.842 -0.8239  1.2720 -0.8174
17121TIP3    H272779   6.079   4.133  13.791 -1.0601  0.4368 -0.9619
17122TIP3   OH272780   4.821   1.692   2.195 -0.4439 -0.1189 -0.5632
17122TIP3    H172781   4.863   1.763   2.147 -2.1716  1.0554 -0.3777
17122TIP3    H272782   4.735   1.682   2.155 -0.7835 -1.1309  0.3583
17123TIP3   OH272783   1.108   5.811  13.318  0.3939  0.5511 -0.2930
17123TIP3    H172784   1.056   5.858  13.383 -0.6666 -1.0839  0.0655
17123TIP3    H272785   1.083   5.851  13.234  0.5033  1.5160  0.1319
17124TIP3   OH272786   4.257   1.272   2.630  0.0414 -0.7192 -0.3101
17124TIP3    H172787   4.227   1.227   2.552  1.2486 -0.5015 -0.9195
17124TIP3    H272788   4.284   1.359   2.599  2.1469 -1.2169  0.0214
17125TIP3   OH272789   4.492   2.866  12.255 -0.0535  0.2949  0.4778
17125TIP3    H172790   4.519   2.955  12.277  0.1406  0.7620 -1.5312
17125TIP3    H272791   4.421   2.846  12.316 -1.3484  2.5128 -0.2378
17126TIP3   OH272792   4.546   4.474   0.140  0.1615 -0.7989  0.0330
17126TIP3    H172793   4.553   4.382   0.167  0.8128 -0.1496  2.1422
17126TIP3    H272794   4.488   4.514   0.204  0.1294  0.3407 -0.6978
17127TIP3   OH272795   4.192   5.147  16.174  0.3131  0.1384  0.2925
17127TIP3    H172796   4.141   5.078  16.215 -0.4057  0.2183 -0.4826
17127TIP3    H272797   4.163   5.227  16.218  0.7189  0.0285  0.7697
17128TIP3   OH272798   4.302   5.843   0.448 -0.7224  0.4611  0.1926
17128TIP3    H172799   4.248   5.873   0.521 -0.6009  1.2999 -0.0518
17128TIP3    H272800   4.323   5.923   0.400 -1.2092 -0.1471 -1.0388
17129TIP3   OH272801   5.557   4.488   4.248  0.8993  0.4432  0.1075
17129TIP3    H172802   5.465   4.488   4.223  1.1062 -0.5631 -0.6846
17129TIP3    H272803   5.562   4.428   4.323  1.0959 -0.3912 -0.5710
17130TIP3   OH272804   6.450   1.711   4.461  0.1859 -0.0811  0.1134
17130TIP3    H172805   6.508   1.783   4.483  0.8608 -0.5236 -0.2064
17130TIP3    H272806   6.362   1.745   4.478  0.4498  1.0721 -0.8124
17131TIP3   OH272807   6.187   4.293  16.375 -0.2906  0.0362  0.5575
17131TIP3    H172808   6.154   4.204  16.387 -0.9704  0.2008 -0.0205
17131TIP3    H272809   6.150   4.343  16.447  0.7872 -0.3255  1.3764
17132TIP3   OH272810   2.462   0.907  11.705 -0.0667  0.2042 -0.3444
17132TIP3    H172811   2.452   0.996  11.737 -0.5350 -0.0461  0.2107
17132TIP3    H272812   2.438   0.851  11.779  0.2670 -0.3863 -0.6715
17133TIP3   OH272813   4.338   5.112  11.245  0.5317 -0.2502  0.4863
17133TIP3    H172814   4.328   5.070  11.159 -0.4710  0.7411  0.1156
17133TIP3    H272815   4.364   5.202  11.225 -4.9412  1.6102  0.9743
17134TIP3   OH272816   2.882   2.774   3.756 -0.0277 -0.2062  0.3720
17134TIP3    H172817   2.940   2.850   3.759  2.8948 -2.2621 -1.1538
17134TIP3    H272818   2.815   2.797   3.691  1.3358  0.7345 -0.7097
17135TIP3   OH272819   4.545   4.456  12.078  0.4807 -0.1043  0.1557
17135TIP3    H172820   4.466   4.491  12.038  1.4825  1.1640 -0.7524
17135TIP3    H272821   4.615   4.477  12.016  1.1999 -3.3813 -0.2489
17136TIP3   OH272822   3.948   2.097  16.214  0.1465 -0.1266  0.9016
17136TIP3    H172823   3.930   2.176  16.163 -0.8087 -0.8836  0.0350
17136TIP3    H272824   3.996   2.128  16.291  0.3727  1.2091  0.2402
17137TIP3   OH272825   4.516   0.256   4.129 -0.7161  0.0970 -0.5364
17137TIP3    H172826   4.457   0.233   4.058  0.2721  0.9362 -1.6430
17137TIP3    H272827   4.579   0.317   4.090  0.3563 -0.0948  0.8280
17138TIP3   OH272828   0.267   3.657   6.440  0.3560  0.9515 -0.4862
17138TIP3    H172829   0.285   3.565   6.425  0.0528  1.0209 -1.2488
17138TIP3    H272830   0.347   3.702   6.412  0.5200  0.9208 -0.0742
17139TIP3   OH272831   2.907   0.775  11.887  0.3043 -0.4745 -0.3882
17139TIP3    H172832   2.899   0.782  11.792 -0.3223 -0.8074 -0.3625
17139TIP3    H272833   2.817   0.770  11.918  0.4392  1.4599  0.3699
17140TIP3   OH272834   1.559   2.733  11.073  1.1847 -0.0557  0.3171
17140TIP3    H172835   1.526   2.749  10.985  3.0183 -0.9789 -0.5534
17140TIP3    H272836   1.489   2.683  11.116  1.0287 -1.1413 -1.1742
17141TIP3   OH272837   5.431   4.665  11.463 -0.0171 -0.1910  0.1510
17141TIP3    H172838   5.372   4.622  11.524  0.1183 -0.0325  0.3969
17141TIP3    H272839   5.506   4.692  11.517  0.6195 -1.0461 -0.2931
17142TIP3   OH272840   4.176   4.828  15.126 -0.4344 -0.2373  0.7074
17142TIP3    H172841   4.165   4.733  15.123  0.9171 -0.4250  1.0167
17142TIP3    H272842   4.142   4.853  15.212 -0.4419 -0.5052  0.7837
17143TIP3   OH272843   0.765   3.860   1.898 -0.3189 -0.3661  0.3197
17143TIP3    H172844   0.679   3.821   1.914 -0.4536 -0.1654  0.0896
17143TIP3    H272845   0.759   3.896   1.810 -0.2531  0.3064  0.5830
17144TIP3   OH272846   4.498   5.608   2.532  0.6018 -0.5789 -0.2843
17144TIP3    H172847   4.475   5.686   2.482 -0.5398 -1.1821 -0.7135
17144TIP3    H272848   4.504   5.639   2.622 -0.7971 -0.1758 -0.3173
17145TIP3   OH272849   6.328   4.801   1.503  0.0254 -0.0835 -0.8338
17145TIP3    H172850   6.290   4.888   1.495 -1.5835 -0.6387  0.5982
17145TIP3    H272851   6.303   4.771   1.590  3.8129 -0.4507  0.2119
17146TIP3   OH272852   1.399   4.346  15.883 -0.4587  0.7351 -0.1168
17146TIP3    H172853   1.457   4.288  15.933  1.5681  2.1734 -0.7613
17146TIP3    H272854   1.407   4.431  15.926 -4.1439  0.4133  1.4051
17147TIP3   OH272855   4.489   0.518  13.242  0.3395 -0.0001 -0.1180
17147TIP3    H172856   4.420   0.523  13.308  0.0634  1.0700 -0.4778
17147TIP3    H272857   4.535   0.436  13.262 -0.3832 -0.2062  0.7578
17148TIP3   OH272858   2.299   0.493   0.500 -0.0900 -0.8744 -0.3744
17148TIP3    H172859   2.206   0.483   0.516  0.0917 -0.1643  1.1967
17148TIP3    H272860   2.332   0.403   0.492 -0.6214 -1.1829  0.7919
17149TIP3   OH272861   6.767   1.643   1.621  0.2578 -0.2667 -0.2172
17149TIP3    H172862   6.788   1.708   1.687 -1.8629  0.4634 -0.2428
17149TIP3    H272863   6.773   1.559   1.666  0.0601  0.1447  0.5702
17150TIP3   OH272864   3.299   5.471   0.320 -0.0643 -0.0666  0.0218
17150TIP3    H172865   3.258   5.397   0.276 -0.2534  1.0673 -1.7789
17150TIP3    H272866   3.392   5.464   0.297 -0.6086  2.2556 -3.2419
17151TIP3   OH272867   3.770   5.790   5.655 -0.2112  0.0697 -0.2251
17151TIP3    H172868   3.677   5.783   5.679 -0.5523  2.2805 -0.7912
17151TIP3    H272869   3.769   5.822   5.565  1.0872  2.7941  0.6801
17152TIP3   OH272870   3.625   5.312  11.664  0.1474  0.1693 -0.5443
17152TIP3    H172871   3.589   5.316  11.576 -0.9402  1.4965 -0.0503
17152TIP3    H272872   3.574   5.244  11.708  1.5192 -1.3767 -1.2875
17153TIP3   OH272873   2.474   3.740  16.559 -0.2014  0.0732  0.6390
17153TIP3    H172874   2.464   3.679  16.631 -1.9518 -1.5871 -0.9456
17153TIP3    H272875   2.555   3.713  16.515 -1.4541 -1.7715 -0.6134
17154TIP3   OH272876   5.274   1.953   0.594 -1.0277  0.1666 -0.6559
17154TIP3    H172877   5.203   1.903   0.553 -1.4775  0.4234 -0.2035
17154TIP3    H272878   5.242   1.969   0.683 -0.8583  1.2106 -0.7788
17155TIP3   OH272879   4.916   5.463   1.899  0.8815 -0.2927 -0.1713
17155TIP3    H172880   4.835   5.434   1.856  0.5785  1.5816 -0.9074
17155TIP3    H272881   4.942   5.389   1.954 -1.5785 -0.7543  0.4145
17156TIP3   OH272882   2.581   0.754   3.691  0.5162  0.0471  0.0937
17156TIP3    H172883   2.658   0.790   3.647 -0.2085 -0.7413 -1.9097
17156TIP3    H272884   2.545   0.828   3.740  2.2889  0.5356  0.6940
17157TIP3   OH272885   0.384   5.456  15.828  0.1370 -0.0241 -0.1925
17157TIP3    H172886   0.406   5.549  15.836  2.0742 -0.5728  1.2854
17157TIP3    H272887   0.413   5.433  15.739  2.5468  0.1012  0.5099
17158TIP3   OH272888   5.883   2.460   0.667  0.3297 -0.4676  0.5458
17158TIP3    H172889   5.831   2.496   0.738  0.3937 -1.1574  0.9504
17158TIP3    H272890   5.842   2.376   0.647 -1.0884  0.7396 -1.8066
17159TIP3   OH272891   1.181   1.525   2.879  0.3811 -0.2446 -0.0438
17159TIP3    H172892   1.201   1.473   2.956  1.4685  0.3701  0.0891
17159TIP3    H272893   1.112   1.585   2.908  0.8276  0.0245  0.4678
17160TIP3   OH272894   1.871   5.516  16.100  0.0438  0.5449 -0.2657
17160TIP3    H172895   1.779   5.499  16.122 -0.0953  1.8558  0.2190
17160TIP3    H272896   1.896   5.443  16.044 -0.7638 -0.8036  1.0808
17161TIP3   OH272897   6.233   3.212  14.280 -0.2588 -0.5404  0.7670
17161TIP3    H172898   6.316   3.233  14.322 -0.0462  1.4114 -0.5447
17161TIP3    H272899   6.178   3.289  14.294 -0.3932 -0.0765 -1.9092
17162TIP3   OH272900   1.824   3.048  15.588  0.2541 -0.8119 -0.3757
17162TIP3    H172901   1.812   3.050  15.493 -0.0648 -0.7570 -0.3349
17162TIP3    H272902   1.804   2.958  15.613  0.0576 -0.7546 -0.3253
17163TIP3   OH272903   0.573   3.976  13.269 -0.1570  0.2610 -0.3680
17163TIP3    H172904   0.568   3.899  13.213 -0.0893 -0.5172  0.6707
17163TIP3    H272905   0.667   3.992  13.280 -0.1682  0.3330 -0.3738
17164TIP3   OH272906   1.086   5.363  14.823  0.3437  0.0840 -0.0218
17164TIP3    H172907   1.076   5.268  14.816  0.0679  0.0249  1.0524
17164TIP3    H272908   1.027   5.399  14.757 -0.5255 -0.4684  0.4413
17165TIP3   OH272909   0.454   1.937   1.009  0.5451 -0.7479  0.0456
17165TIP3    H172910   0.478   1.852   0.973 -0.1305 -0.0050 -2.1882
17165TIP3    H272911   0.360   1.929   1.027  0.0075  0.2237 -2.2131
17166TIP3   OH272912   3.368   0.337   3.688 -0.0268 -0.0660 -0.3434
17166TIP3    H172913   3.449   0.301   3.727  0.1357  1.3750  0.6698
17166TIP3    H272914   3.388   0.344   3.595  1.7840  2.2445  0.1814
17167TIP3   OH272915   2.971   2.900  14.444 -0.3884  0.7669 -0.9333
17167TIP3    H172916   3.038   2.905  14.512 -1.6295 -4.7053  1.0022
17167TIP3    H272917   2.907   2.966  14.468  1.6130  2.3004  0.3436
17168TIP3   OH272918   0.258   6.462  11.303 -0.1584 -0.5358 -0.5486
17168TIP3    H172919   0.165   6.450  11.322  0.2317 -0.5710  1.4567
17168TIP3    H272920   0.261   6.528  11.233 -1.6277  0.3637  0.2335
17169TIP3   OH272921   5.523   5.441   5.260  0.2276 -0.2201 -0.4795
17169TIP3    H172922   5.523   5.394   5.176 -1.2831 -2.4752  0.7339
17169TIP3    H272923   5.566   5.381   5.321 -0.2729  0.6481  0.7457
17170TIP3   OH272924   3.986   6.179  12.340 -0.1692 -0.3594 -0.2811
17170TIP3    H172925   3.956   6.188  12.431 -0.5036 -1.7747 -0.2355
17170TIP3    H272926   3.943   6.100  12.309  2.1508 -1.4549 -0.7953
17171TIP3   OH272927   4.791   4.570   0.227  0.0638 -0.5830  0.6289
17171TIP3    H172928   4.700   4.553   0.203 -0.0276  1.0635 -0.2013
17171TIP3    H272929   4.788   4.590   0.321 -0.4878 -0.1539  0.5196
17172TIP3   OH272930   0.923   5.026  14.047 -0.0940  0.6622 -0.2162
17172TIP3    H172931   0.921   4.942  14.001 -2.3177 -0.3134  1.5455
17172TIP3    H272932   1.006   5.027  14.093 -1.3342 -2.0297  2.2323
17173TIP3   OH272933   5.473   2.857   4.867  0.3335 -0.2258  0.4273
17173TIP3    H172934   5.416   2.799   4.917 -1.1290 -0.8149 -1.8117
17173TIP3    H272935   5.562   2.833   4.894 -0.4128  0.0887  3.3237
17174TIP3   OH272936   2.314   6.467  16.450  0.1953 -0.0360 -0.2544
17174TIP3    H172937   2.267   6.403  16.503 -0.5028 -0.0074 -0.8140
17174TIP3    H272938   2.359   6.415  16.383  0.1019  0.0129 -0.3573
17175TIP3   OH272939   1.885   5.918   5.351  0.0999  0.2249 -0.1739
17175TIP3    H172940   1.794   5.904   5.379  0.0015 -1.5084 -1.2510
17175TIP3    H272941   1.932   5.939   5.432 -1.0221 -0.1383  0.5848
17176TIP3   OH272942   2.427   3.147   3.564 -0.0280  0.1200  0.0316
17176TIP3    H172943   2.349   3.200   3.579  0.3521  0.5018  0.7259
17176TIP3    H272944   2.476   3.153   3.646  0.7911 -0.0083 -0.4398
17177TIP3   OH272945   0.254   2.980   0.883 -0.0460  0.0927 -0.2109
17177TIP3    H172946   0.189   2.953   0.818 -0.3216  0.2027  0.0188
17177TIP3    H272947   0.307   2.902   0.899  0.4820  0.2564 -1.1070
17178TIP3   OH272948   4.867   1.943   3.503  0.3755  0.1758  0.5180
17178TIP3    H172949   4.784   1.921   3.460  0.2793 -0.5172  1.0397
17178TIP3    H272950   4.850   2.026   3.546 -0.6179 -0.7936  2.0868
17179TIP3   OH272951   3.304   1.570  12.095  0.4255  0.2231 -0.5150
17179TIP3    H172952   3.218   1.580  12.055  0.1147  1.8953  0.5007
17179TIP3    H272953   3.304   1.482  12.131 -1.2125  0.5299  0.2674
17180TIP3   OH272954   1.880   4.600  16.716  0.0279 -0.1377  0.9171
17180TIP3    H172955   1.891   4.690  16.688 -1.3841  0.5576  2.5102
17180TIP3    H272956   1.852   4.553  16.637 -1.4784  1.2761  0.5942
17181TIP3   OH272957   4.496   3.362   3.478 -0.3613 -0.1459  0.3494
17181TIP3    H172958   4.458   3.280   3.510 -1.7885  0.3037 -0.1637
17181TIP3    H272959   4.441   3.430   3.516  0.4302  0.5598  0.2465
17182TIP3   OH272960   2.406   5.702  16.803  0.9262  0.2749 -0.2335
17182TIP3    H172961   2.458   5.778  16.826  0.4785  0.2009  1.0417
17182TIP3    H272962   2.324   5.738  16.768  1.1304  0.3809 -0.6057
17183TIP3   OH272963   0.737   2.659  15.867 -0.6148  0.1452  0.6637
17183TIP3    H172964   0.828   2.680  15.886 -0.0517 -1.8548  0.2625
17183TIP3    H272965   0.710   2.726  15.804  0.1654  1.5087  1.7389
17184TIP3   OH272966   0.218   3.636   2.595  0.0191  0.3843 -0.9934
17184TIP3    H172967   0.133   3.664   2.629 -0.4062 -0.2069 -1.5525
17184TIP3    H272968   0.258   3.590   2.669  0.7872  2.5444 -0.0180
17185TIP3   OH272969   3.395   1.007   3.119 -0.4321  0.1897  0.6857
17185TIP3    H172970   3.358   0.939   3.176 -0.3854 -1.0007 -0.6462
17185TIP3    H272971   3.463   0.961   3.069 -2.0459  0.5458 -1.9864
17186TIP3   OH272972   2.447   5.970  14.845 -0.0863  0.2930  0.2141
17186TIP3    H172973   2.444   6.052  14.797 -0.9265  1.2038  1.7649
17186TIP3    H272974   2.471   5.996  14.934 -1.5018 -0.9913  0.9924
17187TIP3   OH272975   4.794   4.517   3.205  0.1281 -0.1901  0.0814
17187TIP3    H172976   4.846   4.597   3.199  0.1603 -0.3331 -1.6192
17187TIP3    H272977   4.783   4.503   3.300  0.2496  1.7292  0.3976
17188TIP3   OH272978   0.764   1.314  12.798  0.5151 -0.2226  0.1237
17188TIP3    H172979   0.754   1.239  12.856 -0.0225  1.5063  2.3684
17188TIP3    H272980   0.709   1.382  12.837  2.7099  2.0477 -0.5510
17189TIP3   OH272981   0.591   1.349   4.768 -0.0856  0.4489 -0.4780
17189TIP3    H172982   0.652   1.346   4.694  0.3617  0.4573 -0.1187
17189TIP3    H272983   0.517   1.296   4.741  1.1547 -1.5802  0.0079
17190TIP3   OH272984   1.939   0.525  11.406 -0.0407  0.7040 -0.1560
17190TIP3    H172985   1.893   0.585  11.347 -0.5336  0.2241 -0.2598
17190TIP3    H272986   2.026   0.564  11.416  0.1115  0.7101 -1.3333
17191TIP3   OH272987   4.410   2.906  14.362  0.1458  0.0079 -0.0841
17191TIP3    H172988   4.316   2.909  14.382  0.3846 -1.4199  1.3447
17191TIP3    H272989   4.452   2.884  14.445  1.8693  1.9049 -0.4176
17192TIP3   OH272990   2.952   5.536  14.106  0.0166  0.3234  0.5331
17192TIP3    H172991   3.000   5.495  14.178  1.6013 -0.0652 -0.7300
17192TIP3    H272992   2.983   5.627  14.105  2.1946 -0.3940 -1.4739
17193TIP3   OH272993   0.107   2.650  12.667  0.1307 -0.2944 -0.7152
17193TIP3    H172994   0.020   2.617  12.689  1.0305 -1.6301  0.9466
17193TIP3    H272995   0.167   2.582  12.698  1.8354  1.2471 -0.5709
17194TIP3   OH272996   1.835   0.691  15.387 -0.3366 -0.0793 -0.1139
17194TIP3    H172997   1.813   0.784  15.400  1.3017  0.5257 -1.4559
17194TIP3    H272998   1.909   0.676  15.446 -1.3948 -0.8784  1.0202
17195TIP3   OH272999   3.502   1.168  16.616  0.5694 -0.0720  0.6986
17195TIP3    H173000   3.466   1.239  16.562  1.3301  0.3275  0.6971
17195TIP3    H273001   3.451   1.091  16.592  1.2633 -0.0207 -1.0283
17196TIP3   OH273002   5.647   1.495  13.339  0.7402  0.0689  0.4414
17196TIP3    H173003   5.635   1.525  13.249 -1.0354  0.3307  0.7400
17196TIP3    H273004   5.713   1.554  13.376 -0.3659  1.5872  0.0507
17197TIP3   OH273005   6.250   2.464  16.006  0.4351 -0.5009 -0.0586
17197TIP3    H173006   6.199   2.500  15.934 -1.8135  1.3748  2.3782
17197TIP3    H273007   6.340   2.461  15.973 -0.3589  1.3452 -2.5364
17198TIP3   OH273008   3.501   1.258  13.216 -1.0679  0.3157  0.0494
17198TIP3    H173009   3.511   1.308  13.296 -2.3907 -0.8213  0.9513
17198TIP3    H273010   3.407   1.244  13.207 -0.8790 -0.2734 -1.2549
17199TIP3   OH273011   0.782   1.324   6.181 -0.1533  0.1351  0.0961
17199TIP3    H173012   0.771   1.376   6.261 -0.2697 -0.7141  0.6397
17199TIP3    H273013   0.857   1.268   6.200  1.1270  1.3742 -1.1696
17200TIP3   OH273014   3.065   5.373  17.073  0.2741 -0.5721  0.6381
17200TIP3    H173015   3.070   5.287  17.031 -0.3877 -0.6132  0.6362
17200TIP3    H273016   2.988   5.368  17.130 -0.5364  0.4495 -0.3487
17201TIP3   OH273017   6.023   6.562   5.628  0.6015 -0.0089  0.4265
17201TIP3    H173018   6.090   6.630   5.634  0.4456  0.2375 -0.5781
17201TIP3    H273019   6.066   6.489   5.584  0.9884 -0.8610  2.1511
17202TIP3   OH273020   1.642   4.593   5.308 -0.9921  0.6509 -0.2384
17202TIP3    H173021   1.681   4.569   5.392 -3.1278  1.1175  0.9213
17202TIP3    H273022   1.679   4.531   5.246  1.9862  1.4226  0.7170
17203TIP3   OH273023   0.797   0.572   4.756  0.2345 -0.0209  0.3540
17203TIP3    H173024   0.874   0.581   4.700  0.2416 -0.3500  0.3065
17203TIP3    H273025   0.775   0.661   4.781 -1.5028  0.4235 -2.5104
17204TIP3   OH273026   6.746   6.045  15.090 -0.1879 -0.0118  0.1141
17204TIP3    H173027   6.813   6.007  15.034 -0.2100 -1.7838  1.2360
17204TIP3    H273028   6.691   5.970  15.115 -2.7343  1.3983 -0.9576
17205TIP3   OH273029   0.586   0.045   2.108 -0.0965  0.7403  0.5563
17205TIP3    H173030   0.596  -0.026   2.171  0.2520 -0.2488 -0.5835
17205TIP3    H273031   0.658   0.032   2.046  0.6293  2.7501  0.9542
17206TIP3   OH273032   5.240   3.270  14.032  0.2635 -0.0850  0.1713
17206TIP3    H173033   5.276   3.350  14.069  1.7230 -1.1396  1.1196
17206TIP3    H273034   5.190   3.298  13.956  0.8294  1.7042  0.4444
17207TIP3   OH273035   1.040   6.085  16.972 -0.2120  1.0163  0.3112
17207TIP3    H173036   1.112   6.128  17.019  0.5886 -0.5619  0.5479
17207TIP3    H273037   1.000   6.155  16.921  2.2578  1.6752 -0.7832
17208TIP3   OH273038   6.206   1.097  13.095 -0.1569  0.0319 -0.0236
17208TIP3    H173039   6.263   1.053  13.032 -1.5292 -2.0326  0.1306
17208TIP3    H273040   6.229   1.058  13.179 -0.1213  0.9417  0.3945
17209TIP3   OH273041   2.604   2.467   5.227 -0.0818 -0.0814  0.0659
17209TIP3    H173042   2.642   2.524   5.161  0.4341 -0.3309  0.1508
17209TIP3    H273043   2.622   2.379   5.197  2.1916 -0.2210  1.6917
17210TIP3   OH273044   2.437   5.798  11.364 -0.2652  0.1325  0.4708
17210TIP3    H173045   2.376   5.782  11.292  1.2716  0.4219 -0.9045
17210TIP3    H273046   2.380   5.820  11.438 -1.8984 -0.8578 -0.4448
17211TIP3   OH273047   3.872   4.330   2.221 -0.1544 -0.5259  0.5578
17211TIP3    H173048   3.939   4.267   2.249 -1.0360 -1.5342  0.4529
17211TIP3    H273049   3.829   4.357   2.303  2.4084  2.5040  0.9570
17212TIP3   OH273050   4.469   0.409  14.067  0.4342  0.3493  0.4041
17212TIP3    H173051   4.549   0.414  14.118  0.9345 -1.1136 -0.2264
17212TIP3    H273052   4.438   0.319  14.077 -1.4456  1.0395  1.0992
17213TIP3   OH273053   5.683   4.628   3.676 -0.3577  0.2650 -0.7248
17213TIP3    H173054   5.773   4.602   3.694  0.3565  2.2698 -1.2238
17213TIP3    H273055   5.665   4.594   3.588  0.2244  0.5837 -0.9734
17214TIP3   OH273056   4.963   1.955  13.831 -0.0299 -0.3797 -0.8784
17214TIP3    H173057   4.880   1.997  13.805 -0.1028 -0.2102 -0.3684
17214TIP3    H273058   5.016   2.027  13.864 -0.9343 -0.9845  2.0195
17215TIP3   OH273059   4.494   1.564   5.414 -0.0018 -0.0159  0.3420
17215TIP3    H173060   4.502   1.469   5.412  0.5437  0.0343  0.0018
17215TIP3    H273061   4.548   1.591   5.489  0.3983  0.0737  0.0257
17216TIP3   OH273062   6.230   1.600   1.627 -0.3230  0.5804  0.7176
17216TIP3    H173063   6.254   1.685   1.590 -0.0324  1.0426  1.9356
17216TIP3    H273064   6.199   1.621   1.716 -1.9814 -0.3870  0.3843
17217TIP3   OH273065   1.539   6.703   5.458  0.0995 -0.1880  0.2827
17217TIP3    H173066   1.588   6.620   5.464  1.2792  0.4379 -0.4825
17217TIP3    H273067   1.583   6.761   5.521 -0.9145 -0.2160  1.0385
17218TIP3   OH273068   4.664   1.967  14.322 -0.6401  0.1784 -0.3520
17218TIP3    H173069   4.705   1.998  14.241 -0.1851 -0.8387 -0.5187
17218TIP3    H273070   4.671   1.871  14.317 -0.2785  0.1208  1.0703
17219TIP3   OH273071   4.677   4.463   5.426  0.4463  0.6451 -0.2918
17219TIP3    H173072   4.647   4.381   5.387  0.7230  1.3003 -1.9312
17219TIP3    H273073   4.597   4.515   5.435  0.2899  0.2641  0.6287
17220TIP3   OH273074   5.732   2.814   0.544 -0.5005 -0.4176 -0.0813
17220TIP3    H173075   5.803   2.791   0.606 -0.3635 -0.7951 -0.3739
17220TIP3    H273076   5.657   2.834   0.600 -0.1441  0.0425  0.2332
17221TIP3   OH273077   1.140   3.093   2.331 -0.2091 -0.0356 -0.4568
17221TIP3    H173078   1.096   3.144   2.399  0.9565 -1.3427  1.2891
17221TIP3    H273079   1.229   3.128   2.328 -0.2965  0.1207 -1.4244
17222TIP3   OH273080   3.327   2.888  12.676  0.3468 -0.2658 -0.1765
17222TIP3    H173081   3.340   2.842  12.759  0.3100  0.9823  0.5350
17222TIP3    H273082   3.232   2.885  12.662 -0.1946  3.2516  2.0613
17223TIP3   OH273083   3.948   4.351   2.652  0.2857 -0.0354  0.2178
17223TIP3    H173084   4.022   4.397   2.611  0.2479  0.2116  0.4191
17223TIP3    H273085   3.906   4.418   2.706  0.5141 -0.4213  0.8913
17224TIP3   OH273086   6.561   6.211   5.697 -0.3447 -0.2781  0.5823
17224TIP3    H173087   6.477   6.257   5.703 -0.9705 -1.1162 -1.3373
17224TIP3    H273088   6.540   6.120   5.717 -0.3116 -0.8762 -1.9143
17225TIP3   OH273089   1.664   1.288   2.013  0.6431  0.0304  0.5194
17225TIP3    H173090   1.759   1.284   2.014  0.6347 -0.6772 -1.0112
17225TIP3    H273091   1.636   1.212   2.064  0.8930 -0.0871  0.4827
17226TIP3   OH273092   1.507   2.743   5.300  0.2816  0.4332  0.4329
17226TIP3    H173093   1.517   2.819   5.243  0.4675  0.4498  0.4860
17226TIP3    H273094   1.575   2.754   5.367  0.4972  0.0724  0.2759
17227TIP3   OH273095   5.804   0.741  11.707  0.5142  0.0735  0.1398
17227TIP3    H173096   5.839   0.703  11.626  0.9233 -1.8444  1.1791
17227TIP3    H273097   5.753   0.670  11.746 -0.4700  1.2888  1.1009
17228TIP3   OH273098   5.129   5.956   2.997 -0.0006  0.1430 -0.3498
17228TIP3    H173099   5.101   6.015   2.927 -1.2374  1.5018  1.2619
17228TIP3    H273100   5.081   5.875   2.981  1.1402 -0.2129 -2.1383
17229TIP3   OH273101   1.597   0.882   2.648  0.0029  0.0468  0.2385
17229TIP3    H173102   1.592   0.974   2.622 -0.2873 -0.2709 -0.8419
17229TIP3    H273103   1.518   0.868   2.701 -2.4054 -0.7516 -3.3891
17230TIP3   OH273104   4.507   0.005   3.817  0.3612 -0.0174  0.5297
17230TIP3    H173105   4.570  -0.067   3.812  1.1397  0.5838  1.6245
17230TIP3    H273106   4.483   0.011   3.909  0.0592  0.9162  0.3997
17231TIP3   OH273107   6.538   3.027   0.023 -0.4791  0.3688 -0.1462
17231TIP3    H173108   6.446   3.026  -0.006 -0.3922  0.4709 -0.4304
17231TIP3    H273109   6.565   3.118   0.012 -0.9106  0.7353  1.7614
17232TIP3   OH273110   6.314   1.735   3.569  0.7395  0.2219  0.3405
17232TIP3    H173111   6.404   1.720   3.538  1.5235 -1.0685  3.0673
17232TIP3    H273112   6.282   1.648   3.591 -1.0447  0.7341 -0.1848
17233TIP3   OH273113   1.668   1.112   6.733 -0.0962 -0.5335 -0.5992
17233TIP3    H173114   1.679   1.207   6.723  0.8792 -0.6773 -0.8885
17233TIP3    H273115   1.723   1.074   6.665  0.9824 -1.3551  0.7146
17234TIP3   OH273116   3.284   2.007   3.524 -0.4696 -0.0658 -0.2315
17234TIP3    H173117   3.280   2.103   3.517  0.4164  0.0749  1.0592
17234TIP3    H273118   3.375   1.988   3.547 -0.5308 -1.2609 -0.9078
17235TIP3   OH273119   5.611   0.057  11.783 -0.1863 -0.1619 -0.0351
17235TIP3    H173120   5.609  -0.010  11.851  1.5419 -0.0284  0.1583
17235TIP3    H273121   5.704   0.071  11.766 -0.5989 -0.3107 -2.5374
17236TIP3   OH273122   1.697   3.704   2.410 -0.0803  0.4543  0.5143
17236TIP3    H173123   1.700   3.611   2.433  4.5583  0.1253 -0.9643
17236TIP3    H273124   1.624   3.711   2.349 -0.2865 -2.2965  0.3656
17237TIP3   OH273125   1.173   4.389  15.156  0.0009 -0.1606 -0.3974
17237TIP3    H173126   1.186   4.470  15.106  0.7972  0.3951  0.7056
17237TIP3    H273127   1.179   4.320  15.090 -1.6213  0.7135 -1.5026
17238TIP3   OH273128   4.734   0.693   3.668 -0.4943 -0.1150 -0.1423
17238TIP3    H173129   4.826   0.668   3.669 -0.8705 -1.5198  0.3460
17238TIP3    H273130   4.710   0.702   3.760 -1.0164 -0.4207 -0.2468
17239TIP3   OH273131   1.073   1.404   0.036 -0.6102  0.2149  0.1302
17239TIP3    H173132   1.163   1.370   0.034 -0.4402  0.6872 -0.9855
17239TIP3    H273133   1.083   1.496   0.060 -0.6216  0.7373 -1.7992
17240TIP3   OH273134   4.944   1.006   3.177  0.1332 -0.4363 -0.1713
17240TIP3    H173135   4.855   1.000   3.211 -0.3196 -1.4161 -1.4980
17240TIP3    H273136   4.934   1.013   3.082  1.4283  0.8976 -0.2329
17241TIP3   OH273137   6.097   5.961  17.108 -0.0355 -0.1283 -0.2321
17241TIP3    H173138   6.137   5.884  17.149  0.5350 -0.1062 -0.7438
17241TIP3    H273139   6.124   6.035  17.162 -0.6526 -0.2946  0.3083
17242TIP3   OH273140   4.094   0.436  16.264 -0.6231 -0.1291  0.4750
17242TIP3    H173141   4.123   0.410  16.351  1.0527  2.3317  0.6820
17242TIP3    H273142   4.068   0.354  16.222  1.2070 -1.6883  2.3051
17243TIP3   OH273143   3.912   5.051  16.213 -0.0455  0.2829 -0.3980
17243TIP3    H173144   3.849   5.121  16.227 -1.0761 -0.5696 -0.7458
17243TIP3    H273145   3.948   5.033  16.300 -2.7010 -1.4831  0.4108
17244TIP3   OH273146   2.367   1.609  15.316  0.1842  0.1617  0.2486
17244TIP3    H173147   2.416   1.567  15.387  0.6709  0.9804  0.4121
17244TIP3    H273148   2.275   1.590  15.336  0.3947 -0.8441  0.2894
17245TIP3   OH273149   0.112   5.610   5.396  0.4665  0.5998 -0.0303
17245TIP3    H173150   0.186   5.668   5.379  0.2955  1.3080  1.5016
17245TIP3    H273151   0.151   5.523   5.407  1.0872  0.9940  0.9142
17246TIP3   OH273152   1.682   5.946   3.225 -0.4358  0.4009 -1.0152
17246TIP3    H173153   1.698   5.852   3.225  3.8703  1.0254 -1.3074
17246TIP3    H273154   1.661   5.968   3.315 -3.7011 -1.1044 -1.3518
17247TIP3   OH273155   5.700   5.935  12.269 -0.2289 -0.6999  0.1639
17247TIP3    H173156   5.780   5.919  12.220  0.4045 -1.2056  1.3439
17247TIP3    H273157   5.700   5.868  12.338 -1.0075  0.1043  0.9638
17248TIP3   OH273158   4.369   5.382  11.200  0.1069  0.2411 -0.0058
17248TIP3    H173159   4.405   5.390  11.111 -1.2765  1.5158 -0.4640
17248TIP3    H273160   4.343   5.471  11.223 -1.9524 -0.5161  0.6618
17249TIP3   OH273161   6.785   4.936   4.144 -0.3346 -0.0478 -0.1476
17249TIP3    H173162   6.841   4.971   4.213  0.1595  1.1621 -1.1473
17249TIP3    H273163   6.845   4.910   4.074 -0.9394  0.3959 -0.8459
17250TIP3   OH273164   4.138   6.209  13.655  0.8127 -0.4527 -0.1650
17250TIP3    H173165   4.125   6.174  13.566 -2.9832  2.5365 -0.9540
17250TIP3    H273166   4.196   6.284  13.643  1.0666 -0.6188  0.0293
17251TIP3   OH273167   0.377   4.328   3.661 -1.0129 -0.2421 -0.5715
17251TIP3    H173168   0.436   4.393   3.699  1.1168 -3.2482  1.4355
17251TIP3    H273169   0.370   4.352   3.569  0.7812  2.0296 -0.1385
17252TIP3   OH273170   5.777   1.568  12.240  0.8471  0.2500  0.2886
17252TIP3    H173171   5.839   1.581  12.312  1.4445 -1.8007  0.1920
17252TIP3    H273172   5.771   1.473  12.231 -0.9659  0.4475 -0.8876
17253TIP3   OH273173   6.367   1.140  16.491  0.3433 -0.2839  0.1835
17253TIP3    H173174   6.368   1.235  16.497  3.1209 -0.2486 -0.2681
17253TIP3    H273175   6.338   1.111  16.578 -0.7022  0.9638  0.2641
17254TIP3   OH273176   4.289   1.160  11.854 -0.4998 -0.0812 -0.4288
17254TIP3    H173177   4.384   1.160  11.866 -0.7055  0.0035  1.2283
17254TIP3    H273178   4.275   1.110  11.773  0.9504 -0.1030 -0.6742
17255TIP3   OH273179   6.699   4.979  13.686  0.0725 -0.3529  0.8293
17255TIP3    H173180   6.652   4.899  13.660  0.2450 -0.5134  1.0041
17255TIP3    H273181   6.749   5.003  13.609 -1.5616  0.7596  0.0935
17256TIP3   OH273182   3.855   2.423  16.391 -0.4300 -0.5514 -0.1682
17256TIP3    H173183   3.860   2.484  16.464 -4.0415 -1.6868  1.1325
17256TIP3    H273184   3.870   2.478  16.313  1.5643  0.9997  1.2641
17257TIP3   OH273185   4.319   5.821  16.054 -0.2628  0.1273  0.1404
17257TIP3    H173186   4.291   5.734  16.083 -0.3207 -0.1841 -0.8399
17257TIP3    H273187   4.414   5.820  16.065 -0.4217  0.4786  1.5664
17258TIP3   OH273188   4.856   2.131   3.061  0.1436 -0.0291 -0.5377
17258TIP3    H173189   4.895   2.218   3.049  1.7316 -0.7401 -0.6817
17258TIP3    H273190   4.931   2.071   3.059 -0.9566 -1.4176 -0.6243
17259TIP3   OH273191   4.977   4.271  11.618  0.2483  0.6113  0.7404
17259TIP3    H173192   5.021   4.189  11.639 -0.3662  0.1804  0.3443
17259TIP3    H273193   5.047   4.328  11.587  0.7216  0.3377  1.2823
17260TIP3   OH273194   3.741   6.154   4.153 -0.2399  0.5942 -0.3206
17260TIP3    H173195   3.681   6.224   4.178 -0.6613  0.5508 -1.1720
17260TIP3    H273196   3.782   6.127   4.235 -1.2073  0.7887  0.2418
17261TIP3   OH273197   4.396   2.772   0.044  0.0628  0.0843 -0.3499
17261TIP3    H173198   4.362   2.683   0.032 -0.4821  0.3240 -0.6256
17261TIP3    H273199   4.359   2.800   0.127  0.4130 -0.0272 -0.1560
17262TIP3   OH273200   0.936   2.496   3.041 -0.1008 -0.4802 -0.0813
17262TIP3    H173201   0.994   2.552   2.989 -0.6745  0.8288  0.6860
17262TIP3    H273202   0.906   2.429   2.979  1.1996 -0.4176 -0.8064
17263TIP3   OH273203   0.628   5.520  11.173 -0.1150 -0.6013  0.3944
17263TIP3    H173204   0.596   5.477  11.093 -0.1339 -0.0873  0.1261
17263TIP3    H273205   0.663   5.448  11.226  1.4072 -0.7388 -0.7767
17264TIP3   OH273206   2.375   0.377   5.403 -1.0179  0.2067 -0.1058
17264TIP3    H173207   2.371   0.344   5.314  0.6036  0.8593 -0.4388
17264TIP3    H273208   2.418   0.462   5.395  1.9916 -1.0664  1.6315
17265TIP3   OH273209   4.064   0.817  13.774 -0.5925  0.0683  0.3551
17265TIP3    H173210   4.079   0.812  13.869 -1.4996 -1.3004  0.4450
17265TIP3    H273211   4.075   0.909  13.753  2.6125 -0.0310  1.2959
17266TIP3   OH273212   0.528   4.138   6.043  0.1265 -0.0555  0.2816
17266TIP3    H173213   0.472   4.065   6.017  0.9771 -0.7900  0.4460
17266TIP3    H273214   0.474   4.216   6.032 -0.8013 -0.7152  0.1085
17267TIP3   OH273215   6.069   3.312  13.940 -0.4541  0.2561  0.5892
17267TIP3    H173216   6.063   3.217  13.934  1.0376  0.1502  0.7330
17267TIP3    H273217   6.162   3.330  13.950 -0.6768  1.7665  0.0412
17268TIP3   OH273218   4.407   5.092   3.560  1.3518  0.2888  0.1738
17268TIP3    H173219   4.416   5.039   3.481  0.9016  0.8775 -0.2768
17268TIP3    H273220   4.314   5.114   3.564  1.4848  0.7894  0.5277
17269TIP3   OH273221   2.348   4.128   0.640 -0.1593  1.2270  0.5753
17269TIP3    H173222   2.314   4.201   0.588 -1.5957 -0.8214 -1.4570
17269TIP3    H273223   2.423   4.097   0.589 -1.1766 -0.3832  0.0408
17270TIP3   OH273224   4.234   4.585  12.763  0.3328 -0.2657  0.3421
17270TIP3    H173225   4.283   4.524  12.818  0.9200 -0.0111  0.1100
17270TIP3    H273226   4.290   4.663  12.759 -0.1200  0.0482  0.1205
17271TIP3   OH273227   3.751   5.894  14.344  0.2264 -1.0350  0.1913
17271TIP3    H173228   3.790   5.875  14.259 -0.4265 -0.3999 -0.2544
17271TIP3    H273229   3.765   5.988  14.356  0.1130 -1.0796  0.6820
17272TIP3   OH273230   2.416   1.245   1.013  0.1684 -0.1307 -0.6650
17272TIP3    H173231   2.490   1.183   1.011 -0.3238 -0.6803 -2.4681
17272TIP3    H273232   2.395   1.260   0.921 -2.5751 -0.7010 -0.1642
17273TIP3   OH273233   6.630   2.399  13.678  0.0073  0.0466  0.2856
17273TIP3    H173234   6.549   2.441  13.708 -0.4577 -1.7198  1.6154
17273TIP3    H273235   6.684   2.393  13.756 -0.2024 -2.3495  0.2929
17274TIP3   OH273236   3.099   6.404  16.244  0.0160 -0.1195  0.0860
17274TIP3    H173237   3.071   6.314  16.224  0.0212 -0.2664  0.7325
17274TIP3    H273238   3.118   6.403  16.338  2.7667 -0.1581 -0.4447
17275TIP3   OH273239   3.191   4.118  15.967 -0.3135 -0.3587  0.0721
17275TIP3    H173240   3.249   4.068  16.025  1.6459  2.8057  0.9699
17275TIP3    H273241   3.210   4.085  15.879  2.0496 -0.1369  0.4829
17276TIP3   OH273242   6.000   1.540  12.406  0.3505  0.3912  0.1704
17276TIP3    H173243   5.988   1.576  12.494  0.7291  1.2634 -0.1361
17276TIP3    H273244   6.058   1.602  12.362 -2.2341  1.5520 -1.6935
17277TIP3   OH273245   4.638   4.677  17.199  0.5455  0.1090  0.0481
17277TIP3    H173246   4.613   4.619  17.271 -0.0293  0.0281 -0.2167
17277TIP3    H273247   4.722   4.714  17.227  1.2035 -1.2955 -0.0434
17278TIP3   OH273248   4.763   0.970   1.391  0.4331 -0.3982  0.4186
17278TIP3    H173249   4.701   0.920   1.338 -2.1694  0.6360  2.3604
17278TIP3    H273250   4.826   1.004   1.328 -1.5718 -0.6217 -1.8091
17279TIP3   OH273251   1.697   1.693  14.729 -0.1375  0.6256 -0.1822
17279TIP3    H173252   1.612   1.723  14.760 -0.6688  0.4893 -1.4625
17279TIP3    H273253   1.696   1.712  14.635  0.6638 -0.7456 -0.4771
17280TIP3   OH273254   5.385   4.633  10.641 -0.0970 -1.3412 -0.0157
17280TIP3    H173255   5.465   4.581  10.647  0.1378 -1.0911 -0.9661
17280TIP3    H273256   5.416   4.721  10.617 -0.3051 -0.2598  3.3859
17281TIP3   OH273257   2.783   3.932   0.421 -0.5334 -0.6877 -0.3843
17281TIP3    H173258   2.769   3.849   0.376 -0.4684 -0.4496 -0.8482
17281TIP3    H273259   2.864   3.966   0.385 -1.5529  0.4901 -1.6068
17282TIP3   OH273260   5.332   2.245   0.431  0.1733 -0.2815  0.0267
17282TIP3    H173261   5.270   2.245   0.504  0.3003  1.8862  0.1499
17282TIP3    H273262   5.276   2.246   0.353  0.0358  1.4315  0.1358
17283TIP3   OH273263   3.812   1.505   4.927 -0.0121  0.0523  0.1676
17283TIP3    H173264   3.743   1.456   4.883 -0.6417  2.3181 -1.4402
17283TIP3    H273265   3.819   1.465   5.014 -2.3809 -1.0854 -0.1427
17284TIP3   OH273266   2.377   1.111   1.857 -0.4657 -0.2214 -0.0614
17284TIP3    H173267   2.388   1.026   1.815  0.1040 -0.0206 -0.3202
17284TIP3    H273268   2.443   1.111   1.927 -0.6168 -0.0807  0.0808
17285TIP3   OH273269   0.339   1.037  13.502 -0.8155 -0.7682 -0.1486
17285TIP3    H173270   0.252   1.051  13.539 -1.3855 -1.1472 -1.3095
17285TIP3    H273271   0.382   0.978  13.563 -1.4143 -0.6694  0.3741
17286TIP3   OH273272   4.087   2.949   0.645 -0.2167 -0.2121 -0.2698
17286TIP3    H173273   4.164   2.972   0.697 -0.0696 -0.0698 -0.5548
17286TIP3    H273274   4.014   2.991   0.690  0.2394  2.1669 -1.6857
17287TIP3   OH273275   5.805   3.012   1.946  0.4168  0.5656 -0.5822
17287TIP3    H173276   5.741   3.080   1.964 -0.3905 -0.2936 -0.2059
17287TIP3    H273277   5.776   2.972   1.864  0.7471  0.5017 -0.6686
17288TIP3   OH273278   2.516   4.995  11.593 -0.1123 -0.1665  0.2452
17288TIP3    H173279   2.561   4.941  11.657  1.5400  1.1325  0.2128
17288TIP3    H273280   2.452   5.045  11.644 -1.2956 -1.7229  0.3402
17289TIP3   OH273281   5.882   1.293   4.284 -0.1691 -0.3243 -0.0067
17289TIP3    H173282   5.942   1.262   4.352 -0.4420  2.0004  1.3514
17289TIP3    H273283   5.817   1.345   4.331 -0.2958  1.4447 -2.0450
17290TIP3   OH273284   0.463   2.706   3.383 -0.3447 -0.1154  0.3638
17290TIP3    H173285   0.515   2.705   3.464 -0.8409 -0.2582  0.6806
17290TIP3    H273286   0.473   2.618   3.348  0.6723  0.2328 -0.2469
17291TIP3   OH273287   4.884   3.473   5.597 -0.4563 -0.5645  0.4472
17291TIP3    H173288   4.792   3.466   5.620 -0.5549 -1.6905 -0.2332
17291TIP3    H273289   4.892   3.558   5.555 -1.3658 -0.8075 -0.2383
17292TIP3   OH273290   5.309   5.317   3.845 -0.3716 -0.0551  0.3294
17292TIP3    H173291   5.287   5.287   3.933 -0.9505 -0.7986 -0.0608
17292TIP3    H273292   5.289   5.242   3.789  0.1370  0.3643 -0.4132
17293TIP3   OH273293   1.830   5.999  17.157 -0.5101  0.6145  0.1817
17293TIP3    H173294   1.749   5.971  17.199 -0.4202  1.5389  1.0101
17293TIP3    H273295   1.898   5.975  17.220 -0.0820 -0.5898 -0.7165
17294TIP3   OH273296   2.295   5.193   2.271  0.1899 -0.0862  0.0198
17294TIP3    H173297   2.302   5.138   2.193 -0.4563 -0.3460  0.1449
17294TIP3    H273298   2.384   5.194   2.307  0.5653  0.3072 -0.8983
17295TIP3   OH273299   1.682   0.797  16.119 -0.2778 -0.1085 -1.1213
17295TIP3    H173300   1.737   0.875  16.114  0.3867 -0.5986 -1.4398
17295TIP3    H273301   1.615   0.810  16.051 -0.1099  0.1393 -1.2380
17296TIP3   OH273302   4.208   4.788   0.593 -0.2338  0.3080 -0.8713
17296TIP3    H173303   4.180   4.708   0.548 -1.2308  0.1571  0.0179
17296TIP3    H273304   4.129   4.842   0.598  0.4926  1.4910 -1.7290
17297TIP3   OH273305   3.006   6.115   4.327 -0.3035  0.6344 -0.2406
17297TIP3    H173306   2.928   6.066   4.303 -0.9310  1.2869  0.4687
17297TIP3    H273307   2.988   6.205   4.300  0.3776  0.7178 -0.4531
17298TIP3   OH273308   3.014   3.334  17.046 -0.8535  0.3387  0.1159
17298TIP3    H173309   3.053   3.383  16.974 -0.8339  1.9018  1.1561
17298TIP3    H273310   3.052   3.247  17.039  3.3014  1.8909  1.3727
17299TIP3   OH273311   6.111   5.254  16.482  0.1364 -0.6400  0.3242
17299TIP3    H173312   6.056   5.266  16.559 -0.8495 -2.0408 -0.1433
17299TIP3    H273313   6.172   5.327  16.485  0.1525 -0.7018  2.4660
17300TIP3   OH273314   4.955   5.918   1.157 -0.2956  0.2452  0.7025
17300TIP3    H173315   5.045   5.894   1.135 -0.4117  0.3253  0.1398
17300TIP3    H273316   4.930   5.980   1.089 -1.2368 -0.7794  0.1104
17301TIP3   OH273317   2.112   5.846  12.627  0.4180  0.1824 -0.5522
17301TIP3    H173318   2.194   5.804  12.652 -0.3882  0.1387  2.2124
17301TIP3    H273319   2.133   5.940  12.625  0.6539  0.1410 -0.1759
17302TIP3   OH273320   6.709   1.399  13.269 -0.6838  0.2161 -0.0489
17302TIP3    H173321   6.784   1.381  13.213 -0.8121 -0.7962  0.1046
17302TIP3    H273322   6.746   1.409  13.357 -0.4594  1.9830 -0.3127
17303TIP3   OH273323   1.929   5.537  12.400  0.0340  0.0392  0.6280
17303TIP3    H173324   2.020   5.520  12.378 -0.8025 -0.6563 -2.6651
17303TIP3    H273325   1.918   5.631  12.387  0.2632  0.1168  0.9878
17304TIP3   OH273326   3.345   4.208  13.406  0.0192 -0.5460 -0.2008
17304TIP3    H173327   3.370   4.243  13.492 -2.1066  2.1051 -0.5767
17304TIP3    H273328   3.390   4.265  13.344 -2.7363  1.0370 -0.8332
17305TIP3   OH273329   6.210   2.619  16.381 -0.2057  1.1589 -0.7375
17305TIP3    H173330   6.137   2.667  16.342 -1.8334 -0.3717  0.3171
17305TIP3    H273331   6.216   2.653  16.471  1.0121  1.9515 -1.1091
17306TIP3   OH273332   0.566   3.541   5.572 -0.6311 -0.0394  0.3413
17306TIP3    H173333   0.661   3.557   5.566 -0.4613 -1.2545 -0.1978
17306TIP3    H273334   0.527   3.625   5.546  0.2760  0.0994 -0.6301
17307TIP3   OH273335   6.730   2.535   0.800 -0.5606 -0.0343  0.1129
17307TIP3    H173336   6.800   2.534   0.734  0.0174  0.7720  0.6967
17307TIP3    H273337   6.757   2.602   0.863 -1.0736 -0.8411  1.2171
17308TIP3   OH273338   4.175   5.783  13.294 -0.9928 -0.0249 -0.4452
17308TIP3    H173339   4.266   5.769  13.318 -1.5332 -2.4040  0.3564
17308TIP3    H273340   4.131   5.700  13.315 -3.1836  0.7975 -1.5509
17309TIP3   OH273341   2.356   2.017  11.311 -0.4375 -0.7130 -0.3310
17309TIP3    H173342   2.410   2.052  11.382  0.5231 -1.5312 -0.6628
17309TIP3    H273343   2.272   1.996  11.353 -0.1204 -0.5061  0.4066
17310TIP3   OH273344   2.717   2.229   3.050 -0.5783  0.1418 -0.2569
17310TIP3    H173345   2.775   2.306   3.049 -1.8262  1.1087  0.4487
17310TIP3    H273346   2.771   2.159   3.014  1.1310  0.9651  0.6166
17311TIP3   OH273347   3.796   1.108  13.604 -0.5404  0.0720 -0.5137
17311TIP3    H173348   3.845   1.086  13.682  1.4205  1.6871 -1.2372
17311TIP3    H273349   3.724   1.045  13.602  0.1564 -0.8539  1.8267
17312TIP3   OH273350   1.733   1.152  16.607 -0.0793  0.1908  0.8965
17312TIP3    H173351   1.720   1.113  16.521 -1.6014  1.3825  0.5390
17312TIP3    H273352   1.762   1.080  16.663 -1.5232 -1.1502 -0.0342
17313TIP3   OH273353   3.376   0.998   0.496  0.1464  0.0050  0.1710
17313TIP3    H173354   3.384   1.089   0.525 -0.8665  0.0469  0.3142
17313TIP3    H273355   3.327   1.003   0.414 -0.8926 -0.5048  0.7493
17314TIP3   OH273356   1.090   1.561  11.328  0.1388  0.6219 -0.2128
17314TIP3    H173357   1.137   1.615  11.392  0.1861  1.5606 -1.0239
17314TIP3    H273358   1.062   1.623  11.260 -1.8397 -0.0106 -0.0060
17315TIP3   OH273359   6.462   3.448   5.722  0.0365 -0.0226  0.7023
17315TIP3    H173360   6.393   3.458   5.657  0.1071 -0.1990  0.6009
17315TIP3    H273361   6.438   3.509   5.792 -1.0976 -1.2827  1.4275
17316TIP3   OH273362   3.811   4.083  17.148 -0.3533 -0.0124  0.3154
17316TIP3    H173363   3.813   4.142  17.073  1.3362 -0.2188  0.1795
17316TIP3    H273364   3.795   4.141  17.223  0.0878  0.4668  0.0441
17317TIP3   OH273365   5.900   5.685  13.571 -0.3626 -0.2509  0.1206
17317TIP3    H173366   5.987   5.647  13.576 -0.2202 -0.0866 -0.9365
17317TIP3    H273367   5.914   5.772  13.532 -1.0252 -0.3327 -0.3054
17318TIP3   OH273368   2.579   1.513   2.620 -0.0183  0.1873 -0.6228
17318TIP3    H173369   2.599   1.607   2.620 -0.0368  0.2734  2.9165
17318TIP3    H273370   2.635   1.477   2.552  0.5643  2.6554 -1.5144
17319TIP3   OH273371   5.838   3.142   0.610 -0.2022 -0.5798  0.3788
17319TIP3    H173372   5.820   3.048   0.601  1.1188 -0.9444  1.3633
17319TIP3    H273373   5.928   3.151   0.578  0.0168  0.1980  1.2238
17320TIP3   OH273374   0.606   5.119   5.503 -0.2057  0.0852  0.0106
17320TIP3    H173375   0.589   5.132   5.410 -0.8334 -0.0456  0.1014
17320TIP3    H273376   0.613   5.024   5.514 -0.2698  0.0916  0.1152
17321TIP3   OH273377   1.508   5.327   4.563 -0.0959 -0.1622  0.2365
17321TIP3    H173378   1.453   5.291   4.633  0.2969  0.0672  0.6682
17321TIP3    H273379   1.468   5.411   4.542 -0.5415 -0.4791 -0.2099
17322TIP3   OH273380   3.289   2.820   2.845  0.7911 -0.2292 -0.3247
17322TIP3    H173381   3.256   2.883   2.781  1.8576  0.7655  0.1043
17322TIP3    H273382   3.384   2.825   2.838  0.8943 -1.6766 -0.1714
17323TIP3   OH273383   3.709   5.228   2.064 -0.4141 -0.7219 -0.2993
17323TIP3    H173384   3.679   5.138   2.079 -1.6721 -0.3815 -0.6947
17323TIP3    H273385   3.664   5.255   1.984  1.0001 -0.1999 -0.9395
17324TIP3   OH273386   1.144   2.098  13.733 -0.7435 -0.1458 -0.1181
17324TIP3    H173387   1.213   2.033  13.713 -1.6098 -0.3776 -2.4835
17324TIP3    H273388   1.069   2.045  13.760  0.3210  0.1525  3.7437
17325TIP3   OH273389   4.673   3.449  13.133  0.1795  0.3556 -0.6928
17325TIP3    H173390   4.681   3.501  13.213 -0.3818 -0.4718 -0.0924
17325TIP3    H273391   4.666   3.359  13.164 -0.2136  0.0477 -1.6685
17326TIP3   OH273392   2.537   4.001  11.259  0.9026  0.1314  0.1187
17326TIP3    H173393   2.611   3.979  11.315  1.0230  0.0081 -0.0913
17326TIP3    H273394   2.526   4.096  11.270 -0.2952 -0.1741  1.8562
17327TIP3   OH273395   2.251   1.184   4.905 -1.0501 -0.3438  0.4963
17327TIP3    H173396   2.237   1.278   4.897  3.3562  0.1938 -2.6885
17327TIP3    H273397   2.241   1.151   4.816  1.1793 -2.2290  0.8956
17328TIP3   OH273398   3.973   5.948  12.637 -0.1007 -0.1305  0.1807
17328TIP3    H173399   3.938   6.034  12.659  0.7343  0.2401  0.0723
17328TIP3    H273400   3.899   5.901  12.599 -0.2142  1.0474 -1.1150
17329TIP3   OH273401   5.598   3.980  13.161 -0.3591  0.0613 -0.4115
17329TIP3    H173402   5.604   4.063  13.114  0.4385  1.4058  2.0338
17329TIP3    H273403   5.687   3.961  13.190 -1.0478 -0.0275  1.7563
17330TIP3   OH273404   0.869   4.575  10.920 -0.1305  0.1821  0.4959
17330TIP3    H173405   0.927   4.648  10.944  0.1420  0.5236 -1.1319
17330TIP3    H273406   0.914   4.532  10.847 -1.0229 -0.6941  0.4598
17331TIP3   OH273407   0.351   2.145  15.156 -0.0125  0.3720 -0.2755
17331TIP3    H173408   0.259   2.123  15.170  0.6557 -1.3005  1.8158
17331TIP3    H273409   0.365   2.222  15.210 -0.5236  1.5008 -1.7321
17332TIP3   OH273410   4.234   4.186   1.050 -0.3828  0.2149  0.6308
17332TIP3    H173411   4.247   4.230   1.134 -1.6789  0.2398  0.8308
17332TIP3    H273412   4.299   4.116   1.050  0.6761  1.1939  0.9713
17333TIP3   OH273413   2.073   6.106   0.040  0.6630  0.6941  0.4870
17333TIP3    H173414   1.983   6.138   0.050  0.4546  0.3602 -0.3095
17333TIP3    H273415   2.110   6.159  -0.030 -0.2441 -1.9337 -2.0873
17334TIP3   OH273416   5.228   3.647   1.989  0.0956 -0.0991  0.5087
17334TIP3    H173417   5.178   3.726   1.970  0.0709 -0.2922 -0.2213
17334TIP3    H273418   5.185   3.610   2.066 -0.5647  0.0221  0.1998
17335TIP3   OH273419   5.901   0.905  16.496 -0.4218  0.3571 -0.0391
17335TIP3    H173420   5.830   0.950  16.540 -0.0630  0.4418  0.4516
17335TIP3    H273421   5.871   0.814  16.489 -0.0290  0.1107  1.3482
17336TIP3   OH273422   0.558   0.389  12.803  0.2069  0.3674 -0.3847
17336TIP3    H173423   0.477   0.427  12.770 -0.2792  0.1637  0.5559
17336TIP3    H273424   0.609   0.464  12.834  0.3434  0.4873 -0.8983
17337TIP3   OH273425   4.711   3.808   2.492  0.2874 -0.2945 -0.2489
17337TIP3    H173426   4.625   3.780   2.462  0.5024 -0.9801 -0.2169
17337TIP3    H273427   4.710   3.793   2.587 -0.0035  0.8698 -0.0533
17338TIP3   OH273428   4.395   6.022   5.354  0.4200  0.1431 -0.0530
17338TIP3    H173429   4.314   5.987   5.316  1.0978 -0.2055 -1.1795
17338TIP3    H273430   4.431   6.079   5.287 -0.0728  2.1476  1.3368
17339TIP3   OH273431   3.604   3.498   4.193  0.4778  0.0931  0.5576
17339TIP3    H173432   3.538   3.429   4.180  0.7009  0.3287 -2.1012
17339TIP3    H273433   3.560   3.579   4.168  1.0921  0.5610  0.9646
17340TIP3   OH273434   2.819   2.552  14.981 -0.1446  0.2666  0.2303
17340TIP3    H173435   2.838   2.490  14.910  0.5763 -0.4783  1.0695
17340TIP3    H273436   2.789   2.631  14.935 -2.4384 -1.1592 -0.7806
17341TIP3   OH273437   6.308   0.466  11.590 -0.2311  0.6257 -0.3464
17341TIP3    H173438   6.370   0.488  11.660 -0.5680  2.2331 -0.5469
17341TIP3    H273439   6.226   0.508  11.616 -1.5975 -2.4208  0.4847
17342TIP3   OH273440   2.975   4.696   3.047 -0.0626  0.2633  0.1284
17342TIP3    H173441   2.956   4.789   3.032  0.8222  0.5638  0.8288
17342TIP3    H273442   3.068   4.686   3.024  0.0443 -0.2831  0.7836
17343TIP3   OH273443   5.481   6.154   2.691 -0.2235  0.2911  0.0314
17343TIP3    H173444   5.498   6.162   2.597  1.5958  0.7289  0.3767
17343TIP3    H273445   5.420   6.080   2.698 -1.6027  1.2494 -1.6042
17344TIP3   OH273446   3.695   0.285  13.085 -0.1747  0.6187 -0.3235
17344TIP3    H173447   3.677   0.304  12.993  2.4207 -0.5543 -1.1133
17344TIP3    H273448   3.689   0.190  13.091 -0.8278  0.7244  0.8557
17345TIP3   OH273449   0.151   6.624   6.493 -0.0293 -0.3540 -0.2033
17345TIP3    H173450   0.124   6.567   6.564  0.2993  1.1988  1.2056
17345TIP3    H273451   0.241   6.649   6.515 -0.2139  0.8060 -0.7144
17346TIP3   OH273452   1.187   4.940   0.464  0.2823  0.2454  0.5429
17346TIP3    H173453   1.112   4.950   0.523  0.5095  1.3993  0.6371
17346TIP3    H273454   1.232   5.024   0.468  1.6190 -0.4668  0.5186
17347TIP3   OH273455   1.719   0.700   4.722  0.2414  0.2838  0.6713
17347TIP3    H173456   1.725   0.762   4.795 -0.9483 -0.1406  1.1479
17347TIP3    H273457   1.626   0.677   4.718  0.5195 -0.7542 -0.0978
17348TIP3   OH273458   3.979   1.416   1.714 -0.1771  0.7194  0.0965
17348TIP3    H173459   3.985   1.486   1.649  0.8429  1.0391  0.5257
17348TIP3    H273460   4.040   1.349   1.684 -2.3656 -0.7487 -1.2037
17349TIP3   OH273461   6.759   4.313   1.101  0.2401  0.5710  0.3038
17349TIP3    H173462   6.816   4.281   1.171 -2.1828 -3.2160  0.6860
17349TIP3    H273463   6.670   4.294   1.132 -1.0664  2.3900 -2.1407
17350TIP3   OH273464   0.203   0.399  16.162 -0.1005  0.2487  0.5086
17350TIP3    H173465   0.138   0.355  16.216  0.6160  0.1765  1.3307
17350TIP3    H273466   0.243   0.329  16.110  0.0674  0.1336  0.7915
17351TIP3   OH273467   3.658   4.951   5.982 -0.4842  0.3570  0.1532
17351TIP3    H173468   3.608   5.023   5.943 -2.3961 -0.2714  1.3718
17351TIP3    H273469   3.714   4.994   6.048 -1.3959  0.7679  0.6652
17352TIP3   OH273470   5.159   3.363  16.514  0.0430  0.2091  0.0256
17352TIP3    H173471   5.124   3.415  16.442 -0.6105  1.0133  0.9140
17352TIP3    H273472   5.121   3.276  16.502 -1.4012  0.7872  0.3564
17353TIP3   OH273473   6.003   5.523  16.097 -0.3792 -0.2747  0.1571
17353TIP3    H173474   5.997   5.441  16.146  1.1105 -1.0635 -0.9435
17353TIP3    H273475   5.948   5.510  16.020 -0.5534 -0.0477  0.2428
17354TIP3   OH273476   5.611   6.555   2.637  0.6419 -0.3358  0.7241
17354TIP3    H173477   5.590   6.601   2.718 -0.1763 -1.4691  1.1632
17354TIP3    H273478   5.689   6.504   2.658 -0.0848 -1.3189  1.0718
17355TIP3   OH273479   3.683   0.566   4.889 -0.2388  0.3130 -0.1636
17355TIP3    H173480   3.596   0.594   4.861  0.4708  2.1812 -0.6148
17355TIP3    H273481   3.732   0.554   4.807  0.2769  0.4805  0.1162
17356TIP3   OH273482   5.272   2.350   0.818 -0.0396 -0.1622  0.0979
17356TIP3    H173483   5.182   2.355   0.848 -0.3578  0.2004 -0.9008
17356TIP3    H273484   5.308   2.273   0.861 -0.7055 -0.0805  0.8100
17357TIP3   OH273485   5.704   2.767   0.283  0.2926  0.0700 -0.1397
17357TIP3    H173486   5.728   2.675   0.291  0.4603  0.2173  1.2384
17357TIP3    H273487   5.707   2.800   0.373 -1.3562  1.0226 -0.4167
17358TIP3   OH273488   5.452   4.701  16.596  0.0655 -0.1120 -0.1258
17358TIP3    H173489   5.478   4.758  16.669 -1.8510 -0.4318  0.8424
17358TIP3    H273490   5.529   4.698  16.539  0.8827  1.7854  0.8498
17359TIP3   OH273491   4.771   1.231   2.745 -0.0925 -0.3592  0.1507
17359TIP3    H173492   4.785   1.324   2.758 -0.8930 -0.0502 -1.1501
17359TIP3    H273493   4.681   1.223   2.714  0.4619 -1.4014 -1.2844
17360TIP3   OH273494   6.632   3.133  15.589 -0.2173  0.8309  0.1176
17360TIP3    H173495   6.605   3.160  15.501 -0.0509  1.3598  0.2270
17360TIP3    H273496   6.552   3.137  15.641 -0.3425  0.3949 -0.0356
17361TIP3   OH273497   6.030   6.512  16.532  0.1351  0.4587  0.0428
17361TIP3    H173498   6.011   6.507  16.626  3.6981 -1.2483  0.7991
17361TIP3    H273499   5.985   6.437  16.494  0.1671  0.0883  0.7215
17362TIP3   OH273500   4.908   4.129   2.850 -0.5598 -0.4497 -0.0266
17362TIP3    H173501   4.827   4.140   2.899 -0.3025  2.2908 -0.1414
17362TIP3    H273502   4.916   4.035   2.837 -3.3943 -0.8017  0.5222
17363TIP3   OH273503   1.291   4.226  12.990  0.4986 -0.3722 -0.3165
17363TIP3    H173504   1.223   4.199  13.052  0.0290 -0.2248 -0.7662
17363TIP3    H273505   1.325   4.309  13.025 -1.0741  0.6846 -1.2610
17364TIP3   OH273506   4.197   3.202  13.667  0.2036  0.3142  0.2293
17364TIP3    H173507   4.239   3.212  13.752  0.1108 -0.2192  0.3400
17364TIP3    H273508   4.247   3.260  13.609  1.4437 -0.7067  0.2433
17365TIP3   OH273509   2.458   0.234   1.684  0.6789 -0.8217 -0.2173
17365TIP3    H173510   2.523   0.304   1.694 -0.7724  0.1648  2.7023
17365TIP3    H273511   2.489   0.164   1.741 -1.3877  0.1237  2.1527
17366TIP3   OH273512   2.566   2.847  16.350  0.3475  0.1864 -0.2383
17366TIP3    H173513   2.604   2.798  16.276 -1.6736 -0.5451 -0.8333
17366TIP3    H273514   2.642   2.879  16.399  1.7316 -0.0977 -2.1202
17367TIP3   OH273515   3.900   5.748  14.947 -0.2537  0.4203  0.1538
17367TIP3    H173516   3.890   5.842  14.936 -0.4907  0.3495 -0.2161
17367TIP3    H273517   3.979   5.739  15.000 -1.6777  0.9438  2.4375
17368TIP3   OH273518   2.994   4.987  11.389 -0.3436 -0.4544 -0.0022
17368TIP3    H173519   2.955   4.937  11.317  0.0491 -0.5844 -0.1258
17368TIP3    H273520   2.921   5.003  11.450 -0.7111 -0.1870 -0.5157
17369TIP3   OH273521   4.135   3.872   4.830 -0.4786 -0.4857  0.0574
17369TIP3    H173522   4.059   3.927   4.809 -0.1264  0.5497  1.4215
17369TIP3    H273523   4.119   3.843   4.920  0.8068 -0.1524  0.3924
17370TIP3   OH273524   3.561   2.902  16.971  0.0320  0.4043 -0.0998
17370TIP3    H173525   3.650   2.891  16.939 -0.4761  0.7868 -1.7085
17370TIP3    H273526   3.548   2.997  16.972 -0.2071  0.3668  0.5636
17371TIP3   OH273527   2.853   3.940  12.625 -0.3758  0.4455 -0.3859
17371TIP3    H173528   2.915   3.926  12.696 -1.2893 -1.5038  0.0683
17371TIP3    H273529   2.794   4.008  12.657 -0.5066 -0.0984  0.5265
17372TIP3   OH273530   3.563   2.035  11.910 -0.2101  0.1838  0.9391
17372TIP3    H173531   3.625   2.089  11.958 -1.8232  1.6257  1.4460
17372TIP3    H273532   3.491   2.020  11.972 -1.6376  0.8312 -0.5142
17373TIP3   OH273533   1.132   6.783  17.116 -0.3368  0.1162  0.3300
17373TIP3    H173534   1.226   6.785  17.132  0.0522 -0.1136 -1.8096
17373TIP3    H273535   1.110   6.690  17.109 -0.2819  0.2174 -1.4919
17374TIP3   OH273536   4.324   3.773  15.567  0.1692  0.5011  0.1073
17374TIP3    H173537   4.377   3.846  15.534  2.7460 -0.8637  1.0457
17374TIP3    H273538   4.315   3.714  15.492  1.7668 -0.2381  0.4838
17375TIP3   OH273539   3.036   6.645   3.066 -0.4148 -0.3554  0.4727
17375TIP3    H173540   2.994   6.715   3.115 -0.1425 -1.2447  2.0292
17375TIP3    H273541   3.099   6.689   3.009 -0.4787  0.6910  1.1989
17376TIP3   OH273542   6.206   5.447   2.487  0.6137  0.1197  0.5460
17376TIP3    H173543   6.147   5.523   2.490  0.1313 -0.2155 -0.3598
17376TIP3    H273544   6.158   5.378   2.533  1.4281  0.6167  2.1570
17377TIP3   OH273545   6.433   6.434  16.403 -0.4831  0.1255 -0.3275
17377TIP3    H173546   6.387   6.503  16.450 -0.4121 -0.9181  1.3330
17377TIP3    H273547   6.436   6.361  16.465  2.4940 -0.2014 -0.7676
17378TIP3   OH273548   3.150   1.266  14.638  0.8641 -0.1973 -0.1516
17378TIP3    H173549   3.165   1.304  14.725 -0.6911  2.0706 -0.8309
17378TIP3    H273550   3.064   1.225  14.645  0.5477  0.3638 -0.7411
17379TIP3   OH273551   3.843   2.098   1.097 -0.1120  0.0339 -0.4599
17379TIP3    H173552   3.849   2.066   1.007  0.0230  0.5203 -0.6251
17379TIP3    H273553   3.931   2.087   1.132 -0.2052 -0.3111 -0.3358
17380TIP3   OH273554   4.823   2.957  11.631 -0.5568 -0.4056 -0.3532
17380TIP3    H173555   4.772   2.890  11.677  0.2425 -0.9343 -0.2275
17380TIP3    H273556   4.914   2.929  11.641 -0.2339  0.5791 -0.5017
17381TIP3   OH273557   4.871   3.851   2.902  0.5068  0.0423 -0.6151
17381TIP3    H173558   4.935   3.787   2.934 -1.0820 -0.2097  2.2389
17381TIP3    H273559   4.792   3.800   2.886  0.1809  0.7880 -1.4005
17382TIP3   OH273560   6.254   0.268  13.154  0.0589  0.6005  0.0820
17382TIP3    H173561   6.325   0.212  13.120 -0.6801  0.1007 -0.6492
17382TIP3    H273562   6.224   0.317  13.078 -1.2864 -0.1768  0.0976
17383TIP3   OH273563   3.012   0.258  11.206  0.3014 -0.0372  0.4892
17383TIP3    H173564   3.025   0.351  11.188 -0.0499 -0.0156  0.3563
17383TIP3    H273565   2.940   0.232  11.148 -0.2848 -0.1584  1.2654
17384TIP3   OH273566   6.661   4.515   2.230  0.2662 -0.6400 -0.2136
17384TIP3    H173567   6.648   4.610   2.237 -0.9253 -0.7072 -1.2179
17384TIP3    H273568   6.652   4.497   2.136  1.5727 -1.5986 -0.1541
17385TIP3   OH273569   0.962   3.371   2.926  0.8889  0.8644  0.4505
17385TIP3    H173570   0.880   3.358   2.880  1.8797  1.5557 -1.5641
17385TIP3    H273571   0.936   3.408   3.011 -0.7944  2.4951 -0.7313
17386TIP3   OH273572   6.636   0.939   4.832 -0.1374  0.2813  0.1177
17386TIP3    H173573   6.603   0.938   4.922  0.2432 -0.6190  0.2459
17386TIP3    H273574   6.560   0.919   4.779  0.2918 -2.4564  0.4559
17387TIP3   OH273575   1.854   1.958   2.937  0.3607  0.0882  0.5809
17387TIP3    H173576   1.794   1.906   2.883  1.7292  0.2614 -1.1779
17387TIP3    H273577   1.817   2.046   2.936 -0.3611 -0.2094  1.0658
17388TIP3   OH273578   6.536   3.873  12.367  0.1442  0.8439 -0.2091
17388TIP3    H173579   6.512   3.893  12.457  1.0153 -0.3879  0.2980
17388TIP3    H273580   6.630   3.890  12.362 -0.0018  1.4513 -1.0394
17389TIP3   OH273581   3.487   5.684   4.266 -0.5517  0.4384  0.1912
17389TIP3    H173582   3.504   5.592   4.284  0.1097  0.8639  1.9015
17389TIP3    H273583   3.569   5.717   4.229 -0.8935  0.2698 -0.7209
17390TIP3   OH273584   4.111   0.837   0.543  0.4497 -0.4301  0.0344
17390TIP3    H173585   4.021   0.807   0.538 -0.1872  1.3480  0.4770
17390TIP3    H273586   4.138   0.817   0.633  0.4161 -0.7545 -0.0293
17391TIP3   OH273587   3.651   0.462   2.925 -0.5838 -0.3970  0.0850
17391TIP3    H173588   3.703   0.407   2.983 -1.1427 -0.0233  0.9455
17391TIP3    H273589   3.615   0.402   2.860  1.2170 -0.6020 -0.7388
17392TIP3   OH273590   0.807   6.272   0.213  0.1234 -0.5080 -0.3033
17392TIP3    H173591   0.833   6.364   0.204 -1.5549  0.1571  1.2450
17392TIP3    H273592   0.773   6.248   0.127  0.0238  0.4858 -0.5476
17393TIP3   OH273593   2.362   5.304   6.146  0.0283 -0.3213 -0.1369
17393TIP3    H173594   2.359   5.239   6.217 -1.6864 -0.8310 -0.6335
17393TIP3    H273595   2.338   5.386   6.188 -1.1907 -0.6592 -0.1338
17394TIP3   OH273596   1.957   0.362   4.267  0.0987  0.0788 -0.4051
17394TIP3    H173597   1.887   0.401   4.215  0.8352  2.1610  0.0977
17394TIP3    H273598   2.005   0.307   4.206 -0.2616  0.8902 -1.4236
17395TIP3   OH273599   4.819   3.550  10.748  0.0624  0.0230 -0.2637
17395TIP3    H173600   4.799   3.458  10.762  0.1469  0.0649  0.1276
17395TIP3    H273601   4.736   3.596  10.766 -0.0580 -0.0022 -0.7429
17396TIP3   OH273602   4.495   5.546   5.215 -0.0761  0.3070  1.1066
17396TIP3    H173603   4.524   5.506   5.297 -0.3194  2.5143  2.2840
17396TIP3    H273604   4.477   5.471   5.158  0.6722 -1.2512  2.8436
17397TIP3   OH273605   0.765   1.917   3.035 -0.4170  0.1148  0.4304
17397TIP3    H173606   0.780   1.839   3.089 -1.0099 -2.1799 -2.5577
17397TIP3    H273607   0.712   1.885   2.962  1.2030  2.8549 -2.0475
17398TIP3   OH273608   6.046   0.451   3.212  0.1673 -0.2495  0.5126
17398TIP3    H173609   6.100   0.497   3.275  0.2261  1.2674 -0.6014
17398TIP3    H273610   5.962   0.438   3.257  0.2650  0.6533  0.9660
17399TIP3   OH273611   2.997   0.812   1.259  0.6929  0.2425  0.1494
17399TIP3    H173612   2.911   0.804   1.218 -0.1902 -2.4224  2.3502
17399TIP3    H273613   3.059   0.812   1.186 -1.0031 -1.1546 -1.3225
17400TIP3   OH273614   1.096   6.213   0.389  0.0373 -0.1307 -0.1175
17400TIP3    H173615   1.033   6.158   0.343 -0.4516  0.6607 -0.3956
17400TIP3    H273616   1.125   6.277   0.323 -1.0785  1.3611  0.8041
17401TIP3   OH273617   1.754   0.949  11.338 -0.5121 -0.5061 -0.3645
17401TIP3    H173618   1.796   1.005  11.403  1.9946 -0.4593 -1.9572
17401TIP3    H273619   1.712   1.011  11.278  2.5101 -0.2259 -2.2932
17402TIP3   OH273620   0.295   4.044   5.436  0.6436  0.4303  0.9586
17402TIP3    H173621   0.384   4.009   5.431  0.2162 -0.7913  1.7888
17402TIP3    H273622   0.274   4.047   5.529  0.5911  2.7743  0.9219
17403TIP3   OH273623   0.180   0.845  15.684  0.6465  0.1207 -0.6097
17403TIP3    H173624   0.207   0.875  15.597 -1.5492  2.0647 -0.6686
17403TIP3    H273625   0.205   0.753  15.686 -0.5566 -0.3667 -3.8968
17404TIP3   OH273626   0.835   4.338   3.895 -0.1456 -0.3177 -0.0771
17404TIP3    H173627   0.799   4.361   3.980  0.4287  2.2792 -0.4882
17404TIP3    H273628   0.906   4.276   3.915 -0.7575 -0.6124  1.2147
17405TIP3   OH273629   5.106   4.849  12.459 -0.2127  0.2086  0.0437
17405TIP3    H173630   5.106   4.870  12.366  1.3411  1.2757  0.2610
17405TIP3    H273631   5.127   4.756  12.463  1.8634  0.6209 -0.6157
17406TIP3   OH273632   4.724   5.254   2.445 -0.3077 -0.3721 -0.3576
17406TIP3    H173633   4.634   5.222   2.436 -0.4212 -0.1190 -0.1128
17406TIP3    H273634   4.719   5.325   2.509  0.2770 -1.2966  0.7441
17407TIP3   OH273635   6.326   4.520  10.908 -0.1859  0.1273 -0.3342
17407TIP3    H173636   6.358   4.430  10.911  1.7427  0.8262  1.3338
17407TIP3    H273637   6.301   4.534  10.817  0.2612 -1.8398 -0.7760
17408TIP3   OH273638   5.729   2.226   1.958 -0.8397 -0.0904 -0.2642
17408TIP3    H173639   5.722   2.162   1.887  1.2177  0.0619 -0.6297
17408TIP3    H273640   5.794   2.289   1.927 -1.6643  1.3027  0.7678
17409TIP3   OH273641   0.115   6.640   1.067 -0.1919  0.4723 -0.1341
17409TIP3    H173642   0.027   6.637   1.106 -0.1037  0.8401  0.0993
17409TIP3    H273643   0.127   6.553   1.029  0.0049 -0.1294  1.2674
17410TIP3   OH273644   0.528   2.109   4.899  0.5842  0.1052  0.4779
17410TIP3    H173645   0.465   2.155   4.955 -0.7236 -1.4194  0.3012
17410TIP3    H273646   0.566   2.043   4.957 -0.1334 -0.8991 -0.1742
17411TIP3   OH273647   3.341   1.576   0.686 -0.2337  0.1984 -0.3166
17411TIP3    H173648   3.392   1.514   0.737 -0.2928  3.3705  3.9204
17411TIP3    H273649   3.252   1.540   0.686  0.2291 -0.9523 -0.0714
17412TIP3   OH273650   3.545   6.717  11.802  0.4483  0.0684  0.2272
17412TIP3    H173651   3.530   6.777  11.729  0.4494 -0.8532 -0.5340
17412TIP3    H273652   3.622   6.752  11.847 -0.0478  1.0991  0.2759
17413TIP3   OH273653   3.737   6.412   4.943  0.5247 -0.0051 -0.3605
17413TIP3    H173654   3.700   6.496   4.971 -0.9468 -0.5071 -0.7631
17413TIP3    H273655   3.666   6.349   4.954  0.8647 -0.7727 -2.2792
17414TIP3   OH273656   2.113   0.439  16.956  0.2364 -0.5923 -0.1167
17414TIP3    H173657   2.204   0.467  16.961 -0.0630  0.3093  0.3032
17414TIP3    H273658   2.062   0.520  16.949 -0.7040 -0.9435  2.1404
17415TIP3   OH273659   3.536   6.203   2.488 -0.4366  0.1823  0.2931
17415TIP3    H173660   3.483   6.173   2.414 -0.3582 -1.3137  0.8315
17415TIP3    H273661   3.580   6.281   2.455  0.3408 -0.9967 -1.5998
17416TIP3   OH273662   1.471   1.388   1.096 -0.0910 -0.6795  0.3441
17416TIP3    H173663   1.404   1.352   1.037 -0.5978 -2.1614  1.7900
17416TIP3    H273664   1.540   1.418   1.038 -0.2644 -2.7540 -0.9978
17417TIP3   OH273665   5.605   6.072   4.181  0.3353 -0.1689 -0.5712
17417TIP3    H173666   5.611   6.168   4.183  1.6622 -0.2564  0.8267
17417TIP3    H273667   5.695   6.043   4.163  0.1976 -1.1725  0.3214
17418TIP3   OH273668   0.118   6.153  11.705 -0.0427  0.3452 -0.0510
17418TIP3    H173669   0.191   6.159  11.643 -0.5294  0.8649 -0.5811
17418TIP3    H273670   0.148   6.091  11.772  0.4215 -0.3557 -0.8988
17419TIP3   OH273671   1.729   5.668   3.215 -0.1816 -1.1099  0.2049
17419TIP3    H173672   1.698   5.625   3.294 -1.1133 -0.9284 -0.0515
17419TIP3    H273673   1.674   5.631   3.145 -0.9850  0.4563 -0.0247
17420TIP3   OH273674   0.624   1.737   2.379 -0.4225 -0.4281 -0.1639
17420TIP3    H173675   0.679   1.816   2.380  0.2887 -0.9012 -0.9380
17420TIP3    H273676   0.545   1.764   2.333 -0.2270 -0.1264 -0.3310
17421TIP3   OH273677   6.328   3.264  11.691 -0.5845  0.5056 -0.0537
17421TIP3    H173678   6.308   3.247  11.599 -1.6702 -1.0171  0.4485
17421TIP3    H273679   6.351   3.178  11.727 -1.7952  0.8126  1.4877
17422TIP3   OH273680   2.286   2.038  12.539  0.3121 -0.3671  0.5602
17422TIP3    H173681   2.339   2.060  12.462 -0.5521 -0.6267 -0.1166
17422TIP3    H273682   2.277   2.120  12.587 -0.8052  0.2327 -0.6442
17423TIP3   OH273683   5.748   3.049  16.361  0.1121  0.6325 -0.5538
17423TIP3    H173684   5.794   3.003  16.292  1.5891 -0.9780  1.4425
17423TIP3    H273685   5.754   3.142  16.337  1.6647  0.1795 -1.9397
17424TIP3   OH273686   4.157   4.434  10.573 -0.7317 -0.3853  0.0512
17424TIP3    H173687   4.187   4.354  10.616 -1.5558 -0.6504  0.1418
17424TIP3    H273688   4.196   4.505  10.625 -0.2723 -0.7223  0.1694
17425TIP3   OH273689   4.238   4.733   5.011 -0.7600 -0.0713  0.0554
17425TIP3    H173690   4.205   4.735   5.101 -1.0737  0.1500 -0.0642
17425TIP3    H273691   4.333   4.744   5.020 -0.8863  0.8368  0.3130
17426TIP3   OH273692   2.047   5.378  16.414  0.0410 -0.9204 -0.7946
17426TIP3    H173693   1.958   5.372  16.379  0.3083 -1.3071 -1.4007
17426TIP3    H273694   2.100   5.323  16.356  0.9298  0.4242 -1.2592
17427TIP3   OH273695   1.274   0.700   4.479 -0.2584 -0.3178 -0.1330
17427TIP3    H173696   1.203   0.657   4.431 -0.0021 -0.5287 -0.3230
17427TIP3    H273697   1.329   0.739   4.411  0.8441 -1.7605 -0.0799
17428TIP3   OH273698   3.911   3.802  13.684 -0.3354  0.2246  0.7096
17428TIP3    H173699   3.933   3.756  13.765 -0.2763  1.4443  1.3947
17428TIP3    H273700   3.994   3.809  13.637 -0.4874 -1.0601  0.2362
17429TIP3   OH273701   1.651   1.125   3.398  0.1213 -0.1190 -0.1863
17429TIP3    H173702   1.682   1.156   3.313  0.9356  0.7291  0.4150
17429TIP3    H273703   1.612   1.040   3.379  3.8141 -1.7653 -0.8163
17430TIP3   OH273704   1.883   2.359   0.837  0.0787 -0.1794 -0.4807
17430TIP3    H173705   1.854   2.366   0.746 -2.1715  0.6587  0.2728
17430TIP3    H273706   1.965   2.408   0.840 -0.7856  1.3651 -1.6686
17431TIP3   OH273707   2.635   0.029   3.651  0.0121 -0.1682  0.2425
17431TIP3    H173708   2.720   0.029   3.608 -0.5521 -0.9381 -0.9068
17431TIP3    H273709   2.626   0.117   3.686  0.7754  0.2740 -0.6450
17432TIP3   OH273710   6.328   3.568  15.722  0.1518 -0.5504  0.0555
17432TIP3    H173711   6.346   3.648  15.672 -0.0678 -0.5073  0.0483
17432TIP3    H273712   6.240   3.543  15.697  0.2923 -0.9043 -0.0889
17433TIP3   OH273713   4.301   0.303  16.114 -0.2272  0.3758 -0.0570
17433TIP3    H173714   4.373   0.253  16.076  0.2079  1.3772 -0.5822
17433TIP3    H273715   4.339   0.345  16.191 -0.3291  0.6689 -0.1639
17434TIP3   OH273716   4.037   2.851   5.033 -0.0855 -0.1242 -0.5341
17434TIP3    H173717   3.959   2.858   4.977  0.3691  0.6153 -1.0887
17434TIP3    H273718   4.003   2.857   5.122 -0.6223  0.6804 -0.7847
17435TIP3   OH273719   5.632   5.191  16.558 -0.6275 -0.0299 -0.4773
17435TIP3    H173720   5.690   5.267  16.559 -2.5411  1.4972 -2.3512
17435TIP3    H273721   5.595   5.189  16.647 -0.1079  0.8529 -0.2334
17436TIP3   OH273722   0.884   0.765   1.140 -0.0895  0.7603  0.3089
17436TIP3    H173723   0.877   0.704   1.213  1.4142  2.0742  1.5635
17436TIP3    H273724   0.795   0.801   1.131 -0.3811  0.2734  1.1897
17437TIP3   OH273725   0.666   1.865  11.760  0.3744 -0.1413  0.5287
17437TIP3    H173726   0.666   1.793  11.697  1.2649 -0.3799  0.7880
17437TIP3    H273727   0.575   1.872  11.790 -0.3843  0.9953 -1.9191
17438TIP3   OH273728   2.239   0.847   2.919 -0.0156 -0.0036 -0.2481
17438TIP3    H173729   2.182   0.781   2.959  0.1307  0.6231  1.0428
17438TIP3    H273730   2.319   0.844   2.971  0.8691 -0.3870 -1.6216
17439TIP3   OH273731   6.006   4.231   5.170  0.2807 -0.6694  0.1949
17439TIP3    H173732   5.922   4.260   5.136  0.7385 -0.5388 -0.8314
17439TIP3    H273733   5.990   4.214   5.263 -0.8862 -0.6989 -0.0110
17440TIP3   OH273734   6.722   1.338   4.226 -0.2236 -0.0850 -0.0623
17440TIP3    H173735   6.676   1.347   4.309 -1.1930 -0.3265 -0.5752
17440TIP3    H273736   6.713   1.245   4.203  2.4023 -0.6594  0.9144
17441TIP3   OH273737   4.208   3.558  14.174 -0.0764 -0.6547  0.0669
17441TIP3    H173738   4.296   3.572  14.208 -0.7916 -0.2932  1.8183
17441TIP3    H273739   4.218   3.562  14.079  1.5683  0.6846  0.2773
17442TIP3   OH273740   2.597   1.145  16.747  0.6543 -1.0339  0.3588
17442TIP3    H173741   2.614   1.239  16.748 -0.9633 -0.7128 -0.5941
17442TIP3    H273742   2.652   1.110  16.677  0.1585 -0.5709 -0.2624
17443TIP3   OH273743   0.657   0.465   0.151 -0.2457 -0.0393  0.4099
17443TIP3    H173744   0.596   0.495   0.084 -0.1540 -1.2727 -0.2562
17443TIP3    H273745   0.613   0.481   0.234  0.0744  2.4848  0.1118
17444TIP3   OH273746   4.490   0.826   0.958 -0.2159  0.3501 -0.6089
17444TIP3    H173747   4.462   0.915   0.979  0.6713  0.4541  0.1514
17444TIP3    H273748   4.530   0.832   0.872 -1.0191  0.5023 -0.9787
17445TIP3   OH273749   1.622   1.464   3.880 -0.1750 -0.0100 -0.5265
17445TIP3    H173750   1.540   1.455   3.832 -0.5493 -1.3322  0.3363
17445TIP3    H273751   1.601   1.437   3.969  1.0599  0.1790 -0.1614
17446TIP3   OH273752   0.740   0.089   5.077 -0.0956  0.3915 -0.0987
17446TIP3    H173753   0.700   0.154   5.135 -2.2553 -0.1361 -0.9802
17446TIP3    H273754   0.725   0.005   5.120 -0.9351  0.0830 -0.9868
17447TIP3   OH273755   4.458   2.710  11.449 -0.2909  0.3644 -0.4645
17447TIP3    H173756   4.488   2.712  11.359  0.2375 -0.1247 -0.3046
17447TIP3    H273757   4.424   2.798  11.465  0.1790  0.6360 -0.9483
17448TIP3   OH273758   2.957   4.276  12.517 -0.5156  0.1667  0.1753
17448TIP3    H173759   3.039   4.316  12.546 -0.1440 -0.2167 -0.3312
17448TIP3    H273760   2.941   4.315  12.431  0.0930 -1.0961 -0.5317
17449TIP3   OH273761   3.171   0.483   1.058 -0.1362 -0.1981 -0.3984
17449TIP3    H173762   3.122   0.557   1.021 -1.4901  0.0155  1.7401
17449TIP3    H273763   3.184   0.506   1.150  2.4398 -1.0921 -0.5068
17450TIP3   OH273764   1.391   1.843  12.221  0.2166  0.0961 -0.0781
17450TIP3    H173765   1.308   1.873  12.183 -0.1865  0.2248  0.9022
17450TIP3    H273766   1.367   1.771  12.279  1.1619 -2.0033 -2.1985
17451TIP3   OH273767   2.866   5.065  15.914  0.0759  0.3585  0.1227
17451TIP3    H173768   2.845   4.972  15.912  0.1719  0.2740  2.1285
17451TIP3    H273769   2.823   5.098  15.993  2.4092  1.4165  0.9976
17452TIP3   OH273770   1.025   5.454   5.426 -0.1458 -0.9455  0.3835
17452TIP3    H173771   1.045   5.363   5.446  0.2847 -0.6156  1.4736
17452TIP3    H273772   0.997   5.492   5.509 -0.3507 -0.0898 -0.0659
17453TIP3   OH273773   6.034   1.711  14.031  0.1149  0.3582  0.0463
17453TIP3    H173774   6.051   1.774  14.101 -1.0862  0.8199 -0.0575
17453TIP3    H273775   6.108   1.720  13.972  0.2853  1.2014  0.3773
17454TIP3   OH273776   4.582   1.955   0.623  0.5580  0.2314 -0.2645
17454TIP3    H173777   4.612   2.012   0.695  0.7876 -0.6604  0.3465
17454TIP3    H273778   4.515   1.900   0.662 -2.3917  2.6184 -1.7768
17455TIP3   OH273779   6.048   2.366   0.163 -0.2052  0.3118 -0.1659
17455TIP3    H173780   6.120   2.420   0.196 -0.0402 -0.4494  0.7246
17455TIP3    H273781   5.977   2.379   0.225 -1.6923  2.9391 -2.3303
17456TIP3   OH273782   2.510   4.035   4.399 -0.6560  0.1998  0.3194
17456TIP3    H173783   2.562   4.098   4.350  0.7696  0.2434  1.8476
17456TIP3    H273784   2.470   3.979   4.332  2.0793 -0.4158 -0.8521
17457TIP3   OH273785   1.693   2.983  12.715  0.0441  0.4300 -0.2216
17457TIP3    H173786   1.659   2.999  12.626  0.2114 -3.2082 -1.0282
17457TIP3    H273787   1.762   2.918  12.702 -0.0998 -0.3240  2.5959
17458TIP3   OH273788   3.318   3.199   2.100 -0.1315 -0.3726  0.4257
17458TIP3    H173789   3.312   3.211   2.005 -1.3189  0.7010  0.6254
17458TIP3    H273790   3.403   3.235   2.123 -0.8663  1.6325  0.0900
17459TIP3   OH273791   2.994   3.225  12.372 -0.2331  0.2006  0.0198
17459TIP3    H173792   2.958   3.242  12.459 -1.9846 -0.9620 -0.4460
17459TIP3    H273793   2.956   3.294  12.317 -2.1692 -1.2534 -0.5521
17460TIP3   OH273794   3.734   5.807  12.557  0.0725 -0.2634  0.4702
17460TIP3    H173795   3.714   5.730  12.610  1.4076 -0.7896  0.2268
17460TIP3    H273796   3.675   5.800  12.482 -0.6704 -0.3867  1.0571
17461TIP3   OH273797   3.938   1.473   1.412  0.2306 -0.0246  0.2557
17461TIP3    H173798   3.944   1.528   1.334  0.3452  0.2097  0.4290
17461TIP3    H273799   3.865   1.509   1.462  0.1366 -0.1949  0.2424
17462TIP3   OH273800   1.317   5.204  16.488 -0.1512 -0.4127  0.2811
17462TIP3    H173801   1.271   5.275  16.444 -1.4217  0.4580  2.9160
17462TIP3    H273802   1.261   5.127  16.475 -0.0137 -0.3967 -0.4462
17463TIP3   OH273803   2.452   2.959   1.267 -0.4474 -0.0414 -0.2220
17463TIP3    H173804   2.544   2.966   1.291 -0.2186 -2.2956 -0.3077
17463TIP3    H273805   2.433   2.865   1.271 -1.9438  0.0666 -3.0799
17464TIP3   OH273806   2.168   3.154  12.714 -0.1528  0.4320 -0.4455
17464TIP3    H173807   2.260   3.171  12.738  0.1675  1.0492 -2.0280
17464TIP3    H273808   2.169   3.148  12.619 -1.7033  0.0084 -0.4470
17465TIP3   OH273809   6.694   4.800  16.464 -0.0403 -0.1303  0.5004
17465TIP3    H173810   6.703   4.708  16.486  0.6262 -0.2125 -0.1154
17465TIP3    H273811   6.704   4.846  16.548 -1.0289 -0.6501  0.9097
17466TIP3   OH273812   3.019   6.116   3.407 -0.1421  0.5057 -0.1226
17466TIP3    H173813   3.046   6.194   3.358  0.8942  0.6877  0.7242
17466TIP3    H273814   2.975   6.150   3.484 -0.4952  0.2391 -0.2067
17467TIP3   OH273815   1.522   6.587   6.026 -0.0538 -0.0344 -0.5795
17467TIP3    H173816   1.457   6.613   6.091  0.6140  0.6871 -0.1944
17467TIP3    H273817   1.599   6.561   6.078  1.2665  2.6645 -1.1150
17468TIP3   OH273818   2.062   3.907  15.374 -0.2595  0.0163 -0.3363
17468TIP3    H173819   2.076   3.837  15.438  2.1500  0.9280  0.2128
17468TIP3    H273820   2.023   3.978  15.424 -1.3165 -0.3807 -0.5784
17469TIP3   OH273821   6.410   5.736  11.901  0.6149  0.0002  0.1478
17469TIP3    H173822   6.436   5.653  11.941  1.1044 -0.3195 -0.7999
17469TIP3    H273823   6.326   5.717  11.859 -1.0771  0.9589  2.9745
17470TIP3   OH273824   5.835   6.592   0.245 -0.1419  0.2179  0.2695
17470TIP3    H173825   5.862   6.670   0.294  1.4123 -1.1739  1.7026
17470TIP3    H273826   5.845   6.617   0.154 -0.6328  2.0204  0.6795
17471TIP3   OH273827   4.776   0.789  11.962 -0.3559  0.4064 -0.3409
17471TIP3    H173828   4.775   0.705  12.008  2.4119  0.4634 -0.0730
17471TIP3    H273829   4.785   0.765  11.869 -0.5999  0.3951 -0.3627
17472TIP3   OH273830   1.696   3.988   0.546  0.0552 -0.1560 -0.4847
17472TIP3    H173831   1.706   3.901   0.506  0.8447 -0.0336 -0.5714
17472TIP3    H273832   1.746   4.046   0.489 -0.2176  0.3015 -0.2526
17473TIP3   OH273833   0.709   2.641  12.103  0.3878 -0.2719  0.0210
17473TIP3    H173834   0.727   2.617  12.012 -0.7132  0.2799 -0.3563
17473TIP3    H273835   0.741   2.731  12.111  2.0606 -0.9060  0.6772
17474TIP3   OH273836   1.414   6.136   5.090  0.4840  0.3502  0.2660
17474TIP3    H173837   1.463   6.189   5.154  0.8524  0.1954  0.1134
17474TIP3    H273838   1.361   6.077   5.144 -0.3271  1.2266  0.4445
17475TIP3   OH273839   3.121   2.396  16.326  0.0582 -0.1168  0.0086
17475TIP3    H173840   3.097   2.352  16.407 -2.0605  0.3505 -0.3320
17475TIP3    H273841   3.085   2.484  16.335  0.8813  0.3280 -0.9298
17476TIP3   OH273842   2.722   5.568  11.128  0.5559 -0.4577  0.0906
17476TIP3    H173843   2.629   5.543  11.127 -0.1516  2.0269 -0.2036
17476TIP3    H273844   2.726   5.642  11.189  2.3298 -0.4365 -0.0249
17477TIP3   OH273845   0.359   3.163   5.979 -0.4294  0.3451 -0.0756
17477TIP3    H173846   0.301   3.181   6.053  1.9175  1.2099  1.5947
17477TIP3    H273847   0.353   3.242   5.925  0.5192  1.1505  0.9877
17478TIP3   OH273848   3.426   1.384   2.941  0.2155 -0.3350 -0.6359
17478TIP3    H173849   3.358   1.347   2.885 -0.2002 -2.4294  1.1912
17478TIP3    H273850   3.377   1.429   3.010  0.7129  0.2459 -0.6583
17479TIP3   OH273851   3.380   6.062  12.252 -0.3466  0.0229  0.3020
17479TIP3    H173852   3.464   6.025  12.278 -1.3687 -2.3641  0.3695
17479TIP3    H273853   3.334   6.079  12.334 -1.0869 -1.5179  0.2218
17480TIP3   OH273854   2.427   4.360   2.236 -0.1787 -0.2227  0.0327
17480TIP3    H173855   2.358   4.371   2.171 -1.6266  0.1707  1.6046
17480TIP3    H273856   2.412   4.273   2.273  1.9451 -1.3386 -1.6255
17481TIP3   OH273857   0.041   4.208   2.098  0.6043 -0.7038  0.0345
17481TIP3    H173858   0.059   4.162   2.016  0.2168 -1.5153  0.3953
17481TIP3    H273859  -0.054   4.207   2.106  0.5857  0.3280 -0.0456
17482TIP3   OH273860   4.241   3.754   1.689 -0.2603  0.5730 -0.5967
17482TIP3    H173861   4.244   3.769   1.594 -1.0043  1.2593 -0.5167
17482TIP3    H273862   4.228   3.841   1.726 -0.0562  0.2927  0.1378
17483TIP3   OH273863   2.867   0.377   1.983 -0.3716 -0.0068  0.0782
17483TIP3    H173864   2.957   0.351   1.960 -0.6080 -1.4444  0.7526
17483TIP3    H273865   2.862   0.363   2.078 -1.3408 -0.0119  0.0235
17484TIP3   OH273866   0.018   2.326   1.054  0.1138  0.5111  0.0466
17484TIP3    H173867  -0.001   2.386   0.982 -0.6853 -0.5140 -0.6063
17484TIP3    H273868   0.092   2.274   1.023 -0.6235 -0.3541 -0.3122
17485TIP3   OH273869   5.276   4.980   3.842 -0.0387 -0.4902  0.5075
17485TIP3    H173870   5.321   4.931   3.773  0.1000  0.4326 -0.0696
17485TIP3    H273871   5.311   4.944   3.923  0.1742 -1.2374  0.0948
17486TIP3   OH273872   2.275   3.232   4.942  0.6399  0.8190 -0.0921
17486TIP3    H173873   2.298   3.151   4.988  0.6114  0.5966 -0.4686
17486TIP3    H273874   2.358   3.266   4.909  0.7001  1.1414  0.3877
17487TIP3   OH273875   1.112   2.870   1.253 -0.0326  0.6667  0.5190
17487TIP3    H173876   1.160   2.853   1.334  0.6439 -0.4377 -0.1050
17487TIP3    H273877   1.037   2.810   1.257  0.1122  0.4659  0.2370
17488TIP3   OH273878   1.129   5.308  13.406  0.2568 -0.0149 -0.6153
17488TIP3    H173879   1.164   5.396  13.393 -2.1578  1.2374  0.9494
17488TIP3    H273880   1.063   5.298  13.337  0.2488 -0.4278 -0.5472
17489TIP3   OH273881   6.735   4.202  13.956 -0.4217  0.1536  0.4384
17489TIP3    H173882   6.768   4.274  13.901 -0.3986  1.0078  1.5617
17489TIP3    H273883   6.642   4.222  13.966 -0.8266 -1.0062 -0.8051
17490TIP3   OH273884   4.684   5.151   5.471 -0.1373  0.0451 -0.4937
17490TIP3    H173885   4.774   5.152   5.437 -0.2579 -0.3600 -0.8261
17490TIP3    H273886   4.687   5.209   5.548  0.8904 -1.4952  0.6759
17491TIP3   OH273887   5.164   4.824  14.705  0.2468 -0.2151  0.3006
17491TIP3    H173888   5.081   4.792  14.668  0.3068 -0.1433  0.1067
17491TIP3    H273889   5.194   4.753  14.762 -0.0990 -0.1214  0.6024
17492TIP3   OH273890   4.998   5.785  11.802 -0.0337 -0.6296 -0.5281
17492TIP3    H173891   5.089   5.758  11.807 -0.4170 -1.9144 -0.3360
17492TIP3    H273892   4.962   5.766  11.889 -0.4389  0.0508 -0.5402
17493TIP3   OH273893   0.960   1.204  12.223  0.7277  0.3930 -0.8036
17493TIP3    H173894   0.930   1.280  12.172 -1.8606 -0.2153 -0.2549
17493TIP3    H273895   1.002   1.242  12.300 -1.0348  1.2948 -0.2596
17494TIP3   OH273896   2.613   5.777  14.781 -0.0308  0.4872 -0.1841
17494TIP3    H173897   2.558   5.854  14.791 -0.4333  0.3393 -1.1830
17494TIP3    H273898   2.572   5.726  14.711  0.2623 -0.6102  0.4193
17495TIP3   OH273899   6.731   4.266   4.871  0.0718 -0.0268  0.1941
17495TIP3    H173900   6.740   4.188   4.927  1.5029  1.5648  2.2738
17495TIP3    H273901   6.797   4.253   4.803 -0.6442 -1.2872 -0.2651
17496TIP3   OH273902   3.773   4.510  16.626 -0.5786  0.5260  0.9683
17496TIP3    H173903   3.685   4.498  16.661 -0.4804 -0.7017  0.8510
17496TIP3    H273904   3.822   4.435  16.661 -0.3270 -0.4023 -1.3101
17497TIP3   OH273905   3.705   1.566   5.512  0.3402  0.5880  0.8722
17497TIP3    H173906   3.711   1.640   5.573  1.4860  0.8550  0.4559
17497TIP3    H273907   3.777   1.508   5.538  1.2585  1.0214 -0.6205
17498TIP3   OH273908   4.230   5.688  16.577  0.0848  0.6531 -0.5820
17498TIP3    H173909   4.201   5.608  16.620  1.6075  0.4448  0.0986
17498TIP3    H273910   4.322   5.698  16.604 -0.5618  3.5404  0.7288
17499TIP3   OH273911   3.457   2.424   3.515  0.8264 -0.0879 -0.4157
17499TIP3    H173912   3.394   2.403   3.583  1.4086 -0.8305 -0.0945
17499TIP3    H273913   3.404   2.459   3.443  0.0260 -0.9499 -0.2519
17500TIP3   OH273914   1.427   1.101  14.529 -0.2475  0.0867 -0.0111
17500TIP3    H173915   1.408   1.064  14.615  0.9462 -4.2333 -1.4463
17500TIP3    H273916   1.341   1.107  14.486 -0.6567  0.6302  0.8770
17501TIP3   OH273917   6.229   5.297  12.918  0.1864 -0.1076  0.6281
17501TIP3    H173918   6.268   5.284  13.004  2.0189  0.8538 -0.0302
17501TIP3    H273919   6.169   5.371  12.930  2.2754  1.6487  0.5546
17502TIP3   OH273920   2.655   3.674  16.202  0.3334 -0.2854 -0.3017
17502TIP3    H173921   2.562   3.686  16.222  0.4603  2.0231 -0.9596
17502TIP3    H273922   2.655   3.635  16.114 -0.0384 -3.2969  0.9627
17503TIP3   OH273923   4.946   1.344   4.504 -0.0690  0.3454 -0.0461
17503TIP3    H173924   4.985   1.424   4.469 -1.6521  1.0533 -0.1978
17503TIP3    H273925   5.015   1.308   4.561  0.2858  2.3607  0.8725
17504TIP3   OH273926   2.117   5.328   5.221  0.0122  0.2399  0.1133
17504TIP3    H173927   2.206   5.309   5.253 -0.0737 -0.7608 -0.1991
17504TIP3    H273928   2.064   5.334   5.300  0.0437 -0.9205  0.2432
17505TIP3   OH273929   5.799   5.471   2.904  0.1840  0.7253  0.2766
17505TIP3    H173930   5.705   5.468   2.922  0.6505  2.0093  3.2640
17505TIP3    H273931   5.808   5.535   2.834 -1.1302  0.7117  0.0751
17506TIP3   OH273932   6.626   6.416   3.141  0.1467  0.1151  0.0074
17506TIP3    H173933   6.606   6.507   3.118  1.6510  0.7693  1.1731
17506TIP3    H273934   6.676   6.383   3.066  0.8546  0.7017  0.2221
17507TIP3   OH273935   4.821   5.146   2.714 -0.5523  0.1054  0.2892
17507TIP3    H173936   4.883   5.217   2.698  1.1927 -0.9039  2.4046
17507TIP3    H273937   4.845   5.078   2.652  1.1143 -0.6640  1.7442
17508TIP3   OH273938   1.000   6.491   5.375  0.3494  0.5017 -0.4679
17508TIP3    H173939   1.059   6.549   5.327  0.5563  0.4993 -0.2212
17508TIP3    H273940   0.999   6.526   5.464  0.2535  0.2960 -0.3871
17509TIP3   OH273941   4.931   3.596   4.080 -0.2672 -0.3034  0.7876
17509TIP3    H173942   5.014   3.556   4.108 -0.7773 -0.5418  1.9559
17509TIP3    H273943   4.923   3.572   3.987  0.4871 -1.0947  0.9231
17510TIP3   OH273944   1.336   2.233   4.525  0.2405 -0.2125  0.1697
17510TIP3    H173945   1.429   2.223   4.546  0.3516  0.5775  0.0824
17510TIP3    H273946   1.295   2.254   4.609  0.4712  1.5443 -0.1293
17511TIP3   OH273947   6.057   0.469   1.505 -0.3537  0.0322 -0.3897
17511TIP3    H173948   5.974   0.510   1.482  0.7317  1.7755 -1.3271
17511TIP3    H273949   6.110   0.541   1.539  1.4252 -0.6897 -1.5939
17512TIP3   OH273950   6.289   4.695   1.247 -0.2746  0.1804 -0.3260
17512TIP3    H173951   6.208   4.741   1.227 -0.2009  0.6918  0.5208
17512TIP3    H273952   6.300   4.706   1.342  0.6106 -0.1639 -0.3845
17513TIP3   OH273953   1.797   2.235   1.709 -0.0489 -0.9143 -0.3224
17513TIP3    H173954   1.848   2.159   1.736 -0.9994 -0.9087  1.5279
17513TIP3    H273955   1.803   2.235   1.613  2.1543 -1.7773 -0.2099
17514TIP3   OH273956   4.959   1.414  13.719  0.4856 -0.3232 -0.0596
17514TIP3    H173957   4.887   1.372  13.673  0.1011  0.8480 -0.5583
17514TIP3    H273958   4.935   1.507  13.722  1.3970 -0.0993  0.8414
17515TIP3   OH273959   2.488   3.950  13.466 -0.1139 -0.3310  0.1311
17515TIP3    H173960   2.523   4.014  13.404 -0.3331 -0.5433 -0.2160
17515TIP3    H273961   2.443   4.003  13.532 -0.1517 -0.1184 -0.0651
17516TIP3   OH273962   1.638   6.429   2.801 -0.2241 -0.6145 -0.4648
17516TIP3    H173963   1.566   6.374   2.772 -0.2795 -0.9593  0.3055
17516TIP3    H273964   1.607   6.518   2.789 -0.2091 -0.7434 -1.5366
17517TIP3   OH273965   0.040   4.627  11.861  0.4185 -0.7077  0.5144
17517TIP3    H173966   0.111   4.673  11.816  0.8742 -0.9613  0.9679
17517TIP3    H273967   0.060   4.637  11.954 -1.8054  1.8986  0.7794
17518TIP3   OH273968   2.658   4.338  15.733  0.1367  0.6761  0.1915
17518TIP3    H173969   2.703   4.416  15.767  0.4050  0.6364 -0.0709
17518TIP3    H273970   2.659   4.277  15.806  1.0477  0.4556 -0.0040
17519TIP3   OH273971   1.592   6.152  16.458 -0.4645 -0.5398 -0.2607
17519TIP3    H173972   1.601   6.076  16.517 -0.4280 -0.5949 -0.3379
17519TIP3    H273973   1.542   6.118  16.384  1.1775 -0.9834 -1.1827
17520TIP3   OH273974   0.158   2.684   3.058 -0.0072 -0.1244 -0.3370
17520TIP3    H173975   0.201   2.612   3.012 -2.8416 -1.0020 -1.7612
17520TIP3    H273976   0.139   2.748   2.990  1.9862  1.7506  0.8341
17521TIP3   OH273977   1.348   2.052   1.589 -0.0836 -0.0493  0.0243
17521TIP3    H173978   1.371   1.959   1.589  0.6842  0.1306 -0.0044
17521TIP3    H273979   1.267   2.058   1.539  1.6329 -0.2742 -2.8625
17522TIP3   OH273980   4.671   6.324   2.380  0.0309  0.1840  0.3729
17522TIP3    H173981   4.755   6.325   2.425 -1.0279  0.2877  2.4454
17522TIP3    H273982   4.675   6.397   2.319  0.8969  1.0898  1.5057
17523TIP3   OH273983   0.727   4.826   5.222  0.5537  0.4320  0.1499
17523TIP3    H173984   0.697   4.840   5.312  1.5978 -1.1539  0.7846
17523TIP3    H273985   0.775   4.743   5.226  0.9466  0.5380 -1.8006
17524TIP3   OH273986   0.003   5.061   1.134 -0.3171  0.4147 -0.4815
17524TIP3    H173987  -0.017   5.106   1.216 -0.4824  0.5074 -0.5734
17524TIP3    H273988   0.082   5.105   1.102 -1.0352  1.2957 -1.0653
17525TIP3   OH273989   3.623   0.314  11.800  0.1455 -0.4856  0.0710
17525TIP3    H173990   3.533   0.325  11.768  0.1545  0.0158  0.2193
17525TIP3    H273991   3.614   0.307  11.895  0.3043 -0.0362  0.1166
17526TIP3   OH273992   0.264   3.039   3.598  0.5939 -0.4185 -0.4380
17526TIP3    H173993   0.339   2.983   3.579  1.7529  0.8374  0.3803
17526TIP3    H273994   0.219   3.049   3.514  0.3307 -2.5912 -0.6029
17527TIP3   OH273995   5.940   0.222   1.848 -0.5845 -0.2140 -0.3516
17527TIP3    H173996   5.947   0.219   1.753  2.2629  0.5296 -0.1989
17527TIP3    H273997   5.846   0.225   1.865 -1.1327 -0.6030 -3.1200
17528TIP3   OH273998   1.391   5.447  17.087  0.4678  0.0658 -0.5157
17528TIP3    H173999   1.303   5.419  17.112  0.4944 -0.9331 -1.4587
17528TIP3    H274000   1.439   5.365  17.074  1.8396  0.6010  0.9766
17529TIP3   OH274001   1.365   0.207  14.252  0.3897  0.0804 -0.2083
17529TIP3    H174002   1.327   0.176  14.334  0.2555 -0.5541 -0.5159
17529TIP3    H274003   1.308   0.173  14.184 -0.4676  1.9958 -0.4946
17530TIP3   OH274004   1.739   6.562   2.059  0.0892 -0.3204  0.0129
17530TIP3    H174005   1.687   6.642   2.058  0.5285  0.0438  2.3665
17530TIP3    H274006   1.733   6.528   1.970 -3.0244  0.4291 -0.1192
17531TIP3   OH274007   5.394   2.393  14.461 -0.3150 -0.6446 -0.5557
17531TIP3    H174008   5.472   2.340  14.479  0.2395  0.3534  0.0309
17531TIP3    H274009   5.322   2.330  14.461  0.0670 -1.1363  2.1725
17532TIP3   OH274010   3.908   1.918  15.332 -0.0851  0.0643  0.3375
17532TIP3    H174011   3.975   1.854  15.354  2.5932  2.1003 -1.5188
17532TIP3    H274012   3.917   1.987  15.397  0.9666  1.2459 -1.0186
17533TIP3   OH274013   6.638   5.624  11.553  0.1073  0.1153 -0.5893
17533TIP3    H174014   6.689   5.620  11.472 -0.2525 -1.8708 -0.7408
17533TIP3    H274015   6.677   5.557  11.609 -2.0410 -1.0974 -0.5292
17534TIP3   OH274016   0.549   3.201   3.043 -0.0387 -0.9271 -0.5447
17534TIP3    H174017   0.581   3.121   3.083 -0.8212 -1.3984 -0.8450
17534TIP3    H274018   0.454   3.194   3.048 -0.1028  0.3416  0.1219
17535TIP3   OH274019   6.139   2.214   6.314 -0.2676  0.6263  0.8369
17535TIP3    H174020   6.057   2.167   6.304 -0.1066  0.3059  1.0157
17535TIP3    H274021   6.117   2.306   6.295 -0.9200  0.7398  2.0783
17536TIP3   OH274022   6.512   1.766  12.912 -0.3197  0.0744  0.3431
17536TIP3    H174023   6.573   1.758  12.839  0.0450 -0.9189  0.7421
17536TIP3    H274024   6.460   1.844  12.892  0.4377  0.3782 -0.4781
17537TIP3   OH274025   1.107   2.443   2.175  0.0984 -0.1123 -0.5670
17537TIP3    H174026   1.118   2.360   2.220  0.9824 -0.1593 -0.8485
17537TIP3    H274027   1.193   2.485   2.180 -0.7538  1.5115  0.9762
17538TIP3   OH274028   0.840   5.537   0.332  0.1091  0.1927 -0.1789
17538TIP3    H174029   0.883   5.546   0.247 -0.7609  0.4080 -0.6054
17538TIP3    H274030   0.905   5.566   0.395  0.8571 -0.2286 -0.7540
17539TIP3   OH274031   2.992   6.083   5.774  0.0183  0.0643  0.8726
17539TIP3    H174032   3.010   6.149   5.841  0.5745  1.6780 -0.8196
17539TIP3    H274033   2.926   6.123   5.718  1.3815 -0.2194 -0.9850
17540TIP3   OH274034   3.865   2.857  13.390  0.1927 -0.4278  0.5668
17540TIP3    H174035   3.948   2.810  13.389  0.4934  0.0793 -1.1728
17540TIP3    H274036   3.845   2.871  13.297 -2.0397 -0.9092  0.9444
17541TIP3   OH274037   3.400   4.090  16.323  0.0863 -0.6541 -0.0467
17541TIP3    H174038   3.490   4.105  16.352 -0.0737 -2.0331  1.2272
17541TIP3    H274039   3.409   4.058  16.233  0.8008  0.1707 -0.2765
17542TIP3   OH274040   6.745   5.959   1.117 -0.1373  0.1013  0.0079
17542TIP3    H174041   6.771   5.979   1.207 -0.1837  1.3489 -0.2425
17542TIP3    H274042   6.678   6.024   1.097 -0.3687 -0.3927 -0.8146
17543TIP3   OH274043   5.267   1.551   0.004  0.1186  0.0737 -0.7324
17543TIP3    H174044   5.202   1.492  -0.036  0.2311 -0.3779 -0.2643
17543TIP3    H274045   5.301   1.501   0.078  0.8851  0.3743 -0.8765
17544TIP3   OH274046   0.940   3.955   2.080 -0.4906  0.2836  0.7238
17544TIP3    H174047   0.877   3.927   2.013  0.5946  0.8943 -0.5729
17544TIP3    H274048   0.890   3.955   2.161 -1.3961 -2.1885  0.2177
17545TIP3   OH274049   2.529   0.601   1.014  0.4677 -0.4842 -0.0389
17545TIP3    H174050   2.531   0.567   0.925  1.0412  0.4193 -0.3695
17545TIP3    H274051   2.439   0.587   1.043  0.4117 -1.2550 -0.5691
17546TIP3   OH274052   4.131   4.310   4.142  0.5873 -0.6208  0.1026
17546TIP3    H174053   4.076   4.367   4.197 -1.0109 -1.0315 -1.0162
17546TIP3    H274054   4.205   4.365   4.118 -0.2081  0.5394  0.2360
17547TIP3   OH274055   4.628   3.193   0.842 -0.1265  0.0256  0.5622
17547TIP3    H174056   4.633   3.185   0.746  0.1420 -0.4579  0.6172
17547TIP3    H274057   4.717   3.214   0.869  0.1317 -1.3795  0.8505
17548TIP3   OH274058   6.219   1.948  10.518 -0.1397 -0.4802  0.2784
17548TIP3    H174059   6.235   2.011  10.588  1.1856 -1.2497  0.6898
17548TIP3    H274060   6.305   1.936  10.477 -0.8472 -0.2422 -1.3178
17549TIP3   OH274061   2.073   0.857  14.403  0.0008  0.1594 -0.1263
17549TIP3    H174062   2.098   0.944  14.434  1.5121 -0.5946  0.8124
17549TIP3    H274063   1.981   0.866  14.378 -0.1886  1.7194  1.0855
17550TIP3   OH274064   0.085   4.397  16.531  0.7208  0.3941  0.1529
17550TIP3    H174065   0.129   4.369  16.611  1.0188  0.6646  0.0863
17550TIP3    H274066   0.022   4.464  16.559 -1.6138 -1.9105  0.6380
17551TIP3   OH274067   2.667   0.434  11.219 -0.1463 -0.5931 -0.2793
17551TIP3    H174068   2.661   0.489  11.140  0.5094  1.6579  1.2075
17551TIP3    H274069   2.577   0.405  11.234 -1.0734  2.4651  0.5333
17552TIP3   OH274070   1.009   6.678  16.790  0.1797  0.1636  0.0565
17552TIP3    H174071   1.087   6.630  16.762 -0.0960 -0.0293 -0.3828
17552TIP3    H274072   0.990   6.644  16.878  1.6553  1.5123  0.9438
17553TIP3   OH274073   3.185   0.990  12.390  0.1270 -0.1975  0.4819
17553TIP3    H174074   3.119   0.923  12.375  1.1680 -1.4954  1.5430
17553TIP3    H274075   3.268   0.947  12.369  0.6996  1.1706 -0.1100
17554TIP3   OH274076   6.675   0.987  14.758 -0.3613 -0.3353 -0.4110
17554TIP3    H174077   6.672   0.925  14.831  1.9729 -1.8806 -1.5621
17554TIP3    H274078   6.693   1.071  14.799  0.7476 -1.1556  0.8518
17555TIP3   OH274079   2.089   6.556  13.534  0.3988  0.3609  0.1557
17555TIP3    H174080   2.046   6.599  13.608 -0.5299  1.0841 -0.7885
17555TIP3    H274081   2.149   6.621  13.499 -0.1949  0.5207 -0.5875
17556TIP3   OH274082   2.400   1.318  15.837 -0.0840 -0.3946  0.2523
17556TIP3    H174083   2.364   1.322  15.925 -0.3723  0.8649  0.0905
17556TIP3    H274084   2.435   1.230  15.829  2.2079  0.2598  2.5261
17557TIP3   OH274085   6.496   4.605   4.836 -0.0894 -0.2213  0.0588
17557TIP3    H174086   6.475   4.682   4.784 -1.7764 -0.6419  0.0983
17557TIP3    H274087   6.510   4.639   4.925 -0.9830  0.0160  0.1090
17558TIP3   OH274088   2.446   6.587   0.189 -0.2544  0.0616 -0.2800
17558TIP3    H174089   2.454   6.495   0.164  0.4915 -0.0360  0.2731
17558TIP3    H274090   2.519   6.630   0.144  1.6660 -0.2756  2.3553
17559TIP3   OH274091   5.501   2.998  16.433  0.0058 -0.5701  0.3261
17559TIP3    H174092   5.494   2.909  16.399  1.8503 -1.4768  2.2463
17559TIP3    H274093   5.593   3.020  16.424 -0.4946  1.3034 -0.4624
17560TIP3   OH274094   0.621   0.535   4.309 -0.1046  0.6208 -0.3192
17560TIP3    H174095   0.622   0.553   4.215  1.1724  0.2174 -0.3853
17560TIP3    H274096   0.619   0.622   4.350  2.0641  0.8706 -0.6893
17561TIP3   OH274097   2.068   3.498   2.939 -0.0976 -0.1119  0.0685
17561TIP3    H174098   2.162   3.493   2.926 -0.3241 -1.1148 -1.3555
17561TIP3    H274099   2.057   3.552   3.017  1.5839  1.3943 -0.6933
17562TIP3   OH274100   1.286   4.538   0.188 -0.2119  0.2102 -0.5008
17562TIP3    H174101   1.302   4.515   0.097 -0.0783  1.7528 -0.8875
17562TIP3    H274102   1.357   4.496   0.237  1.6802  2.1593 -1.5173
17563TIP3   OH274103   1.040   5.746   4.447  0.1440  0.2484  0.0075
17563TIP3    H174104   1.085   5.828   4.427  2.0531 -0.4836  1.2240
17563TIP3    H274105   0.951   5.773   4.469  0.2768  1.8241 -1.2746
17564TIP3   OH274106   1.939   6.271  16.875  0.2219 -0.0299 -0.4208
17564TIP3    H174107   1.929   6.320  16.793 -0.5775  0.1621 -0.2099
17564TIP3    H274108   1.935   6.179  16.848  0.3067  0.0315 -0.6411
17565TIP3   OH274109   0.959   4.679   3.129 -0.0140  0.4071 -0.4935
17565TIP3    H174110   0.948   4.765   3.171  0.3398 -0.0930  0.6194
17565TIP3    H274111   1.051   4.657   3.143 -0.2661 -0.4626 -0.1769
17566TIP3   OH274112   3.161   1.854  14.544  0.4206  0.4194 -0.2301
17566TIP3    H174113   3.153   1.760  14.559  0.1800  0.4437 -0.2118
17566TIP3    H274114   3.153   1.893  14.631  0.0336  0.4897 -0.2956
17567TIP3   OH274115   1.749   3.217  16.784 -0.4087  0.1307 -0.2029
17567TIP3    H174116   1.752   3.286  16.718 -0.4914  0.7847  0.4690
17567TIP3    H274117   1.786   3.257  16.862  0.2297 -0.8228 -0.0126
17568TIP3   OH274118   6.161   0.750   0.073  0.1560 -0.0666 -0.1725
17568TIP3    H174119   6.204   0.827   0.036  1.9049 -0.3880  1.1195
17568TIP3    H274120   6.084   0.785   0.119  0.7267  0.8625  0.0890
17569TIP3   OH274121   1.686   0.043  15.661 -0.0649  0.2426  0.1177
17569TIP3    H174122   1.734   0.073  15.584 -2.1364  1.3777 -0.7634
17569TIP3    H274123   1.754   0.031  15.728  1.5761  0.6931 -1.4243
17570TIP3   OH274124   0.514   2.043   3.150  0.6362  0.2665  0.0755
17570TIP3    H174125   0.444   2.072   3.209  0.0143  0.0882 -0.5642
17570TIP3    H274126   0.572   2.119   3.142 -1.2916  1.5754 -2.0392
17571TIP3   OH274127   3.001   0.319   1.379 -0.0931  0.1638 -0.2691
17571TIP3    H174128   2.907   0.333   1.384 -0.2085 -0.4817 -0.5269
17571TIP3    H274129   3.017   0.240   1.431  0.6190  1.5441  1.6483
17572TIP3   OH274130   0.089   5.858   2.011  0.6069  0.4104 -0.0009
17572TIP3    H174131   0.008   5.902   2.038 -0.8646 -2.1946 -0.0928
17572TIP3    H274132   0.159   5.912   2.048 -1.1186  3.2156 -0.6859
17573TIP3   OH274133   0.878   5.420  16.044 -0.2854 -0.2595 -0.3242
17573TIP3    H174134   0.874   5.478  15.967  0.4343 -1.2833 -1.1556
17573TIP3    H274135   0.871   5.479  16.119 -1.4090  0.7277 -1.1758
17574TIP3   OH274136   2.148   0.240  13.075 -0.4524  0.6726 -0.6454
17574TIP3    H174137   2.198   0.300  13.020 -0.3443  0.4547 -0.7907
17574TIP3    H274138   2.213   0.206  13.137 -0.3016  0.0253 -1.1384
17575TIP3   OH274139   6.374   2.175  15.579  0.1852 -0.0759  0.6339
17575TIP3    H174140   6.463   2.209  15.589  0.7325 -1.0509 -0.7752
17575TIP3    H274141   6.385   2.081  15.567 -0.9312 -0.0277 -0.9627
17576TIP3   OH274142   5.854   6.472  16.029  0.1367  0.1233 -0.2737
17576TIP3    H174143   5.772   6.441  15.993  1.0136 -1.6016 -0.8342
17576TIP3    H274144   5.894   6.394  16.068 -0.2875  1.6920  3.5108
17577TIP3   OH274145   4.867   4.447   4.384 -0.3419  0.6653 -0.6423
17577TIP3    H174146   4.832   4.362   4.358  0.3543  0.9259 -2.5394
17577TIP3    H274147   4.803   4.510   4.351 -0.5515  0.8948  0.2158
17578TIP3   OH274148   5.011   5.418   0.956  0.4601 -0.1072  0.1072
17578TIP3    H174149   4.992   5.511   0.940 -0.8187 -0.6886 -1.8798
17578TIP3    H274150   4.934   5.384   1.000  0.5188 -0.4438 -0.0452
17579TIP3   OH274151   5.845   4.621   1.505  0.1021  0.1396  0.1009
17579TIP3    H174152   5.913   4.615   1.438 -0.9103 -0.1445 -0.9098
17579TIP3    H274153   5.839   4.533   1.541 -0.0745  0.0408 -0.1637
17580TIP3   OH274154   1.361   1.341   2.460 -0.4848  0.3801 -0.2869
17580TIP3    H174155   1.409   1.275   2.409  0.4600 -0.0710  1.1312
17580TIP3    H274156   1.321   1.398   2.395  0.3295 -0.4384 -1.5249
17581TIP3   OH274157   5.983   6.661  16.896 -0.0675 -0.5700 -0.0189
17581TIP3    H174158   6.025   6.630  16.976  0.1164  0.4780  0.3038
17581TIP3    H274159   5.989   6.588  16.835 -0.5103 -1.4969  1.0392
17582TIP3   OH274160   3.815   0.481  11.939 -0.3670  0.0292  0.2007
17582TIP3    H174161   3.757   0.549  11.904 -0.7087 -1.2475 -1.7962
17582TIP3    H274162   3.858   0.444  11.862  2.3325  0.2410  1.5796
17583TIP3   OH274163   0.170   2.788  11.368  0.3712 -0.0876  0.4543
17583TIP3    H174164   0.132   2.765  11.283 -0.0442 -0.2832  0.6924
17583TIP3    H274165   0.108   2.851  11.405  0.4335 -0.1786  0.7117
17584TIP3   OH274166   2.962   0.317  13.703 -0.0421 -0.3909  0.0208
17584TIP3    H174167   2.888   0.370  13.672 -0.4728 -1.4972 -0.8727
17584TIP3    H274168   3.006   0.290  13.623 -0.0643 -1.7257  0.4537
17585TIP3   OH274169   0.093   2.570  16.495  0.1132 -0.1298  0.2269
17585TIP3    H174170   0.083   2.540  16.405 -1.8991  1.2640 -0.0463
17585TIP3    H274171   0.131   2.496  16.542 -0.9954 -1.6682 -1.2789
17586TIP3   OH274172   4.039   2.409   0.429 -0.0078  0.0879 -0.6883
17586TIP3    H174173   4.048   2.442   0.519  1.4768 -0.2549 -0.7027
17586TIP3    H274174   4.022   2.487   0.376 -0.9959  0.2790 -0.1055
17587TIP3   OH274175   3.579   1.368  12.104  0.8124 -0.1318  0.1168
17587TIP3    H174176   3.565   1.426  12.030 -1.2643 -0.2587  0.3901
17587TIP3    H274177   3.551   1.282  12.073 -0.2128 -0.1638  1.0732
17588TIP3   OH274178   1.545   1.254   4.513  1.0150  0.1318  0.0688
17588TIP3    H174179   1.571   1.333   4.464  0.5839 -0.0554 -0.4727
17588TIP3    H274180   1.505   1.288   4.593 -2.2322  0.5998 -1.6505
17589TIP3   OH274181   4.772   4.169  10.715  0.1900 -0.6277 -0.7904
17589TIP3    H174182   4.806   4.200  10.799 -0.2365  0.7553 -1.1244
17589TIP3    H274183   4.677   4.177  10.723  0.0482 -2.0816 -0.8005
17590TIP3   OH274184   3.817   4.236  16.933 -0.0463 -0.0210  0.4180
17590TIP3    H174185   3.907   4.229  16.901 -0.2062  1.7909 -0.5267
17590TIP3    H274186   3.763   4.216  16.857 -0.4252  0.0840  0.6573
17591TIP3   OH274187   4.262   4.643  10.723  0.0404 -0.0607  0.1491
17591TIP3    H174188   4.320   4.717  10.744  0.2999 -0.1081 -0.4016
17591TIP3    H274189   4.205   4.636  10.800  2.5182 -1.7381  1.9085
17592TIP3   OH274190   4.135   4.241  11.400 -0.1347 -0.0148  0.5626
17592TIP3    H174191   4.091   4.171  11.448  0.9006 -1.1332 -0.0876
17592TIP3    H274192   4.140   4.209  11.310  1.0094  0.5648  0.4016
17593TIP3   OH274193   5.797   6.768   4.136  0.1716  0.3652  0.1076
17593TIP3    H174194   5.819   6.716   4.213  1.8716  0.3501 -0.3808
17593TIP3    H274195   5.840   6.852   4.150  0.6663  0.2878 -0.9261
17594TIP3   OH274196   4.179   3.178   4.975 -0.2144 -0.6864  0.4349
17594TIP3    H174197   4.177   3.088   5.008 -0.9951 -0.5240  0.8556
17594TIP3    H274198   4.254   3.218   5.019  0.0497 -1.0941  0.3576
17595TIP3   OH274199   5.551   6.733  14.563 -0.4792  0.1739  0.2474
17595TIP3    H174200   5.646   6.731  14.580 -0.2116 -0.0519 -1.2721
17595TIP3    H274201   5.512   6.742  14.650  1.0384  2.9239  0.7126
17596TIP3   OH274202   2.684   0.324  17.226 -0.3045 -0.0273  0.0589
17596TIP3    H174203   2.596   0.313  17.189 -0.8087  1.8108  0.6165
17596TIP3    H274204   2.704   0.416  17.212  2.6803 -0.9684 -2.4079
17597TIP3   OH274205   1.012   1.868  15.307  0.2459  0.0595 -0.0815
17597TIP3    H174206   1.002   1.780  15.342  1.9108  0.2192  0.8460
17597TIP3    H274207   0.982   1.862  15.216  1.0364 -1.6274 -0.2434
17598TIP3   OH274208   1.023   1.805   4.955 -0.2164 -0.2174 -0.7426
17598TIP3    H174209   1.097   1.785   4.897  0.0537  1.5301 -1.0120
17598TIP3    H274210   1.058   1.793   5.043 -0.2678 -1.6327 -0.9019
17599TIP3   OH274211   3.585   2.334   2.054  0.1323  0.5788 -0.1173
17599TIP3    H174212   3.548   2.247   2.071  2.0923 -0.0148  1.2225
17599TIP3    H274213   3.591   2.339   1.958 -2.0121  0.1135 -0.3002
17600TIP3   OH274214   0.041   2.740  13.262  0.0225 -0.4375  0.7027
17600TIP3    H174215  -0.038   2.742  13.208  0.5592 -1.1159 -0.1170
17600TIP3    H274216   0.017   2.686  13.338 -0.0276 -1.4076  0.0064
17601TIP3   OH274217   0.796   0.694  15.759  0.2428 -0.0760 -0.1857
17601TIP3    H174218   0.817   0.618  15.814 -2.2700 -0.8401 -0.1883
17601TIP3    H274219   0.855   0.687  15.684 -0.5438 -2.5528 -0.6119
17602TIP3   OH274220   5.684   6.152   5.023 -0.1099 -0.4453  0.1426
17602TIP3    H174221   5.651   6.190   5.104  0.1114 -0.5418  0.2786
17602TIP3    H274222   5.766   6.200   5.005  0.2546 -0.9661  0.4033
17603TIP3   OH274223   0.240   1.904   1.343  0.2225 -0.0123  0.1853
17603TIP3    H174224   0.158   1.953   1.352  1.4111  2.2705 -0.8320
17603TIP3    H274225   0.218   1.814   1.366 -3.1407  0.0648 -2.4109
17604TIP3   OH274226   5.544   5.540   5.972  0.8428 -0.0251 -1.2643
17604TIP3    H174227   5.614   5.584   5.923  2.1604  0.5827  1.1033
17604TIP3    H274228   5.575   5.449   5.981  0.8053 -0.0307 -1.1914
17605TIP3   OH274229   4.169   1.077   1.304  0.3667 -0.0988 -0.0991
17605TIP3    H174230   4.097   1.117   1.255  0.1785  0.3026  0.5037
17605TIP3    H274231   4.237   1.144   1.307  0.9182 -0.6108 -0.9934
17606TIP3   OH274232   6.210   5.480   3.615  0.2867 -0.2861  0.4123
17606TIP3    H174233   6.181   5.422   3.685 -0.7902 -1.8133 -1.2336
17606TIP3    H274234   6.131   5.528   3.590  0.1983 -1.1423 -1.0175
17607TIP3   OH274235   3.250   5.747  13.422 -0.4514  0.2340 -0.2468
17607TIP3    H174236   3.316   5.800  13.465 -0.2383 -1.1765  1.2197
17607TIP3    H274237   3.220   5.686  13.490  0.6791 -2.7699 -2.3376
17608TIP3   OH274238   0.235   5.203  14.695 -0.8694  0.3402 -0.1779
17608TIP3    H174239   0.142   5.184  14.701 -0.6666 -1.0363 -0.9286
17608TIP3    H274240   0.252   5.209  14.601 -0.2229  0.6746 -0.0446
17609TIP3   OH274241   0.634   6.119   5.853  0.0374  0.0100  0.1673
17609TIP3    H174242   0.705   6.055   5.858  0.1791  0.0864 -0.7842
17609TIP3    H274243   0.673   6.201   5.883  0.8289  0.4299 -1.9084
17610TIP3   OH274244   3.593   4.180  13.604 -0.5767  0.3881 -0.0146
17610TIP3    H174245   3.620   4.249  13.664  2.6852 -0.1838 -0.7078
17610TIP3    H274246   3.531   4.127  13.654 -0.6974  2.0188  1.5763
17611TIP3   OH274247   0.800   6.193  17.174  0.0807 -0.0728 -0.3608
17611TIP3    H174248   0.749   6.217  17.097 -4.2906 -0.9795  2.0824
17611TIP3    H274249   0.800   6.097  17.175 -0.0015 -0.0728  0.8220
17612TIP3   OH274250   3.874   3.571   1.191  0.2426 -0.0080  0.3203
17612TIP3    H174251   3.828   3.562   1.107  0.8698  2.1979 -0.2730
17612TIP3    H274252   3.810   3.613   1.249  0.9596  1.6417 -0.0629
17613TIP3   OH274253   3.723   6.104   0.208 -0.1738  0.3647 -0.0002
17613TIP3    H174254   3.634   6.088   0.176 -1.0555  1.5758  1.7649
17613TIP3    H274255   3.730   6.049   0.287 -0.2956  2.2392  1.3445
17614TIP3   OH274256   2.113   1.434   4.812 -0.0641  0.0059  0.4562
17614TIP3    H174257   2.088   1.458   4.723  1.3223  1.3494  0.3999
17614TIP3    H274258   2.054   1.484   4.868 -0.6110 -0.4593  0.2952
17615TIP3   OH274259   2.302   2.365  15.618  0.2653 -0.0735  0.2808
17615TIP3    H174260   2.326   2.430  15.684  0.2985  1.9726 -1.6965
17615TIP3    H274261   2.345   2.396  15.538  0.1736 -2.4779 -0.7259
17616TIP3   OH274262   6.591   2.821   5.683  0.4376  0.3449 -0.0774
17616TIP3    H174263   6.675   2.837   5.726 -0.2461 -0.0629  1.4242
17616TIP3    H274264   6.527   2.820   5.754 -0.7666  0.0902 -1.1499
17617TIP3   OH274265   4.954   3.628   3.771  1.0935  0.2258 -0.4504
17617TIP3    H174266   5.038   3.668   3.791  1.1549  0.2241 -0.7129
17617TIP3    H274267   4.892   3.702   3.770  0.9061  0.0969  0.7915
17618TIP3   OH274268   2.882   1.938  17.054  0.7900  0.5087  0.1088
17618TIP3    H174269   2.833   1.858  17.073 -1.2995  1.8186  0.4053
17618TIP3    H274270   2.962   1.930  17.105 -0.1731 -0.6199  1.4751
17619TIP3   OH274271   5.320   4.201  15.961 -0.2349 -0.2177  0.4133
17619TIP3    H174272   5.299   4.286  16.000 -0.0094 -0.0087  0.0768
17619TIP3    H274273   5.412   4.187  15.983 -0.4088 -0.6169  0.9164
17620TIP3   OH274274   0.976   1.082  13.489  0.0825 -0.7506  0.1053
17620TIP3    H174275   1.064   1.089  13.451  0.0761  0.6657  0.3283
17620TIP3    H274276   0.979   1.138  13.566 -1.3859  0.2987 -0.5867
17621TIP3   OH274277   4.753   2.838   1.572  0.1319 -0.3609 -0.1248
17621TIP3    H174278   4.791   2.760   1.531 -0.9181  0.0777 -1.9592
17621TIP3    H274279   4.781   2.910   1.517  0.5069  0.5075  1.1783
17622TIP3   OH274280   3.115   3.275   3.336  0.0053  0.0162  0.6568
17622TIP3    H174281   3.210   3.282   3.330 -0.2755  2.0308 -3.1851
17622TIP3    H274282   3.088   3.355   3.382  0.1831 -0.5825  1.7960
17623TIP3   OH274283   0.103   0.439   3.232 -0.6543 -0.4502 -0.5719
17623TIP3    H174284   0.151   0.438   3.315 -3.3283 -2.6992  1.0252
17623TIP3    H274285   0.099   0.532   3.208  1.4202  0.0935  1.0277
17624TIP3   OH274286   1.952   1.898  13.484 -0.2099  0.0120 -0.1057
17624TIP3    H174287   1.990   1.812  13.466  2.0945  0.9907 -0.1556
17624TIP3    H274288   2.017   1.941  13.540 -1.3625  1.6875 -0.0174
17625TIP3   OH274289   6.313   0.172   3.745 -0.3758 -0.0114 -0.4070
17625TIP3    H174290   6.279   0.206   3.663 -1.2988  0.5339  0.1924
17625TIP3    H274291   6.292   0.079   3.743 -0.8841  0.1052 -0.5507
17626TIP3   OH274292   1.213   6.257   6.288 -0.1139 -0.0965  0.4669
17626TIP3    H174293   1.180   6.173   6.255  0.2785 -0.3237  0.6424
17626TIP3    H274294   1.286   6.278   6.229  0.8809 -0.7231  1.4364
17627TIP3   OH274295   2.112   0.727  11.979 -0.1740 -0.0234  0.7440
17627TIP3    H174296   2.061   0.808  11.986  1.4909  1.1371 -0.3257
17627TIP3    H274297   2.061   0.672  11.920 -0.5741  0.8237  0.3006
17628TIP3   OH274298   5.256   2.787   6.408 -0.2733 -0.3883 -0.0014
17628TIP3    H174299   5.278   2.696   6.388  3.3317 -0.1217  2.2560
17628TIP3    H274300   5.197   2.781   6.483 -1.2559 -0.8714 -0.7966
17629TIP3   OH274301   3.932   3.843  11.175  0.6005  0.3635 -0.5395
17629TIP3    H174302   3.953   3.900  11.102  0.1898 -0.3957 -1.2578
17629TIP3    H274303   4.001   3.776  11.174  1.0716  0.8291  0.2863
17630TIP3   OH274304   2.649   1.843  12.042  0.2601  0.0969 -0.2557
17630TIP3    H174305   2.677   1.823  12.131  0.6313 -0.3483 -0.4758
17630TIP3    H274306   2.624   1.758  12.004  2.2873 -0.0534 -1.3471
17631TIP3   OH274307   1.232   5.290   4.323  0.0331 -0.2708  1.0116
17631TIP3    H174308   1.160   5.318   4.379  0.9527  0.9742  1.6058
17631TIP3    H274309   1.247   5.363   4.263 -1.9246 -2.1611 -1.9390
17632TIP3   OH274310   2.962   5.840  13.495 -0.7246 -0.0553 -0.1789
17632TIP3    H174311   3.054   5.827  13.469  0.0313  1.4675  1.6228
17632TIP3    H274312   2.965   5.911  13.559 -3.0873 -0.5105  0.4823
17633TIP3   OH274313   5.053   3.788  16.595  0.4562 -0.9060 -0.0561
17633TIP3    H174314   5.125   3.851  16.585  0.6239 -0.9176  0.9606
17633TIP3    H274315   5.055   3.736  16.515  1.6927 -1.0029  0.0236
17634TIP3   OH274316   0.554   6.371   4.151 -0.4636 -0.0103 -0.4027
17634TIP3    H174317   0.510   6.289   4.176 -0.0700 -0.2163 -0.3743
17634TIP3    H274318   0.486   6.423   4.110 -1.3231  0.6294  1.7476
17635TIP3   OH274319   5.312   3.655   5.738  0.0333  0.3246  0.3738
17635TIP3    H174320   5.383   3.668   5.675  0.0975  0.4237  0.4663
17635TIP3    H274321   5.304   3.560   5.746  0.1215  0.3133  0.3254
17636TIP3   OH274322   2.742   3.604  13.719 -0.0931  0.1355 -0.1480
17636TIP3    H174323   2.769   3.669  13.654 -0.1216 -0.2123 -0.5076
17636TIP3    H274324   2.665   3.642  13.760  1.1859  1.3531  1.2072
17637TIP3   OH274325   0.106   5.845  14.432  0.1932 -0.8939 -0.0350
17637TIP3    H174326   0.089   5.841  14.338  2.8660 -0.4758 -0.6014
17637TIP3    H274327   0.125   5.937  14.450 -2.7595 -0.5260  1.4324
17638TIP3   OH274328   5.397   0.698   5.063 -0.1082  0.1489 -0.3250
17638TIP3    H174329   5.472   0.670   5.010 -2.0726  1.9309 -4.3152
17638TIP3    H274330   5.429   0.773   5.112  1.8034 -1.6016  1.1859
17639TIP3   OH274331   5.922   0.294  12.628  0.0720 -0.2920  0.6285
17639TIP3    H174332   6.012   0.310  12.657  0.5577 -1.8865  0.0623
17639TIP3    H274333   5.867   0.330  12.697  1.1484  0.2594  1.2056
17640TIP3   OH274334   1.521   3.665  15.520 -0.6545  0.3789 -0.2763
17640TIP3    H174335   1.556   3.720  15.590  0.8248 -0.8436 -0.0466
17640TIP3    H274336   1.499   3.727  15.450  0.2630  1.3419  0.2696
17641TIP3   OH274337   6.163   0.552   0.966 -0.2589 -0.3525  0.0476
17641TIP3    H174338   6.239   0.496   0.981  1.0345  1.0970 -0.9096
17641TIP3    H274339   6.159   0.562   0.871 -0.9640  0.4962  0.1570
17642TIP3   OH274340   2.613   2.112  11.968 -0.0820  0.3212  0.1221
17642TIP3    H174341   2.631   2.018  11.966 -1.3811  0.0449  1.3767
17642TIP3    H274342   2.563   2.128  11.888  0.8767  0.1264 -0.5382
17643TIP3   OH274343   4.035   0.929   4.941  0.4670  0.0932  0.2250
17643TIP3    H174344   4.060   0.889   4.858  0.6841  0.1697  0.2526
17643TIP3    H274345   4.110   0.984   4.965  0.0339  0.7986  0.0008
17644TIP3   OH274346   6.223   3.124  12.296 -0.3172 -0.0880 -0.0214
17644TIP3    H174347   6.209   3.032  12.319  1.7209 -0.1026  1.3101
17644TIP3    H274348   6.169   3.173  12.357  2.8698 -0.2417  3.0803
17645TIP3   OH274349   2.240   0.110  16.398 -0.2270 -0.2885 -0.2977
17645TIP3    H174350   2.197   0.034  16.438  0.6433 -0.1582  0.9090
17645TIP3    H274351   2.260   0.168  16.471 -1.4174  1.4015 -1.2781
17646TIP3   OH274352   4.592   3.782  14.353 -0.2185  0.0932 -0.5254
17646TIP3    H174353   4.504   3.765  14.320 -0.4326  0.2095 -0.0214
17646TIP3    H274354   4.578   3.831  14.434  0.3170  0.3147 -0.5665
17647TIP3   OH274355   5.247   2.250  15.609 -0.6412  0.2611 -0.7231
17647TIP3    H174356   5.254   2.211  15.696 -1.3121  0.4602 -0.5776
17647TIP3    H274357   5.330   2.228  15.566  0.4066  1.5903  0.5412
17648TIP3   OH274358   0.729   1.865  14.434 -0.3309 -0.2888  0.0612
17648TIP3    H174359   0.822   1.888  14.426  0.0211 -1.7990 -0.2748
17648TIP3    H274360   0.709   1.878  14.527  0.2813 -0.2375  0.1881
17649TIP3   OH274361   5.912   2.116   3.926 -0.2797  0.0069  0.2492
17649TIP3    H174362   5.817   2.120   3.914 -0.0010  1.5640 -1.8551
17649TIP3    H274363   5.935   2.026   3.904 -1.3883 -0.7011  1.9002
17650TIP3   OH274364   4.306   3.006  16.615  0.3023  0.4457  0.2645
17650TIP3    H174365   4.379   3.066  16.601  2.1094 -1.6072  0.5586
17650TIP3    H274366   4.293   2.963  16.530 -0.4239  0.6328  0.2725
17651TIP3   OH274367   4.040   4.195  12.673  0.0674 -0.0662 -0.1681
17651TIP3    H174368   4.085   4.196  12.589 -1.7656  0.9407 -1.1589
17651TIP3    H274369   3.992   4.113  12.674  1.9353 -1.1960  0.9391
17652TIP3   OH274370   2.024   2.503  11.360 -0.4627 -0.5320  0.3857
17652TIP3    H174371   2.001   2.443  11.431 -0.6754 -0.5039  0.3408
17652TIP3    H274372   2.083   2.567  11.400 -0.4217 -0.6351  0.4885
17653TIP3   OH274373   5.004   6.093   5.125  0.7866  0.3651  0.1844
17653TIP3    H174374   4.966   6.056   5.204 -0.2045  1.7934  0.3871
17653TIP3    H274375   5.085   6.136   5.154 -0.1537  1.8655  0.6203
17654TIP3   OH274376   5.200   2.382   2.139  0.7475 -0.5662 -0.4521
17654TIP3    H174377   5.248   2.440   2.198  0.0715 -0.0630 -0.3923
17654TIP3    H274378   5.267   2.324   2.103  1.2259 -0.6334  0.5180
17655TIP3   OH274379   5.301   5.668   5.825 -0.1545  0.2300 -0.1380
17655TIP3    H174380   5.332   5.649   5.914  2.5029  0.0396 -1.0484
17655TIP3    H274381   5.259   5.587   5.796  0.4317 -0.2673  0.3796
17656TIP3   OH274382   1.947   2.550   4.764  0.0471  0.2723  0.1197
17656TIP3    H174383   1.923   2.514   4.679  2.0926  0.1659 -0.4179
17656TIP3    H274384   1.948   2.645   4.750 -0.7073  0.3194  0.3315
17657TIP3   OH274385   3.035   2.231  17.133  0.3505 -0.3859 -0.2227
17657TIP3    H174386   3.053   2.302  17.194  0.4729 -0.8856  0.3219
17657TIP3    H274387   3.108   2.170  17.143  0.4978 -0.3559 -1.0406
17658TIP3   OH274388   3.795   5.407   6.107  0.1364 -0.0154 -0.0186
17658TIP3    H174389   3.710   5.375   6.077 -0.9043  0.8762  1.8658
17658TIP3    H274390   3.801   5.495   6.071  1.4067 -0.9700 -2.2286
17659TIP3   OH274391   1.574   2.235  15.930  0.2502 -0.3330 -0.8853
17659TIP3    H174392   1.578   2.222  16.025  1.1332  0.5061 -0.8008
17659TIP3    H274393   1.526   2.316  15.919 -0.5039 -0.8142 -1.1944
17660TIP3   OH274394   4.854   6.680  16.827  0.1084 -0.3127  0.6109
17660TIP3    H174395   4.931   6.672  16.771 -1.1094 -1.7014 -0.9398
17660TIP3    H274396   4.795   6.610  16.797 -1.7003  0.6270  1.8344
17661TIP3   OH274397   5.065   2.477   0.163  0.4154 -0.2668  0.3443
17661TIP3    H174398   5.080   2.468   0.069  1.9207 -0.5895  0.6138
17661TIP3    H274399   5.148   2.506   0.199 -0.3049  0.4094  1.5151
17662TIP3   OH274400   0.627   1.678  11.573 -0.3732 -0.4959  0.6715
17662TIP3    H174401   0.690   1.617  11.535  3.0604  1.2240  3.3466
17662TIP3    H274402   0.542   1.635  11.561  1.7259 -5.0525  1.0326
17663TIP3   OH274403   3.547   1.877   1.873 -0.3665  0.1389  0.0760
17663TIP3    H174404   3.547   1.859   1.967  1.3824 -0.4148 -0.0104
17663TIP3    H274405   3.486   1.813   1.836 -0.1800 -0.3948  0.6945
17664TIP3   OH274406   2.189   5.438   6.592  0.2284  0.2240 -0.0602
17664TIP3    H174407   2.263   5.480   6.549 -0.5655  1.5070 -0.2165
17664TIP3    H274408   2.189   5.348   6.559  1.8320  0.1517  0.1101
17665TIP3   OH274409   4.180   1.023  14.356  0.2155 -0.6239  0.9294
17665TIP3    H174410   4.230   1.095  14.394  0.3808 -0.2667  0.0441
17665TIP3    H274411   4.240   0.948  14.359  1.4493  0.1783 -1.6258
17666TIP3   OH274412   2.563   6.335  15.994  0.2620 -0.1401 -0.0024
17666TIP3    H174413   2.534   6.289  15.914 -2.8777  0.1100  0.9182
17666TIP3    H274414   2.607   6.414  15.961 -0.4697 -0.3377 -1.5303
17667TIP3   OH274415   0.276   3.818   2.901  0.2281 -0.3825 -0.1941
17667TIP3    H174416   0.353   3.850   2.855 -0.0031  1.2135  0.5012
17667TIP3    H274417   0.311   3.766   2.973  0.7148  1.9349  1.2772
17668TIP3   OH274418   3.237   2.159  16.871  0.1502 -0.2613  0.4545
17668TIP3    H174419   3.293   2.233  16.893  0.4875 -0.3442 -0.1158
17668TIP3    H274420   3.159   2.170  16.926  0.0669  0.6880  0.1470
17669TIP3   OH274421   5.914   4.689   4.773  0.1159 -0.5652  0.1136
17669TIP3    H174422   5.884   4.618   4.716 -0.9970 -0.0869  0.0746
17669TIP3    H274423   6.005   4.705   4.748  0.0922 -1.3814 -0.4801
17670TIP3   OH274424   3.476   5.327  16.219  1.0343  0.5027 -0.2847
17670TIP3    H174425   3.430   5.354  16.139 -1.6723 -1.5168  0.5065
17670TIP3    H274426   3.452   5.394  16.283 -1.6255 -0.9718  0.3469
17671TIP3   OH274427   5.997   1.454   3.405  0.5722 -0.0540  0.1291
17671TIP3    H174428   6.044   1.407   3.337  0.1592 -1.7534  0.9918
17671TIP3    H274429   6.024   1.411   3.487 -0.3914  0.7111  0.8637
17672TIP3   OH274430   0.509   2.216  11.089  0.0134  0.0525  0.2410
17672TIP3    H174431   0.537   2.304  11.115 -0.1223 -0.0445  0.7184
17672TIP3    H274432   0.425   2.230  11.045  0.5383  0.2851 -0.7245
17673TIP3   OH274433   2.144   2.906   0.129  0.3162 -0.3217 -0.1489
17673TIP3    H174434   2.207   2.857   0.076  0.7330  0.2951 -0.2325
17673TIP3    H274435   2.072   2.926   0.068 -0.0277 -1.1387 -0.0186
17674TIP3   OH274436   3.740   0.762  14.972  0.4556  0.2079  0.3980
17674TIP3    H174437   3.773   0.830  14.914 -1.5942  0.2073 -0.8234
17674TIP3    H274438   3.670   0.805  15.022 -0.6637 -0.9050 -0.1818
17675TIP3   OH274439   0.088   1.453   2.742 -0.9393 -0.1382 -0.2621
17675TIP3    H174440   0.030   1.519   2.781 -0.0269 -0.0639  1.0154
17675TIP3    H274441   0.091   1.382   2.807  0.4365 -0.1194 -0.2882
17676TIP3   OH274442   0.139   2.712   4.308 -0.2767 -0.1538  0.5283
17676TIP3    H174443   0.074   2.703   4.378 -0.9158 -0.7500 -0.1402
17676TIP3    H274444   0.119   2.796   4.268 -1.3954 -0.8766 -0.4438
17677TIP3   OH274445   0.976   6.112  11.735  0.3868  0.1584  0.5184
17677TIP3    H174446   0.945   6.194  11.697  0.9066 -0.1645 -0.6098
17677TIP3    H274447   1.062   6.133  11.772  0.3339  0.2203  0.6069
17678TIP3   OH274448   4.580   6.232   4.785 -0.2901 -0.1460 -0.3669
17678TIP3    H174449   4.580   6.238   4.880  1.9952  2.9019 -0.4827
17678TIP3    H274450   4.649   6.169   4.765 -2.8331 -3.1623  0.0092
17679TIP3   OH274451   3.375   5.344  12.018  0.4648  0.0459  0.4709
17679TIP3    H174452   3.402   5.378  12.103  1.9389 -0.0769  0.0648
17679TIP3    H274453   3.456   5.312  11.979 -0.4701 -1.4567 -0.2685
17680TIP3   OH274454   6.479   3.103  16.902  0.3413  0.1252 -0.0861
17680TIP3    H174455   6.504   3.194  16.886  0.5125 -0.1132 -1.2147
17680TIP3    H274456   6.562   3.055  16.900  0.1453 -0.1995 -0.5749
17681TIP3   OH274457   3.659   1.359   3.104 -0.4039  0.1074 -0.2630
17681TIP3    H174458   3.706   1.288   3.060  0.5148 -0.1800  1.1533
17681TIP3    H274459   3.591   1.384   3.042 -1.1001 -2.3726 -0.5531
17682TIP3   OH274460   4.371   1.831   2.732 -0.3838 -0.4166  0.0141
17682TIP3    H174461   4.412   1.837   2.646  0.8267  0.1250  0.6317
17682TIP3    H274462   4.374   1.738   2.754 -0.6514 -0.5494 -0.4959
17683TIP3   OH274463   2.296   4.646   0.256  0.5395  0.6938 -0.1383
17683TIP3    H174464   2.249   4.633   0.338 -0.7587 -0.2213 -0.9867
17683TIP3    H274465   2.341   4.730   0.266  0.6843  0.4077  1.6293
17684TIP3   OH274466   1.652   4.615  16.881  0.4441  0.4296 -0.0143
17684TIP3    H174467   1.732   4.600  16.830  0.0461 -2.4830  0.1018
17684TIP3    H274468   1.589   4.647  16.817  0.9414  0.1698 -0.6418
17685TIP3   OH274469   4.616   4.649  13.007  0.2082 -0.0110  0.1275
17685TIP3    H174470   4.617   4.596  12.927  0.6252 -1.4954  1.0935
17685TIP3    H274471   4.697   4.626  13.052 -0.3560  0.2829  1.3149
17686TIP3   OH274472   1.297   5.083   3.923  0.3789 -0.2356 -0.1333
17686TIP3    H174473   1.284   4.996   3.885 -1.6115  0.2452 -0.6241
17686TIP3    H274474   1.243   5.083   4.002  0.2617  0.5997 -0.2107
17687TIP3   OH274475   2.790   2.420  11.448 -0.6014  0.3627 -0.0187
17687TIP3    H174476   2.751   2.375  11.522  0.2979  1.7047  1.2953
17687TIP3    H274477   2.865   2.367  11.423  0.9142  1.4875  2.0149
17688TIP3   OH274478   5.834   2.807  12.730  0.6110 -0.8392  0.1127
17688TIP3    H174479   5.835   2.791  12.824 -0.5563  0.1509  0.3089
17688TIP3    H274480   5.881   2.890  12.720 -1.6892  0.4998  0.1380
17689TIP3   OH274481   2.653   4.212   1.337 -0.2315  0.1307 -0.0209
17689TIP3    H174482   2.594   4.147   1.376  0.2932 -0.3955 -0.1076
17689TIP3    H274483   2.637   4.205   1.243 -0.0815  0.0432 -0.0389
17690TIP3   OH274484   2.304   0.574  16.384 -0.5305 -0.4522  0.2717
17690TIP3    H174485   2.307   0.670  16.387 -2.8523 -0.3155 -0.7970
17690TIP3    H274486   2.244   0.550  16.456 -1.5656 -0.9653 -0.7430
17691TIP3   OH274487   3.737   2.382   0.086  0.1011  0.2458 -0.2316
17691TIP3    H174488   3.707   2.306   0.137 -1.8746  1.8918  1.1542
17691TIP3    H274489   3.817   2.410   0.130  0.4196 -0.5586 -0.2853
17692TIP3   OH274490   3.608   2.933  14.573  0.1442 -0.2649 -0.1978
17692TIP3    H174491   3.658   2.851  14.565 -2.5818 -2.2727  2.3302
17692TIP3    H274492   3.535   2.922  14.512 -0.3069  0.2260  0.2551
17693TIP3   OH274493   0.209   0.554   3.515 -0.1394  0.2947  0.2501
17693TIP3    H174494   0.276   0.622   3.514 -0.4878  0.6665  1.5534
17693TIP3    H274495   0.126   0.602   3.515 -0.3794 -0.0985  2.4655
17694TIP3   OH274496   3.351   3.324  14.141  0.4304 -0.0646  0.5896
17694TIP3    H174497   3.281   3.284  14.193  0.1029 -0.1118  0.1164
17694TIP3    H274498   3.309   3.348  14.058  0.3227  2.4373  1.3300
17695TIP3   OH274499   2.460   2.435   5.769  0.2723  0.3090 -0.0345
17695TIP3    H174500   2.385   2.409   5.823 -0.1267  0.1347 -0.6700
17695TIP3    H274501   2.430   2.513   5.723 -0.2453 -0.9204 -1.8380
17696TIP3   OH274502   3.522   2.955  15.251  0.0211  0.0964  0.0545
17696TIP3    H174503   3.468   2.943  15.173 -0.5543 -0.3299  0.5200
17696TIP3    H274504   3.474   3.018  15.305  1.3878  1.9481 -0.8290
17697TIP3   OH274505   2.938   6.688  16.982  0.2796  0.0133 -0.1739
17697TIP3    H174506   2.957   6.700  16.889 -0.3412  1.3484 -0.1457
17697TIP3    H274507   2.912   6.597  16.990 -0.7466  0.1857 -1.4974
17698TIP3   OH274508   5.948   5.709  16.515  0.1481 -0.1557 -0.3520
17698TIP3    H174509   5.884   5.766  16.472 -0.2440 -1.6458 -1.7995
17698TIP3    H274510   5.960   5.636  16.454  1.4313 -1.0987  0.9906
17699TIP3   OH274511   5.871   4.089   5.490  0.0545  0.3640  0.1899
17699TIP3    H174512   5.810   4.052   5.427  0.3724  0.2243 -0.0414
17699TIP3    H274513   5.953   4.041   5.474  0.7294  1.7993 -0.7398
17700TIP3   OH274514   1.243   6.571   0.676  0.1102  0.2553  0.5378
17700TIP3    H174515   1.301   6.613   0.739 -0.6314  0.6891  0.9461
17700TIP3    H274516   1.156   6.579   0.715 -0.1645 -0.8231  0.1667
17701TIP3   OH274517   5.138   3.879   4.234 -0.6871  0.4508  0.3486
17701TIP3    H174518   5.220   3.840   4.265 -0.5264  1.8114  1.6980
17701TIP3    H274519   5.098   3.811   4.180  2.6718  0.7862 -2.6961
17702TIP3   OH274520   6.448   4.430   5.710 -0.1869  0.9210  0.1136
17702TIP3    H174521   6.392   4.443   5.787 -0.6768  0.5478 -0.1735
17702TIP3    H274522   6.530   4.396   5.746 -0.2922  1.0764  0.5060
17703TIP3   OH274523   2.644   1.526  11.526  0.4095 -0.2151  0.4756
17703TIP3    H174524   2.593   1.563  11.599  1.6565 -0.5329  1.5330
17703TIP3    H274525   2.579   1.497  11.463 -0.7275 -0.5250  1.7667
17704TIP3   OH274526   0.303   5.429   1.333 -0.4578 -0.1557 -0.2502
17704TIP3    H174527   0.220   5.403   1.374 -0.6135  1.8540  0.7936
17704TIP3    H274528   0.326   5.512   1.377  1.4846 -0.0794 -1.3726
17705TIP3   OH274529   0.668   2.909   4.085  0.0948 -0.0435 -0.2415
17705TIP3    H174530   0.685   2.840   4.020 -0.7478 -0.8245  0.3508
17705TIP3    H274531   0.575   2.901   4.105  0.5575 -0.5367  1.8590
17706TIP3   OH274532   3.133   5.973  10.504 -0.6727 -0.4580 -0.0979
17706TIP3    H174533   3.149   5.926  10.422  0.6026  0.7976 -0.5848
17706TIP3    H274534   3.202   6.038  10.508 -2.2687  1.2325  0.6875
17707TIP3   OH274535   1.048   6.039  13.126  0.1092 -0.3209  0.2959
17707TIP3    H174536   1.004   6.019  13.044 -1.0808  0.4072  0.7403
17707TIP3    H274537   0.988   6.098  13.171  1.3391  0.3281  1.1176
17708TIP3   OH274538   2.789   2.887   6.666 -0.0858 -0.7226 -0.0743
17708TIP3    H174539   2.830   2.832   6.733 -0.0861 -1.2917 -0.5380
17708TIP3    H274540   2.861   2.914   6.610 -0.1718 -0.7319 -0.1880
17709TIP3   OH274541   1.651   2.584  15.318 -0.2112 -0.0040 -0.7563
17709TIP3    H174542   1.635   2.528  15.394 -1.8100  0.9422 -0.3696
17709TIP3    H274543   1.664   2.524  15.246  0.9988 -0.9175  0.2013
17710TIP3   OH274544   2.122   3.461  12.782 -0.2974  0.0176  0.4725
17710TIP3    H174545   2.156   3.371  12.782  2.9760  1.1969  1.0683
17710TIP3    H274546   2.161   3.501  12.705 -0.1157  1.5049  1.3244
17711TIP3   OH274547   3.060   3.853   4.478 -0.5565  0.0781  0.6489
17711TIP3    H174548   3.028   3.843   4.388  0.1133  1.8034  0.1913
17711TIP3    H274549   3.004   3.795   4.530 -2.1787  0.4726 -0.6169
17712TIP3   OH274550   6.642   3.450   4.534  0.0469  0.3726 -0.1997
17712TIP3    H174551   6.559   3.410   4.507  0.4566  0.3379 -1.4446
17712TIP3    H274552   6.622   3.543   4.544  0.3773  0.7893 -2.8838
17713TIP3   OH274553   1.246   2.413  14.623 -0.1284  1.1253 -0.0866
17713TIP3    H174554   1.286   2.383  14.705  0.3123 -1.2427 -1.1169
17713TIP3    H274555   1.172   2.467  14.651 -1.8818 -2.1260  1.9324
17714TIP3   OH274556   6.770   1.981  11.229  0.4289  0.3747  0.1703
17714TIP3    H174557   6.774   1.940  11.315  2.0723  1.2059  0.5172
17714TIP3    H274558   6.683   2.022  11.226  0.9257  1.6754  2.0755
17715TIP3   OH274559   3.865   6.400  16.530 -0.1527  0.4318 -0.2360
17715TIP3    H174560   3.786   6.359  16.495 -0.1569  0.9853 -0.8778
17715TIP3    H274561   3.924   6.326  16.548 -0.4977  0.0796 -0.5448
17716TIP3   OH274562   1.093   3.963   1.221 -0.2474 -0.1575 -0.0919
17716TIP3    H174563   1.131   3.875   1.219  0.5941  0.1902  0.2712
17716TIP3    H274564   1.023   3.960   1.156 -0.7739 -1.3392  0.5169
17717TIP3   OH274565   1.551   5.962   0.045  0.4852 -0.1000 -0.2092
17717TIP3    H174566   1.472   6.007   0.016 -0.0221 -0.9224 -0.1283
17717TIP3    H274567   1.534   5.870   0.026  1.7501 -0.1952 -0.9267
17718TIP3   OH274568   4.257   3.969  14.626 -0.6635  0.0004 -0.0690
17718TIP3    H174569   4.295   4.015  14.552 -1.9206 -0.4682 -1.0208
17718TIP3    H274570   4.326   3.969  14.692  1.0162 -0.9196 -1.7791
17719TIP3   OH274571   0.600   6.385  13.132 -0.0695 -0.3354 -0.5915
17719TIP3    H174572   0.510   6.406  13.105 -1.0876 -1.7804  1.5056
17719TIP3    H274573   0.630   6.320  13.069  0.4488  2.0026 -2.8063
17720TIP3   OH274574   4.014   5.370  11.072 -0.0500  0.1129 -0.0118
17720TIP3    H174575   3.958   5.372  11.150  1.1137  1.2912  0.8108
17720TIP3    H274576   4.039   5.461  11.058  0.7599 -0.2556 -1.0539
17721TIP3   OH274577   5.723   0.741  14.242 -0.3126 -0.5435 -0.0357
17721TIP3    H174578   5.691   0.653  14.226  1.8259 -1.0943 -1.5443
17721TIP3    H274579   5.818   0.731  14.248 -0.2259  1.2536  2.6221
17722TIP3   OH274580   6.650   5.891  10.594 -0.3375 -0.2669  0.3824
17722TIP3    H174581   6.571   5.896  10.647 -0.8528 -2.2739 -0.1400
17722TIP3    H274582   6.635   5.953  10.522  0.5755  2.8231  2.7655
17723TIP3   OH274583   1.061   3.586  10.541 -0.0245  0.2464  0.0440
17723TIP3    H174584   1.146   3.545  10.525 -0.1432  0.7119 -1.8795
17723TIP3    H274585   1.017   3.525  10.600  1.7906  0.2063  1.4180
17724TIP3   OH274586   6.125   3.764  13.470  0.0610  0.3056  0.5899
17724TIP3    H174587   6.128   3.758  13.566 -4.6338 -1.2725  0.7782
17724TIP3    H274588   6.110   3.673  13.442 -0.4360  1.0298 -1.5329
17725TIP3   OH274589   6.424   3.502  13.415  0.7609 -0.1232 -0.0093
17725TIP3    H174590   6.346   3.501  13.360  1.1545 -0.4887 -0.5762
17725TIP3    H274591   6.493   3.465  13.359  1.4355  0.6001  0.3313
17726TIP3   OH274592   3.489   3.137   4.011 -0.2854 -0.6144 -0.0981
17726TIP3    H174593   3.507   3.068   4.076  1.1442 -0.4441 -0.2843
17726TIP3    H274594   3.429   3.196   4.055  0.5689 -0.5680  1.0488
17727TIP3   OH274595   2.386   3.016   2.718  0.3724 -0.1451 -0.1756
17727TIP3    H174596   2.293   2.997   2.717  0.4803 -0.6459 -0.8937
17727TIP3    H274597   2.428   2.936   2.749  0.6955 -0.5425 -1.5959
17728TIP3   OH274598   1.653   5.323  15.284  0.2921 -0.3781 -0.2680
17728TIP3    H174599   1.700   5.291  15.207  0.7822 -0.0113 -0.1216
17728TIP3    H274600   1.720   5.365  15.337  0.0444 -1.0530  0.5905
17729TIP3   OH274601   4.718   4.114   2.498 -0.2187 -0.9364 -0.4236
17729TIP3    H174602   4.747   4.181   2.437 -0.8431  0.4049  0.7234
17729TIP3    H274603   4.785   4.045   2.492  1.8803  0.9974  0.3764
17730TIP3   OH274604   3.362   0.694   0.478  0.0834  0.1644  0.2016
17730TIP3    H174605   3.420   0.618   0.482 -1.0464 -0.7202 -0.0459
17730TIP3    H274606   3.420   0.769   0.492  1.4522 -0.6346 -1.0189
17731TIP3   OH274607   3.201   4.277  11.997 -0.0298  0.0430 -0.6446
17731TIP3    H174608   3.146   4.334  11.943 -0.4078 -0.0122 -0.3206
17731TIP3    H274609   3.140   4.237  12.058  0.6161  1.2284  0.8035
17732TIP3   OH274610   0.001   4.150   2.825  0.4758 -0.4714 -0.1504
17732TIP3    H174611  -0.023   4.106   2.906  1.5036 -0.2261  0.2942
17732TIP3    H274612   0.034   4.079   2.769  2.4419 -0.2529  0.6856
17733TIP3   OH274613   1.866   3.185   4.569 -0.1942  0.0537 -0.0434
17733TIP3    H174614   1.896   3.238   4.496  1.2438  0.7073  1.0083
17733TIP3    H274615   1.819   3.247   4.626  0.6769  0.0304  0.7170
17734TIP3   OH274616   4.149   1.357  16.939 -0.1445  0.0457 -0.2871
17734TIP3    H174617   4.164   1.263  16.934  0.4584 -0.0527  2.4721
17734TIP3    H274618   4.219   1.396  16.887  1.5434 -0.9319  1.2019
17735TIP3   OH274619   1.738   0.752   6.307 -0.2845 -0.1744 -0.2066
17735TIP3    H174620   1.684   0.709   6.372  0.3273  2.6884  2.3120
17735TIP3    H274621   1.697   0.838   6.295  1.2136  0.3849 -1.5176
17736TIP3   OH274622   4.499   1.159   1.817  0.2493 -0.2402 -0.3257
17736TIP3    H174623   4.518   1.087   1.757  1.4827  0.3773 -0.6971
17736TIP3    H274624   4.486   1.235   1.761  2.4542  0.5694  0.2151
17737TIP3   OH274625   5.483   1.137   1.520  0.1407  0.1366  0.1349
17737TIP3    H174626   5.527   1.059   1.553 -0.0339  0.2564  0.6609
17737TIP3    H274627   5.392   1.126   1.547  0.0611  0.3862 -0.0309
17738TIP3   OH274628   0.209   0.377  13.078  0.1016 -0.3655 -0.2694
17738TIP3    H174629   0.195   0.430  12.999 -0.6632 -1.0029 -0.5609
17738TIP3    H274630   0.142   0.407  13.139  0.5342 -0.0493  0.0569
17739TIP3   OH274631   0.962   1.503  16.136  0.4343 -0.3145 -0.4184
17739TIP3    H174632   0.955   1.592  16.172  1.4985 -0.4908  0.2657
17739TIP3    H274633   0.968   1.516  16.041 -1.0415  0.2429 -0.4434
17740TIP3   OH274634   6.453   4.124   4.424 -0.1620  0.3772 -0.5211
17740TIP3    H174635   6.491   4.204   4.388  0.0968 -0.0433 -1.1753
17740TIP3    H274636   6.525   4.061   4.425  0.0033  0.5493  1.2787
17741TIP3   OH274637   5.364   1.578   1.355  0.0735  0.1793  0.2902
17741TIP3    H174638   5.445   1.581   1.304  0.7121 -0.2729  1.2684
17741TIP3    H274639   5.346   1.485   1.367  0.3103  0.2817  1.4824
17742TIP3   OH274640   0.261   0.023   3.618  0.4888  0.1618  0.5051
17742TIP3    H174641   0.272   0.029   3.712 -0.4690  0.3493  0.6102
17742TIP3    H274642   0.227   0.109   3.592  0.6598  0.0830  0.0016
17743TIP3   OH274643   3.320   2.417  14.589  0.1303 -0.1793  0.0237
17743TIP3    H174644   3.410   2.448  14.577 -0.3901  0.8312 -1.3316
17743TIP3    H274645   3.267   2.497  14.590 -1.1997 -0.9399 -3.2835
17744TIP3   OH274646   2.336   1.370   2.306  0.7045  0.1192 -0.2546
17744TIP3    H174647   2.343   1.368   2.401 -0.8230  1.6119 -0.0976
17744TIP3    H274648   2.310   1.459   2.285  1.2827 -0.1219 -2.1051
17745TIP3   OH274649   2.598   2.940   6.477 -0.7977  0.1783 -0.3850
17745TIP3    H174650   2.664   2.921   6.544 -1.2112  0.6490  0.1611
17745TIP3    H274651   2.573   3.031   6.494 -3.3892 -0.7521  0.9946
17746TIP3   OH274652   1.318   4.056  13.799  0.8725 -0.2962  0.2442
17746TIP3    H174653   1.344   4.113  13.727  0.4384 -1.4880 -0.8844
17746TIP3    H274654   1.396   4.050  13.855  0.5476  2.3164  1.0266
17747TIP3   OH274655   5.810   2.106   2.886 -0.8623 -0.1781 -0.0449
17747TIP3    H174656   5.773   2.116   2.974 -0.1760  0.0732  0.2200
17747TIP3    H274657   5.905   2.108   2.900 -0.7518 -0.2435 -0.7791
17748TIP3   OH274658   0.518   0.900   1.881  0.3398 -0.5946  0.3916
17748TIP3    H174659   0.427   0.907   1.853  0.2346 -0.9263  0.6531
17748TIP3    H274660   0.528   0.809   1.910  0.1168  0.0134  2.5070
17749TIP3   OH274661   1.996   5.264   4.508  0.2130  0.4197 -0.0104
17749TIP3    H174662   1.924   5.309   4.465  0.6550 -1.4235 -2.7835
17749TIP3    H274663   1.956   5.190   4.553 -0.0458  1.4525  1.4984
17750TIP3   OH274664   0.687   1.155  14.593 -0.0085  0.1176  0.9704
17750TIP3    H174665   0.638   1.073  14.587 -0.6995  0.4569  1.7562
17750TIP3    H274666   0.776   1.132  14.568 -0.3422 -0.7364  0.5474
17751TIP3   OH274667   2.624   5.650   4.372 -0.0943 -0.6331 -0.6446
17751TIP3    H174668   2.563   5.602   4.427  0.1630  0.1113  0.2923
17751TIP3    H274669   2.582   5.651   4.286 -1.6342  0.2884  0.1008
17752TIP3   OH274670   3.499   2.538  11.479 -0.0912  0.5609  0.1031
17752TIP3    H174671   3.560   2.609  11.458  1.4062 -0.5191  0.7001
17752TIP3    H274672   3.555   2.463  11.496 -1.6807 -0.8904 -0.9359
17753TIP3   OH274673   0.877   5.629  15.858  0.0304 -0.4444  0.7756
17753TIP3    H174674   0.812   5.688  15.819  2.5898  0.8022 -1.7653
17753TIP3    H274675   0.944   5.688  15.892  0.8578 -1.7933  1.4980
17754TIP3   OH274676   5.560   4.507   5.125  0.8965 -0.3566  0.2829
17754TIP3    H174677   5.471   4.476   5.106  1.2347 -1.7452  0.8815
17754TIP3    H274678   5.581   4.567   5.053 -1.1424  1.2922  0.9932
17755TIP3   OH274679   4.699   4.553   3.910  0.4561  0.8846 -0.5781
17755TIP3    H174680   4.736   4.546   3.998 -0.7305 -0.5249 -0.1792
17755TIP3    H274681   4.775   4.574   3.854  2.0459 -2.7003  0.1023
17756TIP3   OH274682   1.502   3.928   6.025  0.8325  0.2909  0.1226
17756TIP3    H174683   1.548   3.935   6.108 -2.0979  1.1789  1.7577
17756TIP3    H274684   1.505   4.016   5.988 -0.3539  0.6082  0.7337
17757TIP3   OH274685   1.150   4.522  12.924  0.0010 -0.1992  1.0141
17757TIP3    H174686   1.182   4.601  12.879 -0.5511 -0.2387  0.5479
17757TIP3    H274687   1.187   4.450  12.874  0.2207 -0.2364  1.2326
17758TIP3   OH274688   1.271   3.601  13.882  0.4169  0.2578  0.3099
17758TIP3    H174689   1.238   3.543  13.951 -0.5115  0.7062  0.2444
17758TIP3    H274690   1.315   3.542  13.821  0.6975 -0.2156  0.9561
17759TIP3   OH274691   0.099   5.827  14.766  0.2436 -0.1279  0.6535
17759TIP3    H174692   0.159   5.826  14.841 -1.1828 -1.4412  1.8269
17759TIP3    H274693   0.129   5.755  14.711  2.8841  2.4613 -1.3764
17760TIP3   OH274694   1.018   0.530   0.489  0.4619 -0.1188 -0.2450
17760TIP3    H174695   1.019   0.611   0.438  0.7597  1.3853  2.0934
17760TIP3    H274696   1.104   0.491   0.474  1.2469  1.2670  0.5716
17761TIP3   OH274697   5.936   3.318   4.036  0.4605 -0.1319  0.5212
17761TIP3    H174698   5.851   3.277   4.021  0.0613  0.4467  1.1521
17761TIP3    H274699   5.967   3.344   3.949  0.3415 -1.0265  0.2110
17762TIP3   OH274700   6.123   4.347   2.788 -0.7658  0.0333  0.2208
17762TIP3    H174701   6.188   4.318   2.724 -0.7264  1.3674 -0.3645
17762TIP3    H274702   6.163   4.328   2.873 -0.2315 -0.4734 -0.1406
17763TIP3   OH274703   6.609   3.396   3.747  0.0661 -0.3092  0.8046
17763TIP3    H174704   6.601   3.314   3.795  2.9896 -1.8297 -1.1973
17763TIP3    H274705   6.537   3.394   3.684 -0.7749 -0.6037  1.7631
17764TIP3   OH274706   6.126   0.697   4.254  0.0798 -0.3809 -0.0331
17764TIP3    H174707   6.168   0.727   4.173 -0.1494  0.4038  0.1329
17764TIP3    H274708   6.196   0.652   4.302  0.4629 -0.0055 -0.2327
17765TIP3   OH274709   5.290   1.765   1.617 -0.5952  0.4522 -0.2010
17765TIP3    H174710   5.344   1.722   1.683  0.0481  2.0395  0.3226
17765TIP3    H274711   5.297   1.859   1.637 -1.9587  0.8132 -1.3291
17766TIP3   OH274712   2.819   2.423   6.216 -0.2483  0.0094 -0.0984
17766TIP3    H174713   2.823   2.438   6.311 -1.4297  1.6949 -0.3028
17766TIP3    H274714   2.911   2.417   6.189  0.1599  1.6203  0.8507
17767TIP3   OH274715   6.590   0.245  12.608 -0.4898  0.4941 -0.4782
17767TIP3    H174716   6.620   0.300  12.536 -0.6457 -0.8993 -1.6380
17767TIP3    H274717   6.495   0.249  12.603 -0.5616 -1.9212 -2.2430
17768TIP3   OH274718   5.804   5.595  14.423 -1.3070  0.2136 -0.0348
17768TIP3    H174719   5.879   5.602  14.482 -1.0810  0.5672 -0.3619
17768TIP3    H274720   5.753   5.521  14.457 -1.4890  0.7845  0.9639
17769TIP3   OH274721   2.595   6.215  16.863 -0.1277 -0.2579  0.4149
17769TIP3    H174722   2.558   6.183  16.945 -0.2004 -1.4613 -0.0764
17769TIP3    H274723   2.646   6.292  16.889  0.5593 -1.1261  1.7118
17770TIP3   OH274724   4.898   2.941  12.255  0.5104 -0.0722 -0.0969
17770TIP3    H174725   4.813   2.972  12.284  0.3349 -0.9097  0.3057
17770TIP3    H274726   4.886   2.922  12.162  0.7260  1.4165 -0.4319
17771TIP3   OH274727   5.511   2.668   3.395  0.0319 -0.4122  0.5054
17771TIP3    H174728   5.572   2.678   3.468  3.1198 -2.3540 -1.6558
17771TIP3    H274729   5.489   2.575   3.395 -0.6618 -0.2510 -0.4456
17772TIP3   OH274730   6.271   0.773  13.782  0.2483  0.0903  0.3557
17772TIP3    H174731   6.228   0.757  13.697 -0.4502  1.6675  0.3932
17772TIP3    H274732   6.207   0.825  13.831  0.6474 -0.8279  1.8676
17773TIP3   OH274733   0.282   3.816   0.653  0.7541 -0.4176  0.0580
17773TIP3    H174734   0.365   3.776   0.628  0.9039 -0.4833  0.6546
17773TIP3    H274735   0.277   3.896   0.601  1.6482  0.0769  0.7220
17774TIP3   OH274736   4.045   3.736   5.888  0.3110  0.1900 -0.3590
17774TIP3    H174737   4.061   3.764   5.978 -0.0909  0.3435 -0.3329
17774TIP3    H274738   3.950   3.727   5.883  0.4495 -1.6913 -0.2057
17775TIP3   OH274739   2.961   4.587   2.201 -0.4075 -0.3305 -0.0744
17775TIP3    H174740   2.973   4.595   2.296 -0.9724 -1.1835  0.0777
17775TIP3    H274741   2.993   4.500   2.180  0.8831  0.3227 -0.8821
17776TIP3   OH274742   2.485   4.964   4.407  0.0787 -0.4496  0.1652
17776TIP3    H174743   2.511   4.921   4.326  0.5833 -0.8687  0.5410
17776TIP3    H274744   2.453   5.049   4.380 -2.3450 -1.6194 -0.7412
17777TIP3   OH274745   1.686   3.532  17.095  0.4870  0.5487 -0.1940
17777TIP3    H174746   1.759   3.583  17.132 -1.1918  2.5308  0.4965
17777TIP3    H274747   1.669   3.464  17.161  1.7748 -0.0045 -0.4175
17778TIP3   OH274748   5.561   6.632  12.443 -0.4754 -0.6157 -0.3301
17778TIP3    H174749   5.559   6.675  12.528 -0.0920 -2.0593  0.4290
17778TIP3    H274750   5.587   6.701  12.382  2.5482 -0.3087  1.2106
17779TIP3   OH274751   0.387   6.149   4.145 -0.2178  0.6296 -0.2154
17779TIP3    H174752   0.399   6.061   4.111 -1.0859  1.1347 -1.8622
17779TIP3    H274753   0.292   6.164   4.140  0.2105  2.8597 -3.0507
17780TIP3   OH274754   6.424   3.502  13.685  0.3235  0.1734  0.2219
17780TIP3    H174755   6.431   3.509  13.590  0.0721  0.5110  0.2275
17780TIP3    H274756   6.443   3.590  13.717 -0.9697  0.3994  0.3952
17781TIP3   OH274757   1.898   4.355   5.640  1.1445  0.1434 -0.1301
17781TIP3    H174758   1.886   4.407   5.720  2.2451 -0.5756  0.5090
17781TIP3    H274759   1.900   4.419   5.570 -1.9123  0.6616  0.1645
17782TIP3   OH274760   0.918   5.306   4.114 -0.1041  0.2679 -0.2225
17782TIP3    H174761   0.932   5.289   4.207 -1.5653  0.6621  0.0868
17782TIP3    H274762   0.992   5.264   4.070  0.7013  0.2467  1.1228
17783TIP3   OH274763   1.123   2.415  17.078  0.0824 -0.1297  0.0689
17783TIP3    H174764   1.206   2.461  17.095  0.9301 -1.9146  0.9510
17783TIP3    H274765   1.091   2.393  17.165 -0.4386 -0.9725 -0.3413
17784TIP3   OH274766   5.854   2.905   4.043  0.1442  0.1075 -0.2161
17784TIP3    H174767   5.922   2.942   3.987  0.8710 -0.9935 -0.0725
17784TIP3    H274768   5.776   2.904   3.987  0.5006  0.3691 -0.7314
17785TIP3   OH274769   0.868   1.220   3.727 -0.4271  0.1420  0.1048
17785TIP3    H174770   0.925   1.144   3.731  0.0087  0.5022  0.8426
17785TIP3    H274771   0.871   1.257   3.815 -0.2811  1.2549 -0.3506
17786TIP3   OH274772   5.103   6.403   4.482 -0.0613  0.1182  0.2159
17786TIP3    H174773   5.072   6.420   4.393 -0.7316  0.0559  0.4335
17786TIP3    H274774   5.028   6.425   4.538  0.3227  0.0554  0.7573
17787TIP3   OH274775   3.287   3.876   3.217  0.3909  0.0909  0.0324
17787TIP3    H174776   3.234   3.954   3.231 -0.4654 -0.4356 -0.2238
17787TIP3    H274777   3.300   3.840   3.305 -0.8759 -0.5511 -0.0352
17788TIP3   OH274778   4.936   1.373   6.038  0.3836 -0.1425  0.2302
17788TIP3    H174779   4.969   1.339   6.121  1.0415  1.6623  0.7419
17788TIP3    H274780   4.905   1.462   6.059  0.8942  0.4700 -1.5170
17789TIP3   OH274781   2.827   0.680  11.251  0.2015  0.2565  0.1590
17789TIP3    H174782   2.812   0.594  11.213  2.0334 -0.1025  0.1722
17789TIP3    H274783   2.879   0.727  11.186  0.0327  1.0165  0.5575
17790TIP3   OH274784   6.466   5.466  12.035  0.2973  0.0858 -0.1542
17790TIP3    H174785   6.515   5.386  12.015  0.2431  0.1336 -0.4925
17790TIP3    H274786   6.374   5.441  12.022  0.4103  0.8462 -2.6298
17791TIP3   OH274787   3.448   4.469   3.225  0.0433 -0.0069 -0.2019
17791TIP3    H174788   3.536   4.484   3.259 -0.8245 -1.1271  2.7069
17791TIP3    H274789   3.410   4.556   3.217  0.8130  0.3827  0.2849
17792TIP3   OH274790   0.989   2.011  14.417  0.0781 -0.2105 -0.2828
17792TIP3    H174791   1.066   2.062  14.391 -0.5499  0.2097 -1.3534
17792TIP3    H274792   0.958   2.054  14.496  0.3245  0.2699 -0.4410
17793TIP3   OH274793   0.613   4.937  13.850 -0.5550  0.3618 -0.0004
17793TIP3    H174794   0.684   4.969  13.796 -1.3386  2.1014 -0.0316
17793TIP3    H274795   0.645   4.853  13.885  1.6660  1.3038  0.3266
17794TIP3   OH274796   0.584   4.870   4.729  0.4027  0.0528 -0.1924
17794TIP3    H174797   0.642   4.797   4.751 -0.1669 -0.0392  1.0489
17794TIP3    H274798   0.622   4.945   4.776  0.3924  0.3412 -0.6331
17795TIP3   OH274799   1.664   5.224   3.781  1.1683 -0.0510  0.1034
17795TIP3    H174800   1.608   5.203   3.856  2.0570  1.4939  1.2494
17795TIP3    H274801   1.721   5.148   3.770 -0.8605 -1.4537 -0.8052
17796TIP3   OH274802   6.206   0.360  13.603  0.3953 -0.5619  0.1808
17796TIP3    H174803   6.183   0.441  13.559 -0.3041  0.0607  1.6662
17796TIP3    H274804   6.211   0.383  13.696 -0.8240 -2.4230  0.7411
17797TIP3   OH274805   5.982   0.610   5.133 -0.5885 -0.3926  0.1558
17797TIP3    H174806   6.020   0.697   5.120  0.3905 -0.7317  0.6757
17797TIP3    H274807   5.931   0.618   5.214 -1.2727 -0.0527 -0.3055
17798TIP3   OH274808   5.683   2.776  12.208 -0.1681  0.5458 -0.3199
17798TIP3    H174809   5.655   2.817  12.289  3.7572  0.9791  0.8835
17798TIP3    H274810   5.669   2.682  12.223 -1.9659  0.8003 -0.2242
17799TIP3   OH274811   6.219   1.115   5.221  0.2715 -0.8556  0.0872
17799TIP3    H174812   6.295   1.058   5.206  0.8675 -0.3431  1.0596
17799TIP3    H274813   6.254   1.187   5.274 -0.0351  1.3990 -2.6802
17800TIP3   OH274814   6.574   1.240   5.741  0.3136 -0.9179  0.0942
17800TIP3    H174815   6.534   1.316   5.783 -2.8763 -1.0796 -2.4673
17800TIP3    H274816   6.628   1.277   5.671  0.7370 -0.8993  0.4315
17801TIP3   OH274817   5.087   2.560   4.862 -0.0684 -0.7055  0.2350
17801TIP3    H174818   5.142   2.508   4.921 -0.4950 -0.3386  0.9529
17801TIP3    H274819   5.125   2.545   4.775  0.6654 -1.1050  0.6221
17802TIP3   OH274820   2.704   4.032   3.255 -0.0995 -0.4028 -0.5516
17802TIP3    H174821   2.749   4.023   3.339 -1.0797  1.6968  0.2293
17802TIP3    H274822   2.612   4.013   3.275 -0.2479 -0.4127 -1.2504
17803TIP3   OH274823   2.168   1.792  14.259 -0.2047 -0.0420  0.1000
17803TIP3    H174824   2.121   1.868  14.226 -1.5773 -0.5729  0.7610
17803TIP3    H274825   2.237   1.776  14.195 -0.3694  1.3008 -0.4296
17804TIP3   OH274826   3.187   5.059   1.835 -0.0662 -0.2661 -0.1107
17804TIP3    H174827   3.093   5.056   1.817  0.1371 -0.0265 -1.2382
17804TIP3    H274828   3.224   4.988   1.783  0.3406 -0.5557  0.5714
17805TIP3   OH274829   6.439   1.217  11.898  0.3496  0.3573 -0.0056
17805TIP3    H174830   6.401   1.144  11.849  0.5151  1.3421 -1.6122
17805TIP3    H274831   6.531   1.220  11.870  1.3184 -1.1077  2.7906
17806TIP3   OH274832   0.265   4.923   4.711 -0.0269 -0.4269 -0.3276
17806TIP3    H174833   0.347   4.897   4.668  0.5838 -1.0227  1.1774
17806TIP3    H274834   0.263   5.018   4.702  0.3959 -0.4829 -1.1176
17807TIP3   OH274835   3.388   0.728  16.739  0.2840 -0.5676  0.5088
17807TIP3    H174836   3.418   0.638  16.723  0.3766 -0.2400 -1.2028
17807TIP3    H274837   3.293   0.720  16.746  0.1236 -0.5396 -1.5097
17808TIP3   OH274838   4.107   2.805  14.278  0.2607 -0.5686  0.0105
17808TIP3    H174839   4.149   2.815  14.193 -0.5847  0.1350 -0.3205
17808TIP3    H274840   4.098   2.710  14.289  0.2928 -0.6592 -0.7213
17809TIP3   OH274841   0.075   2.807  10.863  0.1564 -0.0010 -0.0162
17809TIP3    H174842   0.155   2.781  10.817  0.0781  0.7875 -0.6188
17809TIP3    H274843   0.014   2.735  10.846  0.4680 -0.2115 -0.2717
17810TIP3   OH274844   0.541   2.028   5.262 -0.0716  0.0467 -0.6708
17810TIP3    H174845   0.619   2.077   5.286  0.2335 -0.7165 -0.0631
17810TIP3    H274846   0.574   1.941   5.240 -0.5490  0.2499 -2.2182
17811TIP3   OH274847   6.346   4.440  11.414  0.3541 -0.1229 -0.5520
17811TIP3    H174848   6.272   4.393  11.452  0.3532  0.4734  0.1934
17811TIP3    H274849   6.405   4.455  11.488 -0.1973  2.1047 -0.5322
17812TIP3   OH274850   2.429   0.865   4.669  0.0376 -0.1152 -0.2029
17812TIP3    H174851   2.390   0.819   4.595  0.9231 -1.3496  0.0938
17812TIP3    H274852   2.360   0.867   4.736 -0.4308  0.1487 -0.6877
17813TIP3   OH274853   0.969   2.338  12.483 -0.0033  0.1854  0.0575
17813TIP3    H174854   0.965   2.330  12.388  0.8755  1.9648 -0.1653
17813TIP3    H274855   0.887   2.302  12.514 -0.0827 -0.8675 -1.3493
17814TIP3   OH274856   2.458   0.659  14.970 -0.1392 -0.3112 -0.0367
17814TIP3    H174857   2.479   0.729  15.031 -0.5311 -0.0271 -0.2212
17814TIP3    H274858   2.506   0.583  15.002 -0.1652 -0.1049  0.4912
17815TIP3   OH274859   4.729   0.386   3.439 -0.2282 -0.1292  0.0439
17815TIP3    H174860   4.805   0.396   3.381 -0.3234 -1.8308 -0.3897
17815TIP3    H274861   4.766   0.356   3.522 -0.3931 -0.7466 -0.1018
17816TIP3   OH274862   6.170   3.240   1.229  0.0090 -0.2389 -0.1237
17816TIP3    H174863   6.242   3.268   1.173  0.1383  0.2344  0.2721
17816TIP3    H274864   6.145   3.319   1.277 -2.2595  0.1628 -1.8698
17817TIP3   OH274865   5.639   6.301  15.459  0.3500 -0.7537  0.1293
17817TIP3    H174866   5.583   6.317  15.383 -1.5178  1.0984  1.8218
17817TIP3    H274867   5.709   6.366  15.451  1.2983 -1.9022 -1.0544
17818TIP3   OH274868   0.863   2.502   1.147  0.3904  0.0969 -0.0951
17818TIP3    H174869   0.935   2.499   1.084  0.4680 -1.0682  0.0335
17818TIP3    H274870   0.871   2.420   1.196 -0.7921  0.1414  0.1873
17819TIP3   OH274871   3.904   0.658  12.877 -0.3897  0.3843 -0.2548
17819TIP3    H174872   3.859   0.700  12.803 -0.8899  0.8658  0.3257
17819TIP3    H274873   3.836   0.647  12.943 -0.1167 -0.7764 -0.1626
17820TIP3   OH274874   5.819   5.336   3.521  0.5665  0.0506  0.0885
17820TIP3    H174875   5.749   5.342   3.457  0.5782  0.8051  0.1399
17820TIP3    H274876   5.855   5.248   3.510 -1.5262 -0.9860  1.2651
17821TIP3   OH274877   3.310   3.043   2.396  0.4283  0.2871  0.1112
17821TIP3    H174878   3.274   3.015   2.480 -0.0660  0.5285 -0.0181
17821TIP3    H274879   3.285   2.974   2.335 -0.9967  1.0940 -0.2570
17822TIP3   OH274880   4.568   4.569  14.443 -0.9829 -0.3412 -0.6484
17822TIP3    H174881   4.599   4.577  14.534 -3.3381  0.7141  0.1105
17822TIP3    H274882   4.607   4.644  14.398  1.8485 -1.9911 -1.0516
17823TIP3   OH274883   0.082   6.328  13.663 -1.0085 -0.5282  0.1283
17823TIP3    H174884  -0.010   6.312  13.684 -0.8439 -3.4700 -1.1493
17823TIP3    H274885   0.080   6.372  13.578 -1.2056 -1.3671 -0.3019
17824TIP3   OH274886   2.708   0.738  11.490 -0.4833 -0.2588  0.3030
17824TIP3    H174887   2.736   0.687  11.414 -1.9338 -1.6977  0.6884
17824TIP3    H274888   2.713   0.676  11.563  2.4539  1.5484  1.7173
17825TIP3   OH274889   4.064   6.420  13.465 -0.2482  0.4859 -0.2403
17825TIP3    H174890   4.107   6.475  13.530 -0.0153  0.4021 -0.3234
17825TIP3    H274891   4.022   6.350  13.516  0.4590  0.0703 -0.2264
17826TIP3   OH274892   5.224   3.111   4.544 -0.1133 -0.1127  0.2104
17826TIP3    H174893   5.171   3.091   4.621 -1.8294 -0.6577 -1.0949
17826TIP3    H274894   5.309   3.072   4.562 -0.8473 -1.1963  1.3481
17827TIP3   OH274895   4.523   5.926  16.867  0.1718 -0.4123  0.2881
17827TIP3    H174896   4.445   5.926  16.922  0.7093 -0.8321  1.0769
17827TIP3    H274897   4.552   6.017  16.866  1.6462 -0.7956  2.9105
17828TIP3   OH274898   5.164   4.572  15.086  0.1297  0.9610  0.8916
17828TIP3    H174899   5.234   4.567  15.150  0.5270 -0.4806  0.3750
17828TIP3    H274900   5.152   4.665  15.070  0.8737  1.2715  2.1346
17829TIP3   OH274901   0.498   3.285  15.734 -0.1676  0.2718 -0.0604
17829TIP3    H174902   0.542   3.346  15.794  2.3155 -0.8043 -0.7473
17829TIP3    H274903   0.431   3.244  15.789  0.9770  0.4933  1.5689
17830TIP3   OH274904   0.574   1.945   0.599 -0.3620  0.2815 -0.3075
17830TIP3    H174905   0.494   1.896   0.581  0.5039 -1.0609 -0.5706
17830TIP3    H274906   0.639   1.905   0.542  0.4992  1.3711 -0.0970
17831TIP3   OH274907   4.305   5.545  16.101  0.1538 -0.3971 -0.1624
17831TIP3    H174908   4.278   5.472  16.156 -0.2355 -0.9400 -1.0552
17831TIP3    H274909   4.383   5.513  16.055 -0.0570 -0.2743 -0.6056
17832TIP3   OH274910   2.782   2.673   3.114  0.4316 -0.3447 -0.4301
17832TIP3    H174911   2.840   2.608   3.154  1.2392  1.0713  0.7141
17832TIP3    H274912   2.835   2.713   3.044  0.1148 -0.5238 -0.7768
17833TIP3   OH274913   1.400   2.749  13.387  0.1821 -0.0316  0.1333
17833TIP3    H174914   1.474   2.688  13.394 -0.2400 -0.4366  1.2968
17833TIP3    H274915   1.362   2.749  13.475 -2.1001 -0.9442 -0.8183
17834TIP3   OH274916   4.806   0.134  15.927  0.7038 -0.4731  0.3266
17834TIP3    H174917   4.754   0.113  15.850 -2.2729 -0.1384  2.1796
17834TIP3    H274918   4.848   0.218  15.906 -0.0728 -0.4020 -0.9300
17835TIP3   OH274919   5.208   4.688   4.604 -0.2470  0.4382 -0.2624
17835TIP3    H174920   5.199   4.611   4.660  0.8077 -0.5142 -1.3870
17835TIP3    H274921   5.225   4.760   4.665  0.7969 -0.5685  0.6372
17836TIP3   OH274922   4.017   0.764   4.287  0.7350 -0.1644 -0.0821
17836TIP3    H174923   4.100   0.806   4.267  0.7076  0.2525  0.6519
17836TIP3    H274924   3.958   0.793   4.218  0.7757  0.8358  0.2977
17837TIP3   OH274925   4.012   6.465   2.137  0.3490  0.3689  0.1078
17837TIP3    H174926   4.097   6.471   2.181  1.9471 -0.0383 -2.7461
17837TIP3    H274927   3.972   6.551   2.149  1.4947  0.7984  0.8762
17838TIP3   OH274928   5.450   0.089   4.536 -0.3165 -0.3732  0.3702
17838TIP3    H174929   5.476   0.067   4.626 -1.5759  0.8288  1.0553
17838TIP3    H274930   5.391   0.018   4.511 -1.7833  0.4356  1.3746
17839TIP3   OH274931   5.493   1.057  15.555 -0.5278 -0.4612  0.0018
17839TIP3    H174932   5.465   1.020  15.638  2.0404 -1.2527  0.5527
17839TIP3    H274933   5.472   0.990  15.490 -1.2914 -0.3983  0.1808
17840TIP3   OH274934   6.538   1.964  14.989 -0.0488  0.0682 -0.3121
17840TIP3    H174935   6.550   2.059  14.988  1.2624 -0.0789 -0.6141
17840TIP3    H274936   6.450   1.951  15.022 -1.0568  1.4734 -2.3097
17841TIP3   OH274937   6.370   1.209   1.667  0.1118 -0.3759 -0.2234
17841TIP3    H174938   6.456   1.236   1.634  0.0365  1.1716  0.7754
17841TIP3    H274939   6.388   1.173   1.754 -0.3177  0.5380  0.2491
17842TIP3   OH274940   5.687   5.629   3.273 -0.5529 -0.0605  0.1611
17842TIP3    H174941   5.706   5.714   3.232 -0.7658 -0.5929 -1.0488
17842TIP3    H274942   5.618   5.649   3.336 -1.3310  0.5035 -0.8419
17843TIP3   OH274943   4.522   6.613   4.479  0.0026  0.6835  0.3820
17843TIP3    H174944   4.548   6.605   4.571 -2.9135 -2.1987  1.0720
17843TIP3    H274945   4.509   6.707   4.466 -2.6749  0.9090  3.9308
17844TIP3   OH274946   4.535   5.276  12.262  0.7566 -0.6223 -0.0789
17844TIP3    H174947   4.520   5.364  12.227  1.1899 -0.1993  0.7939
17844TIP3    H274948   4.554   5.289  12.355 -0.8749 -1.7828  0.4439
17845TIP3   OH274949   0.434   6.077  15.815  0.0220  0.1652  0.0022
17845TIP3    H174950   0.438   6.131  15.894  0.7642 -1.0867  0.8255
17845TIP3    H274951   0.523   6.078  15.781 -0.0256 -0.3252 -0.1348
17846TIP3   OH274952   2.498   0.995  12.472 -0.7426  0.1593 -0.0816
17846TIP3    H174953   2.493   1.024  12.381 -2.0729  0.7920  0.1817
17846TIP3    H274954   2.425   1.039  12.515 -0.7959 -1.0133  1.0474
17847TIP3   OH274955   2.855   1.441  16.163  0.4062  0.2406  0.5393
17847TIP3    H174956   2.875   1.348  16.151  1.1378 -0.2176  4.4445
17847TIP3    H274957   2.759   1.444  16.161  0.3838 -0.5094 -0.0614
17848TIP3   OH274958   0.445   3.017  14.325 -0.2790  0.1857 -0.4008
17848TIP3    H174959   0.357   3.047  14.302 -0.6147 -0.4450  0.0463
17848TIP3    H274960   0.498   3.097  14.327 -0.8018  0.5442 -0.8465
17849TIP3   OH274961   0.422   1.278  12.523  0.5876 -0.3220  0.2162
17849TIP3    H174962   0.478   1.201  12.518  0.3998 -0.3992 -0.9018
17849TIP3    H274963   0.349   1.258  12.464  0.4966  0.6779 -0.0201
17850TIP3   OH274964   0.969   4.776  13.890  0.1997 -0.2615  0.0968
17850TIP3    H174965   0.916   4.757  13.812  0.5361  1.1890 -0.5015
17850TIP3    H274966   1.059   4.777  13.857  0.3937 -0.2482  0.6308
17851TIP3   OH274967   1.244   0.307   0.361  0.0065 -0.0940  0.2018
17851TIP3    H174968   1.286   0.225   0.335 -1.4986 -1.0017  0.5266
17851TIP3    H274969   1.316   0.362   0.391  0.9522 -1.6758  0.9479
17852TIP3   OH274970   5.346   0.985  14.370 -0.2418 -0.3175  1.0815
17852TIP3    H174971   5.414   0.924  14.398  0.0003 -0.3139  0.5036
17852TIP3    H274972   5.320   0.955  14.283  0.2870  0.7228  0.5471
17853TIP3   OH274973   6.016   4.150  13.321  0.8110 -0.0008 -0.6697
17853TIP3    H174974   6.044   4.242  13.329  1.4156 -0.2696  0.4193
17853TIP3    H274975   5.962   4.149  13.242 -0.3670  1.5761  0.0771
17854TIP3   OH274976   4.345   0.721  15.097 -0.0067  0.4628  0.3672
17854TIP3    H174977   4.307   0.660  15.161 -0.6995  1.5311  0.9710
17854TIP3    H274978   4.400   0.665  15.041 -2.3295 -1.0667 -0.4458
17855TIP3   OH274979   2.093   5.640  14.467  0.5269 -0.7281  0.3505
17855TIP3    H174980   2.168   5.589  14.498  0.5702 -0.1781  1.1584
17855TIP3    H274981   2.023   5.619  14.528 -0.2482 -1.9059 -0.8935
17856TIP3   OH274982   0.748   1.601  17.036  0.5052 -0.1687 -0.6642
17856TIP3    H174983   0.766   1.562  16.951  0.1145 -0.7313 -0.4944
17856TIP3    H274984   0.736   1.526  17.095  0.1651  0.2079 -0.2487
17857TIP3   OH274985   0.213   1.556  11.290  0.0329 -0.2787  0.1838
17857TIP3    H174986   0.194   1.469  11.324 -1.1434 -0.4022 -0.7322
17857TIP3    H274987   0.206   1.547  11.195  2.9943  0.1167 -0.1244
17858TIP3   OH274988   1.863   0.051  16.921 -0.0724 -0.0907  0.3013
17858TIP3    H174989   1.829  -0.015  16.981 -1.5550  0.7882  0.4410
17858TIP3    H274990   1.957   0.032  16.916 -0.2804 -1.4629  1.2632
17859TIP3   OH274991   2.816   3.075   0.365  0.1348 -0.1168  0.3143
17859TIP3    H174992   2.793   3.119   0.283  0.9006 -0.7871 -0.2671
17859TIP3    H274993   2.816   2.982   0.343  1.4849 -0.2346  0.7687
17860TIP3   OH274994   0.708   1.594  10.620  0.1105  0.2050 -0.0316
17860TIP3    H174995   0.770   1.620  10.552 -0.2723  0.6840 -0.1990
17860TIP3    H274996   0.738   1.639  10.699 -1.0928  1.9112 -0.5313
17861TIP3   OH274997   6.687   4.726   6.345  0.2427 -0.3558 -0.2339
17861TIP3    H174998   6.716   4.669   6.274 -1.4715  0.7597 -1.8926
17861TIP3    H274999   6.607   4.685   6.378  0.3973 -0.2441  0.2997
17862TIP3   OH275000   3.217   2.977   5.947 -0.4431  0.1397 -0.3740
17862TIP3    H175001   3.125   2.955   5.938 -0.4974  0.8059 -1.6312
17862TIP3    H275002   3.219   3.073   5.949  0.3651  0.1869 -2.3673
17863TIP3   OH275003   2.566   5.665   1.905  0.2257 -0.4587 -0.4091
17863TIP3    H175004   2.634   5.630   1.848  1.5431  1.4952 -0.1138
17863TIP3    H275005   2.595   5.643   1.993 -0.8038 -1.7757 -0.3983
17864TIP3   OH275006   3.180   2.937  16.850  0.1156 -0.5078 -0.4263
17864TIP3    H175007   3.165   2.843  16.837  0.0905 -0.3074 -1.9377
17864TIP3    H275008   3.248   2.959  16.786 -0.1208  0.5867 -0.3082
17865TIP3   OH275009   5.958   0.678   2.068  0.4020 -0.1315 -0.5764
17865TIP3    H175010   5.913   0.635   2.141  2.3844 -0.8463  0.2662
17865TIP3    H275011   6.004   0.607   2.024 -0.1718  0.4200 -2.1045
17866TIP3   OH275012   4.802   6.139   6.099  0.2707 -0.0411 -0.3806
17866TIP3    H175013   4.815   6.053   6.140  0.5536 -0.5809 -1.5545
17866TIP3    H275014   4.774   6.196   6.170  0.6352 -0.9745  0.5320
17867TIP3   OH275015   3.763   6.035   4.850  0.4637 -0.2919 -0.2674
17867TIP3    H175016   3.853   6.040   4.818  0.1746 -0.6097 -1.1478
17867TIP3    H275017   3.713   6.004   4.775 -0.7702  2.1718 -0.4809
17868TIP3   OH275018   6.132   4.327  16.121  0.5418  0.1626  0.3431
17868TIP3    H175019   6.164   4.310  16.210  0.4783 -0.9548  0.1593
17868TIP3    H275020   6.096   4.415  16.125 -1.9051 -0.8453  2.1575
17869TIP3   OH275021   3.917   0.557  16.820  0.1751 -0.1653  0.0331
17869TIP3    H175022   3.951   0.502  16.891  0.3829 -0.0887 -0.0075
17869TIP3    H275023   3.942   0.511  16.740 -0.7122 -0.6388  0.0265
17870TIP3   OH275024   5.229   5.454   5.443 -0.4458  0.0423 -0.0224
17870TIP3    H175025   5.166   5.507   5.393 -0.0716  1.0589  0.5644
17870TIP3    H275026   5.190   5.445   5.530  0.4937  1.2176  0.5402
17871TIP3   OH275027   0.287   5.513   5.626 -0.3641  0.0255 -0.3060
17871TIP3    H175028   0.236   5.593   5.636  0.0840  0.3053 -0.2371
17871TIP3    H275029   0.297   5.479   5.715 -4.0806 -2.3502 -0.6787
17872TIP3   OH275030   3.672   3.013  16.637  0.1034  0.1921  0.1206
17872TIP3    H175031   3.703   2.965  16.713 -1.2467  1.2457  1.3706
17872TIP3    H275032   3.732   2.989  16.567  0.4529 -1.9926  1.1261
17873TIP3   OH275033   2.805   3.828  16.602  0.2719 -0.2601 -0.3735
17873TIP3    H175034   2.769   3.753  16.555 -1.2734  0.6242 -0.6348
17873TIP3    H275035   2.897   3.832  16.574  0.1780 -1.6004 -0.9179
17874TIP3   OH275036   1.682   3.280  15.918  0.3072  0.1884 -0.2125
17874TIP3    H175037   1.639   3.363  15.938 -0.4150 -0.5624  1.4809
17874TIP3    H275038   1.774   3.303  15.907 -0.2263  1.5498 -2.0811
17875TIP3   OH275039   0.320   5.448  12.218  0.2732 -0.5911 -0.5353
17875TIP3    H175040   0.369   5.524  12.188  1.8531 -1.0094  0.9173
17875TIP3    H275041   0.236   5.454  12.173  1.1129  0.9391 -1.9218
17876TIP3   OH275042   5.012   4.795   4.901 -0.2324 -0.3583 -0.4715
17876TIP3    H175043   4.976   4.707   4.914 -0.3516 -0.3316 -0.6143
17876TIP3    H275044   5.106   4.781   4.890 -0.1732 -0.4070  0.1099
17877TIP3   OH275045   6.747   3.537   4.847  0.2660 -0.2819 -0.2597
17877TIP3    H175046   6.689   3.500   4.781  0.0315 -1.1274  0.4104
17877TIP3    H275047   6.731   3.485   4.926  1.0113  0.2913  0.2855
17878TIP3   OH275048   6.315   3.387  14.697  0.4493 -0.0455 -0.1593
17878TIP3    H175049   6.379   3.365  14.766  0.9170  0.7269 -0.3435
17878TIP3    H275050   6.230   3.382  14.742  0.7882  0.9984  0.6269
17879TIP3   OH275051   0.346   4.794  15.455 -0.6736  0.2090  0.3280
17879TIP3    H175052   0.430   4.752  15.434 -0.8201  0.5231 -0.9374
17879TIP3    H275053   0.367   4.851  15.529  0.2101  0.1822  0.1146
17880TIP3   OH275054   6.716   0.036  16.233 -0.1139 -0.0731 -0.0799
17880TIP3    H175055   6.646   0.005  16.291  0.0366 -0.4520 -0.0996
17880TIP3    H275056   6.671   0.064  16.154 -0.2328 -0.4769 -0.1589
17881TIP3   OH275057   2.664   1.278   4.338 -0.1989  0.8166  0.2144
17881TIP3    H175058   2.670   1.280   4.242  1.0838  1.7851  0.3079
17881TIP3    H275059   2.685   1.368   4.365  2.4301 -0.1553  1.5694
17882TIP3   OH275060   5.562   3.087   1.182  0.1197  0.2612 -0.2746
17882TIP3    H175061   5.590   2.999   1.207  0.2228  1.2177  3.2625
17882TIP3    H275062   5.476   3.075   1.143  0.9114 -1.5766 -1.5496
17883TIP3   OH275063   6.534   6.134   6.058  0.4840 -0.5209 -0.2972
17883TIP3    H175064   6.520   6.226   6.039  1.5461  0.2293  2.3365
17883TIP3    H275065   6.446   6.099   6.072  0.1779  0.4827  0.3323
17884TIP3   OH275066   0.039   4.248  15.361 -0.5618 -0.2872  0.5635
17884TIP3    H175067   0.112   4.201  15.320 -0.0402  0.1215  1.0136
17884TIP3    H275068   0.014   4.314  15.297  0.0329  0.1330  0.7605
17885TIP3   OH275069   6.050   0.348  16.418 -0.2927 -0.2884  0.3600
17885TIP3    H175070   6.012   0.346  16.331  1.0557 -2.1966 -0.2216
17885TIP3    H275071   6.073   0.440  16.432 -0.6229  0.0504 -1.2435
17886TIP3   OH275072   2.444   5.821   3.921  0.4098  0.8581  0.8039
17886TIP3    H175073   2.525   5.842   3.875 -0.6908 -0.3244 -1.7247
17886TIP3    H275074   2.375   5.857   3.866 -0.9673 -1.2303  1.1168
17887TIP3   OH275075   4.147   4.993  12.056 -0.0135 -0.2457 -0.2731
17887TIP3    H175076   4.135   4.906  12.017  0.2475 -0.2249 -0.3994
17887TIP3    H275077   4.241   5.000  12.072  0.4960  1.3912 -3.5180
17888TIP3   OH275078   3.432   5.142   2.603 -0.2209 -0.3726  0.2379
17888TIP3    H175079   3.440   5.173   2.693 -0.0669  1.3346 -0.3412
17888TIP3    H275080   3.505   5.080   2.592  2.2474  2.4560  0.0934
17889TIP3   OH275081   1.913   0.479  15.952 -0.4044 -0.1096  0.1535
17889TIP3    H175082   1.830   0.434  15.936 -1.0024  1.3647 -0.9682
17889TIP3    H275083   1.976   0.433  15.896 -0.5410 -0.9646  0.6959
17890TIP3   OH275084   2.853   0.536   1.576 -0.3411 -0.3154  0.3967
17890TIP3    H175085   2.780   0.597   1.559 -0.9266 -0.9946  0.4421
17890TIP3    H275086   2.810   0.458   1.611  0.3408 -1.0304 -0.3690
17891TIP3   OH275087   3.748   2.028  14.463 -0.5658 -0.1250  0.5632
17891TIP3    H175088   3.772   1.939  14.435  0.0969 -0.0648  0.9421
17891TIP3    H275089   3.735   2.020  14.557 -3.0006 -0.3740  0.2324
17892TIP3   OH275090   1.441   2.053   0.240 -0.1284 -0.1939  0.0371
17892TIP3    H175091   1.413   1.969   0.277 -0.4678  0.2578  0.8296
17892TIP3    H275092   1.372   2.077   0.178 -1.0112  0.4114  1.2197
17893TIP3   OH275093   3.218   5.405  13.012  0.2602 -0.1821 -0.3129
17893TIP3    H175094   3.275   5.475  13.044  1.1633 -0.9704 -0.1479
17893TIP3    H275095   3.130   5.441  13.015  1.0316  2.2593 -3.7096
17894TIP3   OH275096   4.867   6.020   1.420  0.1896  0.0564 -0.2381
17894TIP3    H175097   4.888   5.974   1.501  1.4235  1.5820  0.3307
17894TIP3    H275098   4.910   5.968   1.352  1.7582  0.4603  0.4237
17895TIP3   OH275099   3.552   2.108  15.840  0.0046  0.4597 -0.2083
17895TIP3    H175100   3.574   2.065  15.923 -0.3929  1.0727  0.2207
17895TIP3    H275101   3.534   2.199  15.864  1.5663  1.0528 -1.2068
17896TIP3   OH275102   6.132   2.037   5.374  0.4576  0.1929  0.5474
17896TIP3    H175103   6.049   1.990   5.382 -0.4612  1.2863 -2.1263
17896TIP3    H275104   6.198   1.973   5.402 -1.0832 -1.3947  0.6337
17897TIP3   OH275105   2.034   0.307   1.738  0.2748 -0.7195  0.0412
17897TIP3    H175106   1.965   0.359   1.778 -0.5612  0.0259 -2.2806
17897TIP3    H275107   2.003   0.216   1.748  0.1882 -0.5648  1.2484
17898TIP3   OH275108   3.706   3.192   5.161  0.4370 -0.2669  0.5017
17898TIP3    H175109   3.721   3.130   5.233 -2.0426  1.6317  2.7685
17898TIP3    H275110   3.758   3.269   5.184 -0.4431  0.3910  0.3205
17899TIP3   OH275111   1.412   1.918  16.252 -0.4540  0.2055 -0.0714
17899TIP3    H175112   1.411   1.876  16.166  1.1626  1.4524 -0.7457
17899TIP3    H275113   1.476   1.989  16.243  0.0146  0.1260  2.2713
17900TIP3   OH275114   5.346   0.076   5.352  0.1853  0.1812  0.4663
17900TIP3    H175115   5.294   0.008   5.394  0.9113  0.0053  1.0879
17900TIP3    H275116   5.325   0.156   5.400  0.1635  0.1895  0.4431
17901TIP3   OH275117   3.815   2.598   2.256 -0.1349 -0.1467  0.4736
17901TIP3    H175118   3.876   2.649   2.202  1.9371  0.0741  2.8961
17901TIP3    H275119   3.819   2.640   2.342 -0.8399 -2.4395  1.6732
17902TIP3   OH275120   4.909   1.209   2.518 -0.0004 -0.1016 -0.0010
17902TIP3    H175121   4.868   1.228   2.603 -0.0632 -0.8985  0.1467
17902TIP3    H275122   4.884   1.283   2.463  1.4689  1.3119  1.1658
17903TIP3   OH275123   2.478   6.214   2.902  0.0227  0.2174 -0.6018
17903TIP3    H175124   2.474   6.120   2.918 -0.0780  0.2182 -0.6289
17903TIP3    H275125   2.446   6.225   2.812  1.6167  0.0992 -1.2062
17904TIP3   OH275126   3.447   3.258  11.780  0.4528 -0.0225 -0.5268
17904TIP3    H175127   3.389   3.272  11.705 -0.4096  1.5906  0.4042
17904TIP3    H275128   3.407   3.184  11.827 -0.1056  0.2327 -0.5962
17905TIP3   OH275129   3.071   4.187  14.595  0.3267  0.3334 -0.8978
17905TIP3    H175130   3.050   4.187  14.501  0.2529  0.2957 -0.8821
17905TIP3    H275131   3.004   4.130  14.634  0.6848 -0.0791 -0.8924
17906TIP3   OH275132   6.525   4.340   5.381  0.4783  0.0335 -0.1244
17906TIP3    H175133   6.548   4.313   5.292  1.1214  0.3646 -0.0612
17906TIP3    H275134   6.440   4.381   5.372  0.9567  0.8967 -0.7374
17907TIP3   OH275135   2.825   5.602  13.270  0.1914  0.6111 -0.0915
17907TIP3    H175136   2.846   5.615  13.362  2.3520  2.8947 -0.8493
17907TIP3    H275137   2.732   5.624  13.263 -0.7766 -2.4722  2.0217
17908TIP3   OH275138   3.705   4.548   3.037  1.0003  1.0367 -0.5457
17908TIP3    H175139   3.632   4.529   2.978  0.2566 -0.5548  0.8352
17908TIP3    H275140   3.742   4.462   3.057  0.6689  1.4347  1.9802
17909TIP3   OH275141   0.389   6.713  15.779  0.6677 -0.5142 -0.4444
17909TIP3    H175142   0.389   6.802  15.815  3.4115 -0.0969 -1.3284
17909TIP3    H275143   0.314   6.712  15.719  0.8292  1.3548 -0.7158
17910TIP3   OH275144   4.588   1.970  13.275  0.0682  0.4126 -0.1093
17910TIP3    H175145   4.514   1.954  13.216 -0.2787  0.8858  0.1944
17910TIP3    H275146   4.634   2.045  13.236  0.3029  0.2122 -0.2172
17911TIP3   OH275147   6.767   4.023  10.580 -0.0021  0.2893  0.0397
17911TIP3    H175148   6.826   4.082  10.626 -0.9083  2.2906 -1.2597
17911TIP3    H275149   6.822   3.981  10.514  1.5923 -3.5584  3.6249
17912TIP3   OH275150   2.548   5.155   2.401 -0.1130  0.6289  0.4461
17912TIP3    H175151   2.629   5.156   2.452 -0.6456 -0.4200  1.3358
17912TIP3    H275152   2.519   5.064   2.404 -0.0367  0.4984 -1.9489
17913TIP3   OH275153   4.134   2.453  13.829 -0.4749 -0.4163 -0.7706
17913TIP3    H175154   4.227   2.444  13.811 -0.4375 -1.0636 -0.2587
17913TIP3    H275155   4.127   2.528  13.888 -0.3212 -0.1005 -1.1533
17914TIP3   OH275156   5.548   0.250  16.440  0.2374  0.1019  0.3425
17914TIP3    H175157   5.572   0.161  16.464  1.4633  0.5405  0.8185
17914TIP3    H275158   5.591   0.264  16.356  0.3265  0.3491  0.4291
17915TIP3   OH275159   3.011   0.910  16.759  0.3638  0.1114 -0.1205
17915TIP3    H175160   3.093   0.891  16.713  1.4340  1.4839  1.1919
17915TIP3    H275161   2.982   0.825  16.794  1.6317 -0.2447  0.0647
17916TIP3   OH275162   4.143   4.162  13.117  0.0100 -0.2405  0.3359
17916TIP3    H175163   4.166   4.108  13.193  2.6999  0.6884  0.2404
17916TIP3    H275164   4.107   4.101  13.054  1.4170 -1.6645  0.8791
17917TIP3   OH275165   5.248   3.143   5.915  0.1600 -0.0815 -0.2158
17917TIP3    H175166   5.294   3.207   5.968  1.3221 -1.7532  0.8273
17917TIP3    H275167   5.195   3.093   5.977  1.4418 -1.9862 -0.6100
17918TIP3   OH275168   3.665   6.495   4.401  0.1245 -0.0196  0.6429
17918TIP3    H175169   3.572   6.483   4.418  0.1107 -1.0201 -0.0923
17918TIP3    H275170   3.703   6.517   4.487 -0.9410  1.4671  0.7452
17919TIP3   OH275171   6.074   6.317   1.023 -0.5193  0.2250 -0.3182
17919TIP3    H175172   6.008   6.309   0.955 -0.5382 -1.9309 -0.0822
17919TIP3    H275173   6.135   6.245   1.006  0.2869  0.5600  1.0658
17920TIP3   OH275174   0.293   3.861  12.335  0.3547  0.4617 -0.1018
17920TIP3    H175175   0.378   3.892  12.302 -0.0918  1.4141 -0.3700
17920TIP3    H275176   0.258   3.807  12.265  0.4262  0.6247 -0.2620
17921TIP3   OH275177   3.643   5.553  16.526 -0.3523  0.3458  0.1785
17921TIP3    H175178   3.556   5.554  16.487 -0.7843  0.4471  1.1302
17921TIP3    H275179   3.643   5.629  16.585  1.0739  1.5395 -1.3292
17922TIP3   OH275180   0.043   0.320   1.489 -0.1119 -0.1315  0.3479
17922TIP3    H175181   0.033   0.303   1.583 -1.0601 -1.3713  0.0380
17922TIP3    H275182   0.060   0.414   1.484 -0.8116  0.0875  1.7151
17923TIP3   OH275183   1.122   5.915   5.824  0.0198  0.0775 -0.0305
17923TIP3    H175184   1.154   5.861   5.897 -0.7144 -1.6739 -0.9729
17923TIP3    H275185   1.202   5.944   5.779  0.4093 -2.7884 -1.3195
17924TIP3   OH275186   4.323   1.008   5.192  0.8288 -0.1201  0.8694
17924TIP3    H175187   4.357   1.019   5.281  1.9307 -1.5092  0.6360
17924TIP3    H275188   4.269   0.930   5.196  0.9238 -0.2188  0.3173
17925TIP3   OH275189   4.414   3.202   1.431 -0.3660  0.0546 -0.2089
17925TIP3    H175190   4.409   3.165   1.343 -0.6447  0.9799 -0.5867
17925TIP3    H275191   4.323   3.212   1.458 -0.3223  1.5260 -0.5679
17926TIP3   OH275192   3.455   2.573  11.817  0.4792 -0.2047 -0.7679
17926TIP3    H175193   3.401   2.561  11.740 -1.6302  0.7641  0.5066
17926TIP3    H275194   3.481   2.485  11.843 -1.5643 -0.8016 -0.6777
17927TIP3   OH275195   6.087   6.154   5.889 -0.2766 -0.4712 -0.5224
17927TIP3    H175196   6.060   6.199   5.969 -1.5896 -0.2904 -1.0542
17927TIP3    H275197   6.145   6.217   5.845 -1.3794  0.3649 -0.8167
17928TIP3   OH275198   2.990   6.638  14.131  0.3191 -0.1813 -0.6931
17928TIP3    H175199   3.024   6.561  14.086  1.6332 -1.2752  2.0996
17928TIP3    H275200   2.939   6.603  14.203 -0.0135  1.5642 -0.0623
17929TIP3   OH275201   4.411   1.826  11.731 -0.0385 -0.6133  0.5836
17929TIP3    H175202   4.442   1.895  11.790  0.1928 -0.7786  0.6538
17929TIP3    H275203   4.461   1.748  11.756  0.5081 -0.5389 -0.2406
17930TIP3   OH275204   0.726   2.256  13.020  0.0658  0.0668  0.2344
17930TIP3    H175205   0.716   2.316  12.946 -0.0341  0.3488  0.4727
17930TIP3    H275206   0.747   2.172  12.981 -0.6505  0.0603 -0.1539
17931TIP3   OH275207   6.225   1.777  17.127  0.8563  1.0017 -1.1596
17931TIP3    H175208   6.155   1.761  17.190  1.5928 -1.1259 -0.8429
17931TIP3    H275209   6.292   1.825  17.176  1.1213 -0.0346 -0.4959
17932TIP3   OH275210   5.105   5.281  13.468 -0.1514  0.1029  0.2278
17932TIP3    H175211   5.141   5.306  13.383 -1.0464  1.4985  0.2464
17932TIP3    H275212   5.031   5.340  13.481 -0.1669 -0.2605  1.8718
17933TIP3   OH275213   5.807   0.404   5.064 -0.1961  0.4021  0.3029
17933TIP3    H175214   5.776   0.390   5.153 -1.3856  1.7990  0.1152
17933TIP3    H275215   5.873   0.472   5.071 -0.1573  0.3832  0.1418
17934TIP3   OH275216   3.385   3.935  16.737 -0.7131 -0.5451  0.1301
17934TIP3    H175217   3.442   3.882  16.681  1.0045 -0.9580  2.1932
17934TIP3    H275218   3.338   3.871  16.792 -0.4205 -0.0513  0.9701
17935TIP3   OH275219   0.688   4.196   4.470 -0.0217 -0.4580  0.2694
17935TIP3    H175220   0.638   4.132   4.420  0.0854  0.4797 -1.0591
17935TIP3    H275221   0.735   4.144   4.535 -0.8128 -1.6002 -0.0616
17936TIP3   OH275222   4.885   2.645  14.740 -0.0890  0.3073  0.3244
17936TIP3    H175223   4.913   2.606  14.822  0.5345 -0.2992 -0.1665
17936TIP3    H275224   4.943   2.607  14.674 -1.5500 -0.3512 -0.6013
17937TIP3   OH275225   5.140   3.676   3.239 -0.0886  0.2226 -0.1576
17937TIP3    H175226   5.080   3.605   3.218 -1.8498  1.5390  0.3724
17937TIP3    H275227   5.209   3.669   3.173  0.4683 -2.7816  0.6845
17938TIP3   OH275228   4.258   6.591  13.034  0.2908  0.4719 -0.2566
17938TIP3    H175229   4.282   6.517  12.979 -1.7634  1.3479 -2.4472
17938TIP3    H275230   4.184   6.560  13.085  1.8598 -0.1701  1.6837
17939TIP3   OH275231   4.991   4.156   3.978  0.2016  0.1233  0.4295
17939TIP3    H175232   5.062   4.116   3.928  0.6725 -0.8120  1.7925
17939TIP3    H275233   4.934   4.083   4.001 -0.2022  0.5927  0.9215
17940TIP3   OH275234   1.904   6.394   2.724 -0.3694 -0.8449 -0.5408
17940TIP3    H175235   1.928   6.303   2.741 -1.0831 -1.0563 -0.6655
17940TIP3    H275236   1.813   6.401   2.751  0.3339  0.4403  1.6661
17941TIP3   OH275237   0.675   0.576  15.024  0.2768 -0.5938  0.3319
17941TIP3    H175238   0.634   0.522  15.092 -1.7171  0.4842 -0.0031
17941TIP3    H275239   0.723   0.513  14.969 -1.0736 -1.8934  0.6266
17942TIP3   OH275240   0.739   0.492   2.051  0.0483 -0.2535 -0.6930
17942TIP3    H175241   0.730   0.473   1.958  0.0215 -1.9448 -0.3701
17942TIP3    H275242   0.685   0.425   2.094 -3.2576  2.9186  0.4081
17943TIP3   OH275243   4.579   1.402   5.979 -0.7494  0.0551  0.5433
17943TIP3    H175244   4.661   1.397   5.930 -1.2015 -0.6716 -0.1548
17943TIP3    H275245   4.606   1.424   6.068  0.1936 -0.0024  0.2837
17944TIP3   OH275246   0.078   1.675  16.941  0.1469  0.8208 -0.3370
17944TIP3    H175247   0.169   1.696  16.964  0.5163 -0.1447 -0.8645
17944TIP3    H275248   0.058   1.598  16.993 -0.7782  1.7218  0.6557
17945TIP3   OH275249   1.001   2.054   2.857  0.1519  0.4815  0.1865
17945TIP3    H175250   0.959   2.078   2.939  0.4897  0.8840  0.2434
17945TIP3    H275251   1.094   2.048   2.878  0.0740 -0.9064  0.1753
17946TIP3   OH275252   1.608   5.432  16.671 -0.2870  0.1421  0.4486
17946TIP3    H175253   1.608   5.336  16.673  0.3451  0.1283 -0.0515
17946TIP3    H275254   1.697   5.456  16.696  0.2130  0.5374 -1.5880
17947TIP3   OH275255   3.618   6.352   6.080 -0.0527  0.3658 -0.1038
17947TIP3    H175256   3.658   6.361   6.166  2.0340 -1.7136 -0.8108
17947TIP3    H275257   3.526   6.332   6.099  0.0364  1.4626  1.5994
17948TIP3   OH275258   0.367   3.481   0.183  0.1761 -0.2164  0.4183
17948TIP3    H175259   0.336   3.572   0.179  0.3051 -0.1953 -0.1898
17948TIP3    H275260   0.319   3.437   0.113 -1.3678 -1.0827  2.0054
17949TIP3   OH275261   4.212   3.944   0.850  0.5698  0.1780 -0.3296
17949TIP3    H175262   4.269   3.899   0.913 -0.5628 -0.9395 -0.0909
17949TIP3    H275263   4.140   3.883   0.835 -0.2705  1.3437 -1.0779
17950TIP3   OH275264   2.514   1.187  13.676  0.2133  0.0614  0.2170
17950TIP3    H175265   2.429   1.145  13.689  0.5020 -0.0142  1.9780
17950TIP3    H275266   2.533   1.230  13.759  1.0967  1.5681 -0.7302
17951TIP3   OH275267   5.213   3.977   4.951 -0.5956 -0.6433 -0.4117
17951TIP3    H175268   5.121   3.999   4.968 -0.4193 -1.3559  1.7167
17951TIP3    H275269   5.259   4.009   5.029  0.9884 -0.1223 -1.5571
17952TIP3   OH275270   6.044   0.717   3.030 -0.4357  0.1309  0.0938
17952TIP3    H175271   6.019   0.637   3.076 -0.2192 -0.8726 -1.5389
17952TIP3    H275272   6.138   0.727   3.049 -0.5856  0.3361  0.7722
17953TIP3   OH275273   4.515   1.330  16.307  0.0209 -0.0067 -0.0801
17953TIP3    H175274   4.431   1.355  16.346 -1.2784 -2.6441 -1.0562
17953TIP3    H275275   4.519   1.378  16.224  0.4584  1.7012  0.9078
17954TIP3   OH275276   2.210   5.794  12.181  0.1908  0.4405  0.4060
17954TIP3    H175277   2.124   5.756  12.200 -0.3923  0.9252 -1.2344
17954TIP3    H275278   2.194   5.889  12.179  0.5377  0.4722 -1.0189
17955TIP3   OH275279   4.181   1.883  14.093 -0.7383  0.3075 -0.3706
17955TIP3    H175280   4.276   1.878  14.083 -0.6149  0.7476  0.5373
17955TIP3    H275281   4.168   1.936  14.172 -1.7246 -0.5486  0.0488
17956TIP3   OH275282   3.938   3.805   3.321  0.4338 -0.5558 -0.1811
17956TIP3    H175283   4.005   3.776   3.259  2.3882 -0.0876  1.6780
17956TIP3    H275284   3.929   3.899   3.305 -0.8378 -0.8511 -1.3781
17957TIP3   OH275285   0.092   0.003  15.837  0.3211  0.5780 -0.0490
17957TIP3    H175286   0.108  -0.033  15.750 -0.2055  1.2074 -0.4149
17957TIP3    H275287   0.178   0.032  15.867  0.3662  1.1684 -0.7369
17958TIP3   OH275288   5.713   2.143  12.318  0.2011  0.1206  0.0239
17958TIP3    H175289   5.712   2.159  12.412 -1.6569 -0.9365  0.1991
17958TIP3    H275290   5.700   2.230  12.279 -1.2400  0.2816  0.8051
17959TIP3   OH275291   4.694   5.836   5.913 -0.7379  0.3838  0.3933
17959TIP3    H175292   4.625   5.891   5.951 -1.5331  0.3432 -0.9302
17959TIP3    H275293   4.675   5.748   5.945 -0.9915  0.4604  0.4565
17960TIP3   OH275294   3.878   3.696  12.736 -1.1705  0.2098 -0.0468
17960TIP3    H175295   3.893   3.789  12.756 -1.3006 -0.0282  1.1721
17960TIP3    H275296   3.904   3.687  12.645  0.5945  1.0555  0.3570
17961TIP3   OH275297   2.592   6.747   0.893 -0.1664 -0.1326 -0.4054
17961TIP3    H175298   2.588   6.816   0.828 -3.2996  0.4267  0.2969
17961TIP3    H275299   2.514   6.760   0.947  2.0090 -0.9041  3.1253
17962TIP3   OH275300   0.160   3.222   0.289 -0.5963  0.0068  0.0547
17962TIP3    H175301   0.197   3.165   0.356  0.7718  1.9500  0.9986
17962TIP3    H275302   0.175   3.176   0.207  1.4325 -0.5109  0.6908
17963TIP3   OH275303   0.445   3.953  16.656 -0.0861  0.3017 -0.5478
17963TIP3    H175304   0.496   3.954  16.575 -0.7146  1.0718 -0.9335
17963TIP3    H275305   0.455   4.041  16.692  0.0143  0.0260  0.1066
17964TIP3   OH275306   2.939   1.589   0.464 -0.4491 -0.0392  0.2265
17964TIP3    H175307   2.931   1.519   0.399  0.5475  0.4374 -0.4142
17964TIP3    H275308   2.921   1.670   0.415  0.9644  0.3835  0.3772
17965TIP3   OH275309   3.575   0.164   1.541 -0.5902 -0.4382 -0.5248
17965TIP3    H175310   3.547   0.232   1.479 -0.0137  0.6865  0.4072
17965TIP3    H275311   3.586   0.211   1.624 -1.6783 -1.9890  0.5221
17966TIP3   OH275312   0.638   5.925  11.591 -0.3520 -0.3740  0.6922
17966TIP3    H175313   0.569   5.980  11.627 -0.3836 -0.5857  0.9548
17966TIP3    H275314   0.627   5.931  11.496 -1.6137 -1.5450  0.7520
17967TIP3   OH275315   2.175   5.795  12.993  0.1154 -0.2718 -0.3604
17967TIP3    H175316   2.226   5.739  12.936  3.3726  0.7294  1.4510
17967TIP3    H275317   2.194   5.764  13.081 -0.4465  1.7004  0.5006
17968TIP3   OH275318   5.500   1.233   3.424 -0.1047  0.3037  0.1548
17968TIP3    H175319   5.448   1.294   3.371 -0.6822  0.9048  1.3822
17968TIP3    H275320   5.586   1.274   3.429  0.3505 -0.4056 -1.3947
17969TIP3   OH275321   5.416   2.360   3.392 -0.1323 -0.6460 -0.4942
17969TIP3    H175322   5.511   2.353   3.384 -0.1113 -0.1867 -0.6162
17969TIP3    H275323   5.383   2.280   3.350  0.1941 -0.7682 -0.5203
17970TIP3   OH275324   0.004   2.551   4.768 -0.0423  0.1054  0.0371
17970TIP3    H175325   0.023   2.577   4.858 -2.9596  1.3840  0.3430
17970TIP3    H275326  -0.071   2.492   4.775  1.5881 -2.2199 -1.3509
17971TIP3   OH275327   6.523   5.872  13.326 -0.1114 -0.5915  0.4015
17971TIP3    H175328   6.489   5.946  13.376  0.4659 -0.6419  0.8833
17971TIP3    H275329   6.614   5.863  13.356 -0.4781 -2.1391  1.1125
17972TIP3   OH275330   5.813   0.726  12.457  0.1149 -0.2050  0.7956
17972TIP3    H175331   5.773   0.686  12.379 -1.2335 -0.4115  1.5777
17972TIP3    H275332   5.851   0.808  12.424  1.2002 -1.1731 -0.4335
17973TIP3   OH275333   5.312   6.070   0.585 -0.1076  0.1107  0.3065
17973TIP3    H175334   5.295   6.041   0.675  2.6195 -1.2123  0.4327
17973TIP3    H275335   5.350   6.158   0.595 -1.0889  0.5403  0.3460
17974TIP3   OH275336   4.851   0.590  13.243 -0.2442  0.5275 -0.3773
17974TIP3    H175337   4.942   0.600  13.271 -0.2682  0.5143 -0.2957
17974TIP3    H275338   4.857   0.578  13.148 -0.1742  0.7259 -0.3992
17975TIP3   OH275339   5.733   1.405  11.699  0.0083  0.1898  0.7471
17975TIP3    H175340   5.757   1.409  11.792  0.1397 -0.4466  0.7472
17975TIP3    H275341   5.812   1.433  11.652  0.4873 -1.0288  0.7797
17976TIP3   OH275342   5.337   3.373   5.131 -0.4615 -0.2467 -0.2777
17976TIP3    H175343   5.377   3.429   5.197  0.2765  0.6131 -1.4385
17976TIP3    H275344   5.279   3.315   5.180  0.1453  0.3248  1.1248
17977TIP3   OH275345   6.571   5.204   4.469 -0.3462  0.2507 -0.6572
17977TIP3    H175346   6.558   5.189   4.376  2.8919  1.3160 -1.3445
17977TIP3    H275347   6.554   5.298   4.480  1.0840  0.5084 -0.5516
17978TIP3   OH275348   6.164   3.629   2.206  0.1700  0.3934  0.3593
17978TIP3    H175349   6.242   3.670   2.169  1.5832 -3.3092 -1.0100
17978TIP3    H275350   6.193   3.593   2.290 -0.0999 -0.7510 -0.0261
17979TIP3   OH275351   4.259   1.494  12.947 -0.6020 -0.6666 -0.0698
17979TIP3    H175352   4.323   1.427  12.920  0.9557  0.8336 -0.1634
17979TIP3    H275353   4.244   1.546  12.869 -1.2244 -0.4433  0.1986
17980TIP3   OH275354   4.077   4.857   4.829  0.1572  0.0219 -0.1540
17980TIP3    H175355   3.982   4.842   4.834  0.3244 -1.0233  0.0644
17980TIP3    H275356   4.111   4.815   4.908  0.7543  0.8280  0.0178
17981TIP3   OH275357   5.984   2.107  12.243 -0.0639 -0.2103 -0.4431
17981TIP3    H175358   5.895   2.118  12.277  0.5052 -0.1910  1.0686
17981TIP3    H275359   5.972   2.083  12.151 -1.6111  0.5962 -0.4602
17982TIP3   OH275360   5.134   3.072  16.194 -0.1771  0.6594  0.1581
17982TIP3    H175361   5.196   3.117  16.252 -0.1223  1.0485 -0.1992
17982TIP3    H275362   5.049   3.084  16.237  0.1472 -0.9230  1.2806
17983TIP3   OH275363   2.609   6.248   3.395 -0.2361  0.3635 -0.2862
17983TIP3    H175364   2.620   6.154   3.380 -0.2273  0.2757  0.2522
17983TIP3    H275365   2.587   6.284   3.309 -0.5039 -0.1698 -0.4396
17984TIP3   OH275366   0.538   5.182   5.233  0.5595  0.3448 -0.6695
17984TIP3    H175367   0.527   5.277   5.230 -0.2559  0.2391 -1.4628
17984TIP3    H275368   0.483   5.149   5.161 -0.7635 -0.8556  0.8506
17985TIP3   OH275369   3.924   2.315  14.271  0.6935 -0.1904  0.1579
17985TIP3    H175370   3.844   2.369  14.268  0.7001 -0.2155 -0.4205
17985TIP3    H275371   3.913   2.262  14.350  0.9757  1.1056  1.0691
17986TIP3   OH275372   2.797   0.112   1.703  0.0442 -0.1419  0.0400
17986TIP3    H175373   2.819   0.122   1.611  0.1581  0.4955  0.1337
17986TIP3    H275374   2.705   0.086   1.704 -0.0792  0.2798 -0.2402
17987TIP3   OH275375   6.785   4.281  14.306  0.0625 -0.0475  0.2539
17987TIP3    H175376   6.854   4.289  14.371  1.4848 -1.8547 -0.9753
17987TIP3    H275377   6.812   4.207  14.251 -2.8930 -0.8608 -0.1960
17988TIP3   OH275378   6.044   4.255   1.496  0.1919  0.2759 -0.2162
17988TIP3    H175379   6.006   4.171   1.472  2.8783 -1.2314  0.5621
17988TIP3    H275380   6.100   4.278   1.421 -0.4242  1.3293 -0.3691
17989TIP3   OH275381   5.460   4.872  10.533  0.3918  0.2734 -0.4151
17989TIP3    H175382   5.491   4.957  10.566 -0.2156 -0.1344  1.2658
17989TIP3    H275383   5.540   4.823  10.515  0.7467  1.0544 -0.9941
17990TIP3   OH275384   4.586   6.618   0.165 -0.0276 -0.0915  0.2568
17990TIP3    H175385   4.496   6.645   0.183  0.8538  1.4608  2.6251
17990TIP3    H275386   4.624   6.601   0.251  1.8428 -1.1080 -0.7256
17991TIP3   OH275387   0.416   5.449   1.068 -0.2003  0.2021 -0.4456
17991TIP3    H175388   0.446   5.540   1.064  0.8925 -0.0767  0.8688
17991TIP3    H275389   0.358   5.446   1.144 -0.3063 -0.1778 -0.5380
17992TIP3   OH275390   4.921   3.897  12.212 -0.3603  0.0811  0.2992
17992TIP3    H175391   4.849   3.870  12.268  0.4627  0.5583  1.6146
17992TIP3    H275392   4.929   3.991  12.227  0.1939  0.1255 -0.2459
17993TIP3   OH275393   3.937   2.792  15.741  0.4343  0.3155  0.0272
17993TIP3    H175394   4.020   2.747  15.723  1.3373  1.1440  2.0062
17993TIP3    H275395   3.958   2.885  15.733 -0.2224  0.5457  0.8831
17994TIP3   OH275396   2.358   1.633  16.276 -0.1505 -0.0602 -0.1593
17994TIP3    H175397   2.446   1.670  16.266 -0.3788  0.4518 -0.2795
17994TIP3    H275398   2.338   1.645  16.369  0.2116 -0.8670  0.0285
17995TIP3   OH275399   4.046   1.103  13.784 -0.1479  0.1790  0.0057
17995TIP3    H175400   4.074   1.106  13.876 -3.2820 -0.7003  1.0756
17995TIP3    H275401   4.034   1.195  13.760 -2.0345  0.3558  1.4388
17996TIP3   OH275402   2.630   1.671   3.678  0.5825  0.4537  0.0790
17996TIP3    H175403   2.576   1.738   3.720 -0.4825 -0.4239  0.1362
17996TIP3    H275404   2.714   1.715   3.662 -0.4977  2.2041 -1.0505
17997TIP3   OH275405   3.036   5.925  14.892 -0.5210 -0.1528  0.4707
17997TIP3    H175406   3.043   5.966  14.978 -3.2543  2.2705 -0.3304
17997TIP3    H275407   3.106   5.965  14.840  1.4221 -1.9616  1.6495
17998TIP3   OH275408   4.462   0.654   4.137 -0.6390  0.1905 -0.3847
17998TIP3    H175409   4.380   0.605   4.143  0.0019 -0.8724 -0.2608
17998TIP3    H275410   4.468   0.701   4.221 -0.2635 -1.0955  0.3129
17999TIP3   OH275411   0.779   3.479  11.819 -0.6817  0.2116  0.3993
17999TIP3    H175412   0.825   3.398  11.842 -0.6625  0.4389  1.1600
17999TIP3    H275413   0.692   3.450  11.791 -0.5187 -0.1071  0.2183
18000TIP3   OH275414   1.883   3.415  14.476  0.3579 -0.2228  0.1624
18000TIP3    H175415   1.882   3.417  14.572 -2.1661 -0.0007  0.1637
18000TIP3    H275416   1.835   3.335  14.454  1.3489 -0.5300 -0.9345
18001TIP3   OH275417   6.049   5.799   0.258 -0.1750  0.2374 -0.3896
18001TIP3    H175418   6.091   5.883   0.271  0.3328  0.1042 -1.1266
18001TIP3    H275419   5.955   5.817   0.266  0.0309  0.3954  1.9676
18002TIP3   OH275420   6.678   4.109   3.112  0.4323 -0.2535 -0.3432
18002TIP3    H175421   6.712   4.032   3.066 -0.6192  0.0035 -1.5792
18002TIP3    H275422   6.589   4.119   3.079 -0.0119  0.5232  1.0481
18003TIP3   OH275423   6.439   3.613   6.755  0.0981  0.0251 -0.7427
18003TIP3    H175424   6.508   3.579   6.812 -0.5906 -0.8069 -0.3843
18003TIP3    H275425   6.413   3.696   6.795  1.1685  0.5405 -1.1137
18004TIP3   OH275426   6.379   2.984  15.915  0.0108 -0.0381 -0.7225
18004TIP3    H175427   6.301   2.930  15.930  0.4384 -0.8348 -1.2990
18004TIP3    H275428   6.375   3.051  15.983  0.6401 -2.1314  1.4632
18005TIP3   OH275429   5.419   3.650   6.397  0.2417  0.1485  0.0101
18005TIP3    H175430   5.370   3.695   6.328 -0.8043 -0.8917  0.0461
18005TIP3    H275431   5.370   3.670   6.477  0.5871  0.1056  0.2340
18006TIP3   OH275432   2.544   5.668  13.256 -0.2422 -0.9807 -0.7648
18006TIP3    H175433   2.528   5.631  13.343 -0.7727 -0.1740 -0.5083
18006TIP3    H275434   2.486   5.620  13.198 -1.8901  0.3210 -0.2215
18007TIP3   OH275435   0.714   1.526  16.324 -0.8281 -0.2755  0.0035
18007TIP3    H175436   0.711   1.617  16.293 -2.7673 -0.1800  0.3526
18007TIP3    H275437   0.697   1.533  16.418 -1.0980 -1.0096  0.0084
18008TIP3   OH275438   2.887   3.398  11.675  0.1484  0.5646 -0.0111
18008TIP3    H175439   2.834   3.447  11.739 -1.1808 -0.5243 -0.2595
18008TIP3    H275440   2.953   3.354  11.728 -0.1538  0.6927  0.4780
18009TIP3   OH275441   2.459   1.576   1.967 -0.0752  0.3879  0.1247
18009TIP3    H175442   2.412   1.605   2.044 -0.2133  0.7905 -0.1111
18009TIP3    H275443   2.537   1.532   2.001 -0.1744  0.5013  0.4914
18010TIP3   OH275444   6.672   1.337  16.234 -0.0545 -0.4928 -0.0990
18010TIP3    H175445   6.662   1.256  16.183 -1.2062 -0.6893  0.4170
18010TIP3    H275446   6.600   1.393  16.204  0.7931  0.3763 -0.5159
18011TIP3   OH275447   3.724   4.759  16.245 -0.8019  0.0516 -0.0463
18011TIP3    H175448   3.815   4.772  16.220 -1.1599  1.3265 -0.7312
18011TIP3    H275449   3.685   4.710  16.173 -0.9895  0.7113 -0.3969
18012TIP3   OH275450   5.515   6.267  14.443  0.5191 -0.0962 -0.4792
18012TIP3    H175451   5.596   6.292  14.489  0.2834 -0.9997  0.4334
18012TIP3    H275452   5.495   6.343  14.388  0.7645  1.0426  0.9743
18013TIP3   OH275453   5.580   1.981   5.410  0.1226 -0.4610  0.0596
18013TIP3    H175454   5.553   2.017   5.325  0.9997  2.1234  0.8277
18013TIP3    H275455   5.498   1.957   5.453 -0.3707 -1.1352 -1.2380
18014TIP3   OH275456   2.857   5.046   3.848  0.1966  0.5443 -0.2265
18014TIP3    H175457   2.855   5.122   3.789 -0.0400  0.2562 -0.6013
18014TIP3    H275458   2.948   5.038   3.874  0.3448  0.5606 -0.7199
18015TIP3   OH275459   2.098   5.543   5.082 -0.2345 -0.5274  0.3137
18015TIP3    H175460   2.033   5.603   5.118  1.6315  1.5568  0.2591
18015TIP3    H275461   2.105   5.473   5.147 -1.7035 -0.2037  0.8391
18016TIP3   OH275462   1.737   3.933   4.924  0.0323  0.5875  0.1845
18016TIP3    H175463   1.748   3.947   5.018  1.0899 -0.7774  0.2849
18016TIP3    H275464   1.826   3.928   4.890 -0.3451  1.0125 -0.8901
18017TIP3   OH275465   6.240   2.260  13.773 -0.2744 -0.2298 -0.1710
18017TIP3    H175466   6.301   2.333  13.783 -0.3311  0.0158 -1.5172
18017TIP3    H275467   6.158   2.291  13.813 -1.4500  1.9270 -3.9601
18018TIP3   OH275468   3.204   2.552  13.459  0.3087 -0.0275 -0.5793
18018TIP3    H175469   3.172   2.586  13.375  0.3285  0.0908 -0.5389
18018TIP3    H275470   3.160   2.467  13.469 -0.8262  0.6103 -0.0255
18019TIP3   OH275471   2.691   4.982  13.261  0.4791  0.5629 -0.4479
18019TIP3    H175472   2.712   5.019  13.174 -2.7170  0.4826 -1.2937
18019TIP3    H275473   2.650   5.055  13.308  1.1616  0.2686  0.6121
18020TIP3   OH275474   2.211   4.523  12.084 -0.3199  0.3618 -0.2046
18020TIP3    H175475   2.168   4.537  12.000 -0.2460  0.7948 -0.1726
18020TIP3    H275476   2.142   4.489  12.141 -0.1316 -0.8988 -0.7125
18021TIP3   OH275477   3.300   2.971   1.054  0.2699  0.4395 -0.3152
18021TIP3    H175478   3.295   2.925   0.971  0.3752  0.5434 -0.3799
18021TIP3    H275479   3.273   3.061   1.034 -1.1652  0.1095  0.0565
18022TIP3   OH275480   0.008   3.785  10.962  0.5351  0.4152  0.5896
18022TIP3    H175481  -0.041   3.723  10.908 -0.1511  2.8757 -1.7355
18022TIP3    H275482   0.080   3.815  10.906  1.5087  0.8777  2.0517
18023TIP3   OH275483   2.731   4.966  14.325 -0.4723  0.0786 -0.0999
18023TIP3    H175484   2.802   5.026  14.301 -0.2927  0.2939  0.9415
18023TIP3    H275485   2.674   4.964  14.248  1.4066 -1.2176 -1.5016
18024TIP3   OH275486   2.180   1.421   6.516  0.2624  0.9400 -0.8700
18024TIP3    H175487   2.217   1.470   6.590 -0.2306 -0.1944  0.1593
18024TIP3    H275488   2.227   1.337   6.518  0.5336  1.0602 -2.1104
18025TIP3   OH275489   2.333   1.006  15.649 -0.4756 -0.1681  0.0688
18025TIP3    H175490   2.385   1.031  15.725  2.6245  0.1698 -2.0428
18025TIP3    H275491   2.292   1.087  15.620 -0.0493  0.1039  0.2219
18026TIP3   OH275492   0.692   6.435   2.009 -0.5312 -0.1999  0.3869
18026TIP3    H175493   0.704   6.400   2.097  0.4018  1.0326  0.7642
18026TIP3    H275494   0.764   6.496   1.998 -1.7133  1.0444 -0.5468
18027TIP3   OH275495   6.487   4.904   3.823 -0.1407  0.0507 -0.1402
18027TIP3    H175496   6.473   4.940   3.735  2.6862  0.5991 -0.3977
18027TIP3    H275497   6.529   4.974   3.872  1.3729 -1.3786  0.6566
18028TIP3   OH275498   2.375   5.415   4.009 -0.1775  0.4150 -0.0118
18028TIP3    H175499   2.409   5.489   4.058  1.0057 -0.1470  0.0296
18028TIP3    H275500   2.447   5.352   4.006 -0.6905 -0.1432 -1.2747
18029TIP3   OH275501   5.457   2.550  12.078 -0.2554 -0.1391  0.3182
18029TIP3    H175502   5.409   2.599  12.011  0.0061  0.7270  0.7635
18029TIP3    H275503   5.483   2.616  12.142  1.0122 -0.6920  0.3887
18030TIP3   OH275504   0.040   1.280   2.528  0.1088 -0.1286 -0.5218
18030TIP3    H175505   0.110   1.217   2.545  0.4395  0.0774 -1.0775
18030TIP3    H275506   0.051   1.347   2.595  1.9425  1.1315 -2.0041
18031TIP3   OH275507   4.679   1.940  14.819 -0.2990 -0.2146 -0.1660
18031TIP3    H175508   4.724   1.991  14.752 -2.0165 -1.5869 -2.4480
18031TIP3    H275509   4.749   1.905  14.874  1.1172  1.3962 -0.9058
18032TIP3   OH275510   3.325   2.672  16.588 -0.3938 -0.0725  0.0533
18032TIP3    H175511   3.382   2.684  16.512  0.8343  0.5680  1.0457
18032TIP3    H275512   3.311   2.577  16.592  3.4966 -0.6741  1.7934
18033TIP3   OH275513   4.929   4.220  12.855  0.0512 -0.2633 -0.1916
18033TIP3    H175514   4.900   4.209  12.946  0.5227 -0.7438 -0.0927
18033TIP3    H275515   4.988   4.146  12.841  0.6138  0.2727 -0.6332
18034TIP3   OH275516   4.965   1.852   0.337  0.3234  0.5454  0.5332
18034TIP3    H175517   4.974   1.805   0.420  0.1102 -1.7319 -0.6653
18034TIP3    H275518   5.039   1.820   0.284 -0.1782  1.1263 -0.5277
18035TIP3   OH275519   4.190   1.898  12.910 -0.4738  0.0549 -0.4892
18035TIP3    H175520   4.101   1.914  12.876 -1.2831 -1.9766  0.6065
18035TIP3    H275521   4.227   1.835  12.849 -0.6010 -0.8148  0.3352
18036TIP3   OH275522   1.051   0.207   2.564 -0.5392 -0.1121 -0.3856
18036TIP3    H175523   1.087   0.296   2.562  0.2471 -0.4261 -0.1756
18036TIP3    H275524   1.013   0.199   2.652 -1.8377  0.4925 -0.8730
18037TIP3   OH275525   5.061   1.749  12.747 -0.5731  0.4246  0.1017
18037TIP3    H175526   5.095   1.834  12.719 -0.6090  0.2824 -0.3903
18037TIP3    H275527   4.968   1.752  12.726 -0.7981  0.6778  1.1177
18038TIP3   OH275528   5.429   6.331  15.920 -0.0074 -0.4132  0.0543
18038TIP3    H175529   5.455   6.246  15.957 -0.0964 -1.0021 -1.1930
18038TIP3    H275530   5.510   6.370  15.889  0.1330  0.3017  1.3032
18039TIP3   OH275531   2.892   3.099   0.053  0.0853 -0.1912  0.7772
18039TIP3    H175532   2.868   3.170   0.112  0.4483  0.5665  0.0100
18039TIP3    H275533   2.879   3.134  -0.035  0.2718 -1.0663  0.3912
18040TIP3   OH275534   3.571   2.876  11.729  0.2087 -0.4819  0.3000
18040TIP3    H175535   3.639   2.810  11.716  1.2634  0.7595 -0.7026
18040TIP3    H275536   3.597   2.949  11.672 -0.8149  0.8756  1.5076
18041TIP3   OH275537   4.406   3.752   5.520  0.2017  0.1918  0.4639
18041TIP3    H175538   4.431   3.771   5.611 -1.5461 -0.7348  1.1637
18041TIP3    H275539   4.369   3.834   5.488 -0.3551  0.1550  1.0044
18042TIP3   OH275540   0.632   4.782  17.108  0.1627 -0.6190 -0.1546
18042TIP3    H175541   0.559   4.831  17.071 -1.3257 -1.9340  1.0005
18042TIP3    H275542   0.699   4.848  17.124 -1.0809  0.7306 -0.4410
18043TIP3   OH275543   2.542   2.870  15.617 -0.8435 -0.4756 -0.2254
18043TIP3    H175544   2.602   2.900  15.549  0.5172  1.4873  1.8159
18043TIP3    H275545   2.466   2.838  15.568  0.5731 -0.1778 -2.7125
18044TIP3   OH275546   5.046   0.877  15.475 -0.2132 -0.1993  0.8508
18044TIP3    H175547   5.098   0.929  15.536 -1.0049  2.2585 -0.4810
18044TIP3    H275548   5.104   0.864  15.400 -0.1067 -1.0361  1.0735
18045TIP3   OH275549   1.792   3.554   4.331 -0.5553 -0.1612 -0.1097
18045TIP3    H175550   1.701   3.572   4.307 -0.5701 -1.1806 -0.8231
18045TIP3    H275551   1.843   3.582   4.255 -0.3292 -0.2157  0.0215
18046TIP3   OH275552   3.370   6.256   2.293 -0.4906 -0.1870 -0.0190
18046TIP3    H175553   3.389   6.330   2.236 -1.9858  0.8041  0.7230
18046TIP3    H275554   3.277   6.267   2.316 -0.2185 -1.1989  1.6656
18047TIP3   OH275555   0.498   3.019   4.366 -0.2321 -0.1161 -0.6275
18047TIP3    H175556   0.499   2.923   4.372 -2.1160 -0.0373  1.4877
18047TIP3    H275557   0.586   3.045   4.395 -0.3603 -1.1210  0.7306
18048TIP3   OH275558   1.014   1.159   4.927 -0.2947 -0.4982 -0.4108
18048TIP3    H175559   1.103   1.193   4.928 -0.9690  1.3646  3.4602
18048TIP3    H275560   1.024   1.064   4.917  2.0902 -0.3000 -0.0095
18049TIP3   OH275561   0.843   0.365   4.358  0.3742  0.2181  0.2506
18049TIP3    H175562   0.772   0.429   4.349  1.5569  1.3531 -1.0763
18049TIP3    H275563   0.873   0.376   4.449 -0.3599  0.5418  0.4603
18050TIP3   OH275564   0.938   4.569   5.846  0.1025  0.1522 -1.0052
18050TIP3    H175565   0.891   4.635   5.896  0.7191 -1.7527  2.2733
18050TIP3    H275566   1.030   4.584   5.867  0.4293 -0.1650 -2.2089
18051TIP3   OH275567   1.293   2.407  11.186 -0.2080 -0.5794 -0.1763
18051TIP3    H175568   1.223   2.472  11.195  1.5285  1.3482 -0.1683
18051TIP3    H275569   1.295   2.386  11.093  0.5599  0.9381 -0.5184
18052TIP3   OH275570   4.286   0.296   3.628  0.2794  0.1206 -0.0191
18052TIP3    H175571   4.227   0.285   3.554  1.5592  1.5111 -1.2825
18052TIP3    H275572   4.366   0.249   3.603  1.4465  2.2481 -0.4072
18053TIP3   OH275573   2.235   5.575   4.841  0.6126  0.1356 -0.1560
18053TIP3    H175574   2.202   5.662   4.818 -0.8279 -0.0865  1.0197
18053TIP3    H275575   2.179   5.546   4.913  0.6038 -2.0619 -1.0084
18054TIP3   OH275576   2.237   1.339   0.085  0.1816 -0.1340 -0.2505
18054TIP3    H175577   2.168   1.290   0.041 -0.6447  1.0764 -0.3176
18054TIP3    H275578   2.288   1.378   0.014 -0.1831  0.4888 -0.1767
18055TIP3   OH275579   0.029   1.923   2.218 -0.1224  0.1707  0.2424
18055TIP3    H175580   0.091   1.995   2.218 -0.6135  0.6051  1.0916
18055TIP3    H275581   0.082   1.845   2.238  0.3222  0.3663 -0.1711
18056TIP3   OH275582   3.832   4.287  15.288  0.0246 -0.4761  0.3338
18056TIP3    H175583   3.871   4.374  15.280 -1.3259  0.0371 -0.8929
18056TIP3    H275584   3.906   4.228  15.302  0.8818  0.9854  2.1980
18057TIP3   OH275585   1.101   1.032  15.821 -0.1921 -0.4448 -0.1469
18057TIP3    H175586   1.016   0.988  15.828 -0.1409 -0.7678 -1.3122
18057TIP3    H275587   1.143   1.018  15.906 -1.6211  0.3882  0.7070
18058TIP3   OH275588   4.418   0.875  13.851  0.4369  0.5167  0.1013
18058TIP3    H175589   4.362   0.916  13.916  2.1005  1.7160  0.8042
18058TIP3    H275590   4.358   0.849  13.781 -1.2568 -0.0635  1.7310
18059TIP3   OH275591   4.809   5.464   3.921 -0.0466 -0.2559 -0.0004
18059TIP3    H175592   4.876   5.522   3.957 -0.9059 -0.2170  1.5498
18059TIP3    H275593   4.732   5.519   3.910 -0.3580 -0.7121 -0.1084
18060TIP3   OH275594   5.313   2.607  14.607 -0.0238 -0.1395 -0.0875
18060TIP3    H175595   5.356   2.530  14.571  0.6224  0.2300 -0.0969
18060TIP3    H275596   5.340   2.679  14.551  0.5776  0.3475  0.8159
18061TIP3   OH275597   1.991   0.793  15.605  0.3789 -0.0344  0.1333
18061TIP3    H175598   2.062   0.729  15.601  0.2719 -0.0631 -1.3625
18061TIP3    H275599   2.035   0.877  15.620  0.7136 -0.0929 -0.5081
18062TIP3   OH275600   3.912   2.503   3.695 -0.4250 -0.4700 -0.3554
18062TIP3    H175601   3.884   2.560   3.624  1.1583 -0.1758 -0.7511
18062TIP3    H275602   3.835   2.495   3.751 -1.6368 -0.5941 -2.0194
18063TIP3   OH275603   2.002   4.247   0.498 -0.1648 -0.7798 -0.4037
18063TIP3    H175604   1.945   4.260   0.575  0.7202 -3.3563  0.7605
18063TIP3    H275605   1.951   4.188   0.441  0.2596 -0.9758 -0.5783
18064TIP3   OH275606   2.682   2.711  13.160 -0.2145 -0.8077  0.1798
18064TIP3    H175607   2.670   2.648  13.231 -1.8898 -0.9334 -0.1838
18064TIP3    H275608   2.594   2.743  13.142  0.4575  0.7267 -0.4788
18065TIP3   OH275609   5.658   3.637  15.835  0.0604  0.1333 -0.2492
18065TIP3    H175610   5.659   3.591  15.751  0.3661  2.6468 -1.6808
18065TIP3    H275611   5.714   3.585  15.892  0.1957 -1.3876 -1.7272
18066TIP3   OH275612   2.656   0.007   0.558 -0.3164  0.0387 -0.0770
18066TIP3    H175613   2.624  -0.082   0.544 -0.9592  0.0028  1.5104
18066TIP3    H275614   2.589   0.064   0.521  0.1644 -0.1181 -1.2261
18067TIP3   OH275615   5.356   2.638  11.840 -0.6405  0.3687 -0.0959
18067TIP3    H175616   5.428   2.601  11.789 -2.2124  0.2409 -2.2991
18067TIP3    H275617   5.309   2.693  11.778 -3.0953 -0.4288  0.9987
18068TIP3   OH275618   2.894   1.790   6.302  0.3270 -0.4209  0.0147
18068TIP3    H175619   2.943   1.862   6.264  1.9366 -2.2365 -1.4106
18068TIP3    H275620   2.807   1.827   6.321  1.5235  2.1950  0.5132
18069TIP3   OH275621   5.533   1.131  12.021 -0.5119  0.1007  0.5090
18069TIP3    H175622   5.601   1.072  12.054  0.5538  0.9496 -0.1376
18069TIP3    H275623   5.460   1.073  11.997  0.5603 -0.9679 -0.2037
18070TIP3   OH275624   0.814   1.184  10.787 -0.0642 -0.1084 -0.1421
18070TIP3    H175625   0.909   1.190  10.796  0.1396 -0.4727 -1.8722
18070TIP3    H275626   0.800   1.110  10.727 -1.4298  0.0592 -0.0464
18071TIP3   OH275627   6.409   6.657  15.342  0.4056  0.1308  0.0952
18071TIP3    H175628   6.494   6.659  15.298  0.0215  1.2560 -0.6230
18071TIP3    H275629   6.429   6.671  15.435  0.9433  1.4212 -0.1992
18072TIP3   OH275630   2.403   3.024   5.996  0.2887 -0.1576  0.1725
18072TIP3    H175631   2.363   3.089   6.054 -1.2259 -1.9436  1.1637
18072TIP3    H275632   2.461   2.973   6.052  2.1853  0.8841 -0.7889
18073TIP3   OH275633   5.705   1.026   0.805  0.1331 -0.6256  0.5892
18073TIP3    H175634   5.660   1.110   0.807  1.5560  0.2396 -1.7072
18073TIP3    H275635   5.649   0.967   0.856 -1.6854  1.3093  0.8738
18074TIP3   OH275636   2.561   4.999  14.831 -0.0426 -0.1221  0.0814
18074TIP3    H175637   2.491   4.935  14.843  1.5144 -1.7065  0.8431
18074TIP3    H275638   2.573   5.005  14.736  0.0077 -1.1922  0.0123
18075TIP3   OH275639   5.376   0.013  15.818 -0.3441  0.6380 -0.3505
18075TIP3    H175640   5.409   0.054  15.898  0.2075 -0.0216 -0.2436
18075TIP3    H275641   5.444   0.029  15.752  0.1791 -0.6796 -0.1401
18076TIP3   OH275642   3.644   1.678   2.357 -0.3978  0.0342 -0.0540
18076TIP3    H175643   3.620   1.586   2.370  0.2471 -0.6985 -3.6767
18076TIP3    H275644   3.705   1.698   2.429 -1.2134 -2.0741  1.2610
18077TIP3   OH275645   2.177   1.851  14.686  0.0664  0.1725 -0.4722
18077TIP3    H175646   2.126   1.929  14.708 -1.8376 -1.6181  1.8288
18077TIP3    H275647   2.225   1.831  14.767  1.1159 -0.6176 -1.2847
18078TIP3   OH275648   0.225   1.196  15.212  0.3033  0.3115  0.2335
18078TIP3    H175649   0.297   1.249  15.247 -0.0440  0.4753  0.7024
18078TIP3    H275650   0.199   1.241  15.132 -0.1763  1.0093  0.7724
18079TIP3   OH275651   4.764   1.909   2.771  0.1731 -0.7372  0.4184
18079TIP3    H175652   4.719   1.947   2.847 -0.6388  0.9893 -0.8798
18079TIP3    H275653   4.830   1.974   2.748 -0.6251 -0.4981 -1.2899
18080TIP3   OH275654   5.801   5.249   6.080  0.1379 -0.4976 -1.0291
18080TIP3    H175655   5.855   5.172   6.063 -1.0458 -1.4995 -0.3410
18080TIP3    H275656   5.832   5.281   6.165 -1.2725 -1.9031  0.0402
18081TIP3   OH275657   3.422   5.041   0.035 -0.2666  0.0082  0.2797
18081TIP3    H175658   3.427   5.090  -0.047  0.8941  0.4451  0.5994
18081TIP3    H275659   3.360   4.971   0.018  1.0290 -0.7418 -1.4271
18082TIP3   OH275660   2.618   6.274   4.700  0.3806  0.1351 -0.3442
18082TIP3    H175661   2.565   6.198   4.676  0.7379  0.3868 -1.9984
18082TIP3    H275662   2.698   6.265   4.647  1.0832  0.8604  0.5702
18083TIP3   OH275663   6.382   5.092   3.022 -0.5292  0.3708 -0.3155
18083TIP3    H175664   6.465   5.070   2.979 -0.5638 -0.7367  0.1621
18083TIP3    H275665   6.346   5.163   2.969 -0.7015 -1.1387 -2.2757
18084TIP3   OH275666   0.475   5.872   4.141 -0.5846  0.0873 -0.5298
18084TIP3    H175667   0.517   5.891   4.058 -0.6202 -1.5451 -0.9296
18084TIP3    H275668   0.474   5.777   4.147  0.9055  0.1965  2.1047
18085TIP3   OH275669   0.335   5.286  13.221 -0.2120  0.1805  0.6354
18085TIP3    H175670   0.298   5.199  13.234  0.2442 -0.2286 -0.6986
18085TIP3    H275671   0.416   5.285  13.271  0.1644 -0.4235  0.0193
18086TIP3   OH275672   0.218   0.169  15.166  0.2442  0.0367 -0.2070
18086TIP3    H175673   0.216   0.172  15.070  0.0474  0.9886 -0.1716
18086TIP3    H275674   0.170   0.247  15.194  3.0630  1.5188  0.6601
18087TIP3   OH275675   5.089   3.844  11.048  0.1531 -0.2551  0.3850
18087TIP3    H175676   5.071   3.798  10.966 -0.6329  0.0794  0.3609
18087TIP3    H275677   5.181   3.869  11.042  0.0283  0.0179 -0.5323
18088TIP3   OH275678   2.041   4.900   2.465 -0.5039 -0.0120  0.0822
18088TIP3    H175679   1.953   4.878   2.434 -0.0068  1.0657 -2.1385
18088TIP3    H275680   2.036   4.992   2.490 -0.5039 -0.4744  1.9033
18089TIP3   OH275681   1.547   4.243   0.561 -0.0839  0.1389 -0.4446
18089TIP3    H175682   1.599   4.163   0.568  2.8694  1.7040 -2.9419
18089TIP3    H275683   1.544   4.278   0.650  3.4289  0.0992 -0.2395
18090TIP3   OH275684   5.137   4.941   0.363  0.0445  0.8379  0.1903
18090TIP3    H175685   5.198   4.942   0.437  0.2116  2.2976  0.0463
18090TIP3    H275686   5.101   5.029   0.360 -0.7893  0.4764 -0.7981
18091TIP3   OH275687   3.734   2.685  16.585 -0.2689 -0.3280 -0.2981
18091TIP3    H175688   3.699   2.668  16.672  0.1809 -0.7389 -0.1981
18091TIP3    H275689   3.827   2.702  16.599 -0.3501  0.3946 -0.6038
18092TIP3   OH275690   0.985   4.214   0.237 -0.5475 -0.4779 -0.2662
18092TIP3    H175691   0.988   4.283   0.171  0.0499  1.2953  1.5494
18092TIP3    H275692   1.067   4.166   0.227 -0.8397 -0.7605 -1.3504
18093TIP3   OH275693   2.862   0.561   3.662 -0.2690  0.3832  1.2018
18093TIP3    H175694   2.816   0.640   3.634 -1.3756 -1.6336 -3.0822
18093TIP3    H275695   2.954   0.578   3.640 -0.5544  0.3943 -0.0426
18094TIP3   OH275696   1.596   5.284   0.069  0.4470  0.1026 -0.5092
18094TIP3    H175697   1.559   5.252  -0.013 -0.7863  1.2021 -0.3869
18094TIP3    H275698   1.667   5.222   0.088 -0.0880 -0.9180 -1.7193
18095TIP3   OH275699   3.118   5.072  12.960 -0.5470  1.0380  0.1263
18095TIP3    H175700   3.119   5.083  12.865 -0.9586 -0.8571 -0.1115
18095TIP3    H275701   3.175   4.997  12.977 -0.4786  1.3523  1.3811
18096TIP3   OH275702   4.186   1.720  16.338  0.5519  0.2665  0.0219
18096TIP3    H175703   4.192   1.805  16.295  0.8056  0.6943  0.8837
18096TIP3    H275704   4.118   1.673  16.290  0.5866  0.8603 -0.6148
18097TIP3   OH275705   1.258   1.839   1.900 -0.4253 -0.0638  0.4082
18097TIP3    H175706   1.353   1.835   1.888 -0.5618 -2.5747  0.0196
18097TIP3    H275707   1.223   1.854   1.813 -0.4958 -1.4834  0.1811
18098TIP3   OH275708   5.351   2.880   2.532 -0.2639  0.0687 -0.5542
18098TIP3    H175709   5.267   2.921   2.554 -0.4381 -0.9961  0.8453
18098TIP3    H275710   5.346   2.793   2.572  1.0526 -0.4378 -1.4542
18099TIP3   OH275711   0.004   1.835  15.075  0.4847  0.4430  0.3053
18099TIP3    H175712   0.014   1.926  15.045  0.5637  0.2003 -0.4332
18099TIP3    H275713  -0.076   1.836  15.127  0.1081  0.7997 -0.2671
18100TIP3   OH275714   2.797   2.209   1.606  1.0856 -0.3410  0.2940
18100TIP3    H175715   2.771   2.224   1.516 -1.0228 -1.0296  0.7563
18100TIP3    H275716   2.802   2.296   1.645 -0.3478 -0.1637  0.1199
18101TIP3   OH275717   1.213   6.464   1.292 -0.2390  0.4014 -0.1657
18101TIP3    H175718   1.266   6.386   1.305 -1.2352 -0.2370  0.0699
18101TIP3    H275719   1.165   6.448   1.211  3.1515  2.8142 -2.8362
18102TIP3   OH275720   4.412   4.410  12.563  0.1358 -0.5134 -0.6686
18102TIP3    H175721   4.396   4.425  12.470 -3.0936 -0.0078 -0.0814
18102TIP3    H275722   4.348   4.465  12.608  0.4185 -2.1263  1.8277
18103TIP3   OH275723   5.341   3.395  16.745 -0.4844  0.2346  0.8126
18103TIP3    H175724   5.279   3.371  16.675  1.2676 -1.0221 -0.3405
18103TIP3    H275725   5.427   3.381  16.707  0.5311  1.1310  2.7067
18104TIP3   OH275726   5.021   5.925  11.155  0.1415 -0.2815 -0.9788
18104TIP3    H175727   4.929   5.929  11.181  0.1300  1.9377 -1.2925
18104TIP3    H275728   5.022   5.861  11.083 -0.9601 -1.1332 -0.2655
18105TIP3   OH275729   4.519   4.472   4.115 -0.7207  0.3611 -0.7106
18105TIP3    H175730   4.439   4.475   4.063 -0.7951 -1.1595 -0.7078
18105TIP3    H275731   4.541   4.379   4.120  1.9902  0.8398 -2.1690
18106TIP3   OH275732   5.721   1.408   4.514  0.1803  0.3421 -0.1344
18106TIP3    H175733   5.647   1.414   4.454  0.0038 -2.9523 -0.3204
18106TIP3    H275734   5.696   1.464   4.588 -2.2340 -0.2624 -0.4384
18107TIP3   OH275735   6.532   3.432  14.113 -0.2319 -0.5509 -0.1714
18107TIP3    H175736   6.584   3.385  14.178  1.3659  3.1631  1.4342
18107TIP3    H275737   6.597   3.470  14.053 -1.5093 -1.2388 -2.0428
18108TIP3   OH275738   2.105   5.415  13.980  0.1544 -0.1831  0.1129
18108TIP3    H175739   2.023   5.461  13.959 -0.4702 -1.7073 -0.8161
18108TIP3    H275740   2.163   5.485  14.011 -0.5507  1.3768 -1.9253
18109TIP3   OH275741   3.454   2.305  16.928 -0.6317  0.1656 -0.2550
18109TIP3    H175742   3.496   2.380  16.971  1.1097 -1.2407  0.5983
18109TIP3    H275743   3.522   2.270  16.871 -1.5681 -0.5129 -0.9600
18110TIP3   OH275744   3.953   0.613  10.623  0.2597 -0.3291 -0.3041
18110TIP3    H175745   3.978   0.549  10.690 -0.2434 -0.5554 -0.3315
18110TIP3    H275746   4.034   0.629  10.574  0.6565 -0.0997  0.3999
18111TIP3   OH275747   4.512   2.798   6.068 -0.6912 -0.3430 -0.3341
18111TIP3    H175748   4.505   2.858   5.994  0.6263  0.7397  0.3914
18111TIP3    H275749   4.598   2.758   6.059 -0.0335  0.6582  1.2219
18112TIP3   OH275750   2.295   0.711   0.328 -0.1193 -0.0052  0.0356
18112TIP3    H175751   2.364   0.724   0.263  0.3808 -0.1399  0.5385
18112TIP3    H275752   2.317   0.628   0.370  0.3444  0.7837  1.3552
18113TIP3   OH275753   2.165   0.680   1.483 -0.6061  0.5021 -0.2039
18113TIP3    H175754   2.196   0.606   1.535  0.8223  1.4054  0.2711
18113TIP3    H275755   2.070   0.672   1.484 -0.4373 -1.8444 -0.9368
18114TIP3   OH275756   3.985   4.725  13.517 -0.0131  0.5168 -0.0709
18114TIP3    H175757   4.061   4.713  13.459 -0.7727  0.1828 -1.0045
18114TIP3    H275758   4.017   4.783  13.586  1.7674 -1.4604  0.8314
18115TIP3   OH275759   3.942   4.684  12.857 -0.2005 -0.3772 -0.0666
18115TIP3    H175760   4.034   4.661  12.849 -0.4875 -1.3715 -0.6614
18115TIP3    H275761   3.906   4.672  12.769 -0.6221  1.2576 -0.1329
18116TIP3   OH275762   0.513   2.724   4.383 -0.5094 -0.7169 -0.1639
18116TIP3    H175763   0.524   2.662   4.454  0.7097 -1.3513 -0.8905
18116TIP3    H275764   0.502   2.670   4.305  0.3543 -0.0277 -0.7729
18117TIP3   OH275765   2.484   1.490   4.637  0.2078 -0.5579  0.2610
18117TIP3    H175766   2.472   1.519   4.728  0.2335  0.5003 -0.0668
18117TIP3    H275767   2.575   1.510   4.618  0.6922 -2.3925  0.5595
18118TIP3   OH275768   3.852   2.510  11.241 -0.0878  0.4402  0.4495
18118TIP3    H175769   3.847   2.488  11.334 -1.2355 -0.6728  0.1461
18118TIP3    H275770   3.855   2.605  11.239  0.4775  0.4604  1.6456
18119TIP3   OH275771   1.980   1.742  13.920 -0.0591 -0.8511 -0.4920
18119TIP3    H175772   2.074   1.760  13.924 -0.0450 -0.4786 -2.0743
18119TIP3    H275773   1.965   1.680  13.991  1.2857 -0.5187  0.1089
18120TIP3   OH275774   3.427   1.177  13.729 -0.5130 -0.2495 -0.1376
18120TIP3    H175775   3.389   1.093  13.702  0.7180 -0.5155 -1.0787
18120TIP3    H275776   3.489   1.155  13.797  1.1397 -0.3303 -1.6407
18121TIP3   OH275777   4.866   3.567   4.810  0.6824  0.0771  0.4802
18121TIP3    H175778   4.929   3.562   4.882  0.0408 -0.0603  1.0349
18121TIP3    H275779   4.787   3.602   4.850  0.3532  0.1011 -0.1854
18122TIP3   OH275780   3.577   5.944   5.425 -0.0052 -0.1470 -0.0689
18122TIP3    H175781   3.555   5.930   5.333  0.2832 -1.7666  0.0874
18122TIP3    H275782   3.665   5.982   5.423 -0.9985  2.2091 -0.5331
18123TIP3   OH275783   2.892   1.176   5.534 -0.2201 -0.2414  0.0702
18123TIP3    H175784   2.952   1.102   5.525 -0.0290  0.1343 -1.9808
18123TIP3    H275785   2.921   1.221   5.613 -0.4762 -2.4480  1.4814
18124TIP3   OH275786   5.746   1.295  12.273 -0.6911 -0.0349  0.6314
18124TIP3    H175787   5.697   1.224  12.315 -1.5559  0.2343  0.0829
18124TIP3    H275788   5.786   1.254  12.196  1.0488 -0.5734  1.8011
18125TIP3   OH275789   5.458   6.443  13.390 -0.0832  0.2915  0.2339
18125TIP3    H175790   5.539   6.455  13.340  0.7294 -0.1167  1.4474
18125TIP3    H275791   5.487   6.420  13.478 -1.5157 -1.1952  0.3484
18126TIP3   OH275792   0.206   5.757   6.436  0.0329  0.5539 -0.1806
18126TIP3    H175793   0.113   5.739   6.422  0.3278  0.1774 -1.6423
18126TIP3    H275794   0.236   5.797   6.355  0.7732  2.2142  0.8833
18127TIP3   OH275795   3.837   1.116  10.832  0.8574 -0.0110  0.4052
18127TIP3    H175796   3.747   1.144  10.815  0.6175  0.2123  1.9846
18127TIP3    H275797   3.874   1.102  10.745 -0.0417  1.9647 -0.3362
18128TIP3   OH275798   3.175   3.979  15.737  0.0892 -0.2863  0.1776
18128TIP3    H175799   3.128   4.013  15.660  1.7783  1.0551 -0.2871
18128TIP3    H275800   3.105   3.954  15.798 -1.3632 -2.9160 -2.3807
18129TIP3   OH275801   6.067   2.865  13.631  0.4153 -0.1892  0.6765
18129TIP3    H175802   6.019   2.783  13.618 -2.0693  1.2798  0.2370
18129TIP3    H275803   6.087   2.867  13.724  1.5246 -1.8145  0.4981
18130TIP3   OH275804   2.881   1.554   2.225 -0.0353  0.2319 -0.6109
18130TIP3    H175805   2.835   1.539   2.308  0.3576  0.2598 -0.3895
18130TIP3    H275806   2.872   1.648   2.209  1.2043  0.4860  0.1710
18131TIP3   OH275807   2.776   0.660  12.467 -0.1147  0.6429  0.0615
18131TIP3    H175808   2.759   0.639  12.559  1.8966  0.2840  0.3940
18131TIP3    H275809   2.811   0.578  12.431 -2.0616  0.4107 -1.3645
18132TIP3   OH275810   4.428   3.933  16.180  0.2158 -0.3455  0.7836
18132TIP3    H175811   4.437   3.853  16.232 -0.0154 -1.4362 -0.8157
18132TIP3    H275812   4.509   3.937  16.129 -1.1670 -1.3543 -1.5684
18133TIP3   OH275813   1.794   1.403  10.222 -0.0705 -0.2194  0.2010
18133TIP3    H175814   1.823   1.335  10.283 -0.0491 -1.2489 -0.9391
18133TIP3    H275815   1.703   1.381  10.201 -0.3505  0.6106  0.5020
18134TIP3   OH275816   6.163   1.905   0.177  0.9928  0.0565  0.3748
18134TIP3    H175817   6.247   1.904   0.131  0.6604 -0.3511 -0.2379
18134TIP3    H275818   6.116   1.979   0.141  0.9060  0.0058  0.3838
18135TIP3   OH275819   0.771   0.895   0.003 -0.0252 -0.0305 -0.2417
18135TIP3    H175820   0.704   0.875  -0.062 -1.2305  0.1948  0.9146
18135TIP3    H275821   0.825   0.963  -0.039 -0.1532 -0.6229 -1.3990
18136TIP3   OH275822   5.094   1.122  15.870  0.6950  0.0604  0.0477
18136TIP3    H175823   5.129   1.210  15.858  0.6563  0.3385  1.9631
18136TIP3    H275824   4.999   1.134  15.867  0.6804  0.1792  0.9801
18137TIP3   OH275825   5.453   3.742  13.112 -0.1662 -0.4116 -0.5077
18137TIP3    H175826   5.519   3.808  13.134 -2.5396  1.6473  0.6628
18137TIP3    H275827   5.456   3.680  13.184  0.6772 -0.4910 -0.6022
18138TIP3   OH275828   6.433   6.691  11.651 -0.8449  0.1584 -0.5982
18138TIP3    H175829   6.412   6.691  11.744 -0.4369  0.1240 -0.5014
18138TIP3    H275830   6.523   6.725  11.647  0.1195 -2.2733 -0.7273
18139TIP3   OH275831   5.156   3.736  15.238  0.1064 -0.0337  0.1257
18139TIP3    H175832   5.169   3.808  15.299  0.8003  0.9987 -1.2171
18139TIP3    H275833   5.204   3.663  15.276 -0.4245  0.2536  1.3892
18140TIP3   OH275834   1.175   5.596  14.548  0.0881  0.2023  0.1738
18140TIP3    H175835   1.211   5.606  14.636  0.4765  0.4464 -0.0121
18140TIP3    H275836   1.097   5.653  14.548 -1.0625 -1.3426  0.9952
18141TIP3   OH275837   1.534   6.382   5.787  0.0324  0.5684  0.1621
18141TIP3    H175838   1.474   6.308   5.801 -0.8148  0.9316 -1.4521
18141TIP3    H275839   1.517   6.441   5.860 -2.3123  1.1279 -0.7749
18142TIP3   OH275840   5.455   5.859  11.921  0.6450 -0.2565  0.1883
18142TIP3    H175841   5.473   5.931  11.981  2.4320  1.3461 -2.1902
18142TIP3    H275842   5.537   5.809  11.918  0.6452 -0.2147 -1.0122
18143TIP3   OH275843   6.420   2.203   2.062 -0.1063  0.2122 -0.3252
18143TIP3    H175844   6.482   2.130   2.054  0.7971  0.8234  0.8036
18143TIP3    H275845   6.439   2.259   1.987 -1.0776 -0.9114 -1.4145
18144TIP3   OH275846   2.784   3.062  15.011  0.6374 -0.2773  0.1711
18144TIP3    H175847   2.854   3.089  15.071 -0.4019  1.2039  0.7273
18144TIP3    H275848   2.730   3.140  15.000  0.3888 -0.7484 -2.1156
18145TIP3   OH275849   5.412   0.781   1.767 -0.6920 -0.0536  0.6318
18145TIP3    H175850   5.425   0.733   1.849  0.8574  0.7873  0.8914
18145TIP3    H275851   5.495   0.826   1.752 -1.2432  0.4406 -0.9871
18146TIP3   OH275852   5.824   2.327   5.215  0.2819  0.3549 -0.0170
18146TIP3    H175853   5.866   2.331   5.301 -0.2746  0.9878  0.2251
18146TIP3    H275854   5.734   2.355   5.231 -0.2212 -0.8923 -0.5550
18147TIP3   OH275855   0.910   5.903   4.872 -0.6784 -0.5982  0.2662
18147TIP3    H175856   0.847   5.958   4.918 -0.5257 -0.8358  0.7521
18147TIP3    H275857   0.878   5.813   4.885 -0.2907 -0.7126  0.4406
18148TIP3   OH275858   2.730   4.091   2.511  0.2643 -0.0843  0.0619
18148TIP3    H175859   2.693   4.027   2.449  0.3432 -0.1139  0.0451
18148TIP3    H275860   2.773   4.156   2.455  1.2636 -0.6813  0.1187
18149TIP3   OH275861   2.045   0.667   2.967  0.6601  0.2248 -0.0843
18149TIP3    H175862   2.023   0.639   3.055  2.4307 -0.0168  0.2906
18149TIP3    H275863   1.966   0.713   2.936 -0.0810  0.0253  1.4730
18150TIP3   OH275864   3.134   4.405  13.000 -0.1059  0.4480 -0.3464
18150TIP3    H175865   3.094   4.388  13.085 -1.4407  0.8062 -0.8907
18150TIP3    H275866   3.070   4.374  12.936  0.3309  1.3627 -1.2500
18151TIP3   OH275867   5.518   1.794   3.931 -0.4442  0.8332 -0.2634
18151TIP3    H175868   5.479   1.868   3.976 -1.6317  0.7885 -1.1927
18151TIP3    H275869   5.574   1.833   3.864 -1.1808  0.9160 -0.8479
18152TIP3   OH275870   2.005   5.133  15.655  0.0019  0.3030  0.3892
18152TIP3    H175871   1.913   5.106  15.651  0.6526 -1.7650 -1.0639
18152TIP3    H275872   2.053   5.053  15.673  1.6936  1.0732 -0.5505
18153TIP3   OH275873   0.550   0.135  10.910  0.4515 -0.0819  0.0748
18153TIP3    H175874   0.534   0.060  10.968 -2.5873  0.3907 -0.1119
18153TIP3    H275875   0.593   0.097  10.833 -2.0382 -1.8419 -0.4944
18154TIP3   OH275876   2.336   3.818   2.942  0.2392 -0.4763 -0.5342
18154TIP3    H175877   2.279   3.895   2.939  1.4767  0.4718 -0.1282
18154TIP3    H275878   2.335   3.784   2.852 -2.0567 -1.3123 -0.2337
18155TIP3   OH275879   3.916   1.830  14.838 -0.0753  0.3996  0.3456
18155TIP3    H175880   3.984   1.895  14.820 -0.6717  0.3319 -2.3742
18155TIP3    H275881   3.868   1.866  14.913  1.8081  1.3273  1.1487
18156TIP3   OH275882   4.508   6.287  15.001  0.1804 -0.0239 -0.0743
18156TIP3    H175883   4.542   6.201  15.028 -1.9620 -1.1870 -0.9856
18156TIP3    H275884   4.415   6.284  15.022  0.0482  2.0361 -0.2603
18157TIP3   OH275885   1.377   0.117   4.202 -0.6915  0.8280  0.0385
18157TIP3    H175886   1.444   0.183   4.221 -1.0965  1.7105 -1.5186
18157TIP3    H275887   1.426   0.045   4.162 -0.5771  1.2132 -0.5210
18158TIP3   OH275888   2.665   0.070  14.185  0.6586  0.0144 -0.2990
18158TIP3    H175889   2.590   0.017  14.158 -0.2754  0.6034  1.0655
18158TIP3    H275890   2.739   0.010  14.181 -0.0175 -0.8006 -0.8683
18159TIP3   OH275891   1.221   6.247  16.620  0.0463 -0.2002  0.5897
18159TIP3    H175892   1.283   6.174  16.611  1.9070  1.4168 -0.1364
18159TIP3    H275893   1.181   6.255  16.534  0.6502  0.3089  0.3494
18160TIP3   OH275894   3.656   4.362   5.464  0.1204 -0.0996 -0.1744
18160TIP3    H175895   3.628   4.296   5.401 -1.2907 -0.8513  1.1916
18160TIP3    H275896   3.706   4.313   5.529 -1.1152  0.1015  0.9618
18161TIP3   OH275897   2.036   4.352  15.132 -0.3078 -0.1190 -0.7271
18161TIP3    H175898   1.982   4.429  15.149 -1.2418 -0.4669 -2.0132
18161TIP3    H275899   1.996   4.283  15.185  1.1712  0.4923  1.2713
18162TIP3   OH275900   1.366   6.420  13.487  0.1091 -0.0752 -0.0174
18162TIP3    H175901   1.437   6.386  13.540  0.8072  0.5633 -0.5267
18162TIP3    H275902   1.391   6.511  13.469 -0.4270 -0.0946 -0.8925
18163TIP3   OH275903   6.611   2.324   6.244  0.2535  0.6464  0.6877
18163TIP3    H175904   6.649   2.402   6.203  2.3000  0.2909  1.8617
18163TIP3    H275905   6.557   2.358   6.315 -0.6812  1.0896 -0.2160
18164TIP3   OH275906   2.992   0.554   6.297 -0.0165  0.0752 -0.3969
18164TIP3    H175907   3.072   0.503   6.311 -0.2765 -0.0013  0.9167
18164TIP3    H275908   3.009   0.604   6.217  1.9425  1.1958  0.6771
18165TIP3   OH275909   3.156   2.397   3.101  0.0162  0.1801 -0.0132
18165TIP3    H175910   3.222   2.330   3.081  0.2195  0.6457 -0.9358
18165TIP3    H275911   3.116   2.417   3.017 -0.4669  0.7788  0.3566
18166TIP3   OH275912   2.821   3.361   6.694 -0.1051  0.8309 -0.3732
18166TIP3    H175913   2.804   3.336   6.785 -1.6286 -0.1884 -0.9315
18166TIP3    H275914   2.895   3.306   6.668 -0.1388  0.5959  0.0194
18167TIP3   OH275915   0.223   4.979  14.013  0.3942  0.2698  0.1545
18167TIP3    H175916   0.142   5.006  13.970  0.2751 -0.1789  0.0983
18167TIP3    H275917   0.198   4.962  14.103  0.0894 -1.4728 -0.2382
18168TIP3   OH275918   0.700   2.820  14.331 -0.5049 -0.1644  0.9890
18168TIP3    H175919   0.666   2.746  14.281 -1.4898  0.9460 -0.0532
18168TIP3    H275920   0.648   2.895  14.300  2.1501  1.3967  0.1725
18169TIP3   OH275921   4.398   0.746  16.622  0.3124 -0.0866 -0.1354
18169TIP3    H175922   4.343   0.779  16.551  0.4054 -0.2605 -0.2891
18169TIP3    H275923   4.415   0.655  16.600  1.8016  0.3382 -0.8005
18170TIP3   OH275924   4.719   5.472   1.315  0.0365  0.1573 -0.2130
18170TIP3    H175925   4.691   5.499   1.403 -0.1682 -1.2056  0.1597
18170TIP3    H275926   4.792   5.530   1.294  1.0790 -0.4844  1.5114
18171TIP3   OH275927   1.706   0.189   4.533  0.1317 -0.1750  0.4860
18171TIP3    H175928   1.619   0.150   4.524  0.5822 -0.9727 -0.4485
18171TIP3    H275929   1.689   0.283   4.537 -0.6448 -0.2043 -1.5018
18172TIP3   OH275930   4.967   1.273   4.018  0.1638  0.5824 -0.0462
18172TIP3    H175931   4.980   1.334   3.945 -0.3846  0.7476 -0.0092
18172TIP3    H275932   5.054   1.238   4.036  0.2842  0.4436 -0.8667
18173TIP3   OH275933   6.660   6.367  14.765  0.2016  0.3076  0.4109
18173TIP3    H175934   6.593   6.362  14.833 -0.7236  1.4957 -0.4098
18173TIP3    H275935   6.617   6.410  14.691  1.1955 -0.9458 -0.9361
18174TIP3   OH275936   4.608   4.959  12.816  0.2414 -0.0700 -0.1616
18174TIP3    H175937   4.577   5.049  12.804  1.3355 -0.0259 -3.0773
18174TIP3    H275938   4.543   4.905  12.771  1.5127 -0.3904 -1.6891
18175TIP3   OH275939   3.252   4.177   0.363  0.0469 -0.2628 -0.3816
18175TIP3    H175940   3.322   4.138   0.415 -0.7534 -2.0249 -0.6047
18175TIP3    H275941   3.197   4.223   0.427  0.9028  0.3900 -0.1050
18176TIP3   OH275942   5.027   6.098  14.367 -0.2185  0.4342  0.6632
18176TIP3    H175943   5.102   6.073  14.422 -0.7487 -1.4840  0.5120
18176TIP3    H275944   4.956   6.113  14.429 -0.4016 -0.2343  0.6134
18177TIP3   OH275945   6.167   5.536   1.511  0.1568  0.3021  0.3550
18177TIP3    H175946   6.167   5.627   1.538 -1.7531  0.3416  0.2261
18177TIP3    H275947   6.107   5.492   1.571 -1.3856 -0.2547 -1.5321
18178TIP3   OH275948   0.091   4.563   3.125  0.0878  0.9693  0.3201
18178TIP3    H175949   0.105   4.504   3.051  0.1681  1.2529  0.1064
18178TIP3    H275950   0.177   4.575   3.163 -0.0779  0.1993  0.9423
18179TIP3   OH275951   3.705   5.054   0.116  0.1760  0.7624  0.5323
18179TIP3    H175952   3.707   5.021   0.026 -0.2391  1.6504  0.1884
18179TIP3    H275953   3.612   5.063   0.136  0.1918 -2.1548  2.0779
18180TIP3   OH275954   4.878   1.767  15.451 -0.1960  0.7011 -0.9196
18180TIP3    H175955   4.939   1.709  15.496 -2.8280 -1.5171 -0.1011
18180TIP3    H275956   4.910   1.855  15.470  2.9176 -0.3910 -0.8101
18181TIP3   OH275957   5.304   0.257  13.782  0.1280  0.4807  0.3818
18181TIP3    H175958   5.338   0.222  13.864  1.4756 -1.3619 -0.9199
18181TIP3    H275959   5.356   0.214  13.714 -2.8925 -0.2803 -1.5585
18182TIP3   OH275960   4.277   6.149   6.027  0.2536  0.5937 -0.4417
18182TIP3    H175961   4.228   6.175   5.950 -0.8829 -1.8286 -0.5750
18182TIP3    H275962   4.214   6.102   6.082  1.4617  0.7989  1.1779
18183TIP3   OH275963   4.136   3.097   3.669 -0.4350  0.0901 -0.2575
18183TIP3    H175964   4.068   3.047   3.624 -1.0534  1.4023 -0.8304
18183TIP3    H275965   4.089   3.145   3.737  0.1777 -0.2588  0.4199
18184TIP3   OH275966   1.484   3.229  16.185  0.5915  0.0768  0.1029
18184TIP3    H175967   1.449   3.302  16.134 -1.9982 -1.6027 -0.6072
18184TIP3    H275968   1.446   3.240  16.272  0.2293 -0.4282  0.0056
18185TIP3   OH275969   1.704   1.636  16.917  0.3620 -0.0991 -0.5850
18185TIP3    H175970   1.769   1.601  16.979 -0.5284 -0.2947  0.2455
18185TIP3    H275971   1.669   1.559  16.873 -0.1968 -0.1000 -0.1440
18186TIP3   OH275972   2.494   5.893  14.427 -0.3762 -0.2872 -0.3115
18186TIP3    H175973   2.575   5.895  14.375  1.3713  1.0613  2.3425
18186TIP3    H275974   2.504   5.817  14.485 -1.4086 -0.6067 -0.5326
18187TIP3   OH275975   1.600   1.739   6.400  0.0445 -0.1863  0.1797
18187TIP3    H175976   1.564   1.821   6.366  1.6220 -0.5742 -2.5771
18187TIP3    H275977   1.525   1.679   6.401 -0.4273  0.3749 -0.9052
18188TIP3   OH275978   0.971   2.052   0.387 -0.1834 -0.2739  0.3565
18188TIP3    H175979   1.005   2.027   0.302  0.5766  0.3223  0.4755
18188TIP3    H275980   0.967   2.148   0.385 -0.5080 -0.2685  0.8586
18189TIP3   OH275981   3.710   0.148  15.025  0.0826 -0.4047  0.3969
18189TIP3    H175982   3.783   0.113  14.973 -0.1492 -0.5551  0.1710
18189TIP3    H275983   3.677   0.073  15.074 -0.2184 -0.4375  0.1452
18190TIP3   OH275984   0.145   1.478   4.902 -0.3102 -0.5683 -0.5971
18190TIP3    H175985   0.181   1.419   4.968  0.4052 -0.4856 -0.9106
18190TIP3    H275986   0.185   1.449   4.820 -1.2228 -0.6987 -1.0059
18191TIP3   OH275987   2.285   1.866  12.189  0.1101 -0.2523  0.4404
18191TIP3    H175988   2.330   1.946  12.164  0.0360 -0.0269  1.0107
18191TIP3    H275989   2.268   1.820  12.107  2.1690 -0.7733  0.2771
18192TIP3   OH275990   4.915   3.102   5.773  0.2108 -0.5905  0.1020
18192TIP3    H175991   4.883   3.134   5.688 -0.0494 -2.3716 -0.4923
18192TIP3    H275992   4.857   3.144   5.837 -0.7841 -0.6735 -0.7196
18193TIP3   OH275993   4.322   3.756   4.122 -0.0423  0.4073 -0.4036
18193TIP3    H175994   4.274   3.767   4.040  0.6254  2.1763 -0.5766
18193TIP3    H275995   4.341   3.662   4.126 -2.2248 -0.0795 -1.0490
18194TIP3   OH275996   5.187   5.211  16.867  0.0097  0.1215  0.2311
18194TIP3    H175997   5.282   5.210  16.870  0.0347 -0.1124 -0.6111
18194TIP3    H275998   5.162   5.119  16.869 -0.1504  0.1335 -0.9045
18195TIP3   OH275999   1.630   1.950  17.019 -0.4162  0.1871 -0.0067
18195TIP3    H176000   1.604   1.882  16.958  0.1736  1.0755 -1.2752
18195TIP3    H276001   1.686   1.905  17.082  0.6435 -0.3563 -1.3059
18196TIP3   OH276002   3.859   5.537   3.150  0.1474 -0.1586  0.2004
18196TIP3    H176003   3.778   5.554   3.199 -0.3270 -0.6125 -0.4150
18196TIP3    H276004   3.877   5.619   3.104  0.4983  0.2119  0.9846
18197TIP3   OH276005   4.597   1.244   5.589 -0.3142 -0.2799  0.2980
18197TIP3    H176006   4.675   1.294   5.566 -0.2067 -0.2131  0.8096
18197TIP3    H276007   4.537   1.308   5.628  0.4079 -0.8130  2.3486
18198TIP3   OH276008   2.594   0.283  13.152  0.4394  0.2335  0.7942
18198TIP3    H176009   2.580   0.314  13.063  1.4366  0.8809  0.8483
18198TIP3    H276010   2.626   0.360  13.199 -0.6250  0.0439  1.8542
18199TIP3   OH276011   3.395   6.121   6.449 -0.2154  0.0798 -0.4117
18199TIP3    H176012   3.385   6.049   6.386 -0.1761 -0.7681  0.5466
18199TIP3    H276013   3.483   6.110   6.484  0.2898  1.3851 -1.2141
18200TIP3   OH276014   5.952   5.600   2.496 -0.9646 -0.1330 -0.2650
18200TIP3    H176015   5.870   5.585   2.449 -2.1168 -0.1867  1.6924
18200TIP3    H276016   5.980   5.687   2.468 -1.6590 -0.1387 -0.9998
18201TIP3   OH276017   3.312   5.192   1.063 -0.2490 -0.2180  0.1568
18201TIP3    H176018   3.271   5.143   1.134 -1.0133  0.4558  0.1943
18201TIP3    H276019   3.329   5.126   0.996  3.8710 -1.5427  2.3473
18202TIP3   OH276020   2.883   2.385  16.090  0.0568  0.1912 -0.1134
18202TIP3    H176021   2.834   2.323  16.036 -0.3952  1.0517 -0.7114
18202TIP3    H276022   2.931   2.331  16.152  0.4852 -0.8093 -1.3008
18203TIP3   OH276023   6.053   3.694  12.132 -0.4726 -0.1077  0.5286
18203TIP3    H176024   6.056   3.775  12.183 -1.2418 -0.5514  1.2878
18203TIP3    H276025   6.077   3.626  12.195  2.1754 -0.2780 -0.5598
18204TIP3   OH276026   1.665   4.839  13.534 -0.2382 -0.3300  0.1440
18204TIP3    H176027   1.643   4.804  13.448  0.2102 -0.9729  0.2854
18204TIP3    H276028   1.750   4.800  13.554 -1.2995 -1.8657  1.8141
18205TIP3   OH276029   2.180   2.460   3.518 -0.5228 -0.2629  0.1221
18205TIP3    H176030   2.110   2.497   3.463 -0.7080 -1.5184 -0.4921
18205TIP3    H276031   2.146   2.467   3.607 -0.9454  0.2037 -0.0737
18206TIP3   OH276032   2.748   4.893   5.954 -0.0983 -0.4738  1.0262
18206TIP3    H176033   2.818   4.872   6.015  1.0388 -0.2843 -0.1750
18206TIP3    H276034   2.765   4.984   5.928  1.5422 -1.6366 -2.2434
18207TIP3   OH276035   0.006   3.879   4.584  0.4601  0.4321 -0.0815
18207TIP3    H176036  -0.053   3.805   4.600 -1.3670  2.0357  0.8226
18207TIP3    H276037  -0.024   3.915   4.500  0.0408  1.3391  0.4499
18208TIP3   OH276038   6.727   3.848  11.869  0.2997 -0.1899 -0.2936
18208TIP3    H176039   6.807   3.886  11.834 -0.6879  0.3789 -1.9711
18208TIP3    H276040   6.707   3.775  11.811  0.1131 -0.9141  0.6704
18209TIP3   OH276041   5.836   5.956   4.638  0.3279 -0.0350 -0.1633
18209TIP3    H176042   5.895   5.951   4.562  0.0456 -2.0269 -0.2714
18209TIP3    H276043   5.883   5.911   4.708 -0.3793 -0.2258  0.1927
18210TIP3   OH276044   2.829   0.968  11.406 -0.3831  0.1191  0.3830
18210TIP3    H176045   2.772   0.893  11.415 -1.2219  0.8478  1.1807
18210TIP3    H276046   2.903   0.936  11.354 -0.8921 -1.1527  0.4404
18211TIP3   OH276047   4.985   2.476   5.304  0.0101  0.2210  0.0288
18211TIP3    H176048   4.927   2.526   5.246  0.4642 -0.8431 -1.3799
18211TIP3    H276049   4.926   2.431   5.364 -0.4358  1.8870  0.8663
18212TIP3   OH276050   2.691   4.434   2.324 -0.1478 -0.2086  0.0476
18212TIP3    H176051   2.666   4.426   2.416 -1.8596  0.1709 -0.3502
18212TIP3    H276052   2.610   4.414   2.276  0.1486  1.7426 -1.3126
18213TIP3   OH276053   5.203   6.244  14.225 -0.5274 -0.1216  0.1830
18213TIP3    H176054   5.190   6.207  14.312  0.3394 -0.6786  0.0779
18213TIP3    H276055   5.119   6.233  14.180 -0.5845 -0.9856  0.5137
18214TIP3   OH276056   0.497   4.588  13.556 -0.0118 -0.1355  0.4064
18214TIP3    H176057   0.427   4.524  13.566  0.6438 -1.2260 -1.7536
18214TIP3    H276058   0.455   4.672  13.570 -1.3158 -0.9069  1.2197
18215TIP3   OH276059   4.088   4.134   2.030 -0.6230 -0.3804  0.3850
18215TIP3    H176060   4.136   4.209   2.064 -1.1158 -1.4734  3.6508
18215TIP3    H276061   4.084   4.072   2.103 -3.4103 -2.0534 -1.0756
18216TIP3   OH276062   1.188   1.432  15.297 -0.1080  0.2495 -0.3893
18216TIP3    H176063   1.178   1.393  15.210  0.2056  1.6080 -1.0402
18216TIP3    H276064   1.236   1.366  15.347  0.7146 -0.0630 -1.5798
18217TIP3   OH276065   2.205   6.096   2.099 -0.0412  0.2594 -0.3765
18217TIP3    H176066   2.182   6.034   2.169 -3.6253  0.9897 -0.7882
18217TIP3    H276067   2.157   6.064   2.023  1.0475  1.4623 -1.5852
18218TIP3   OH276068   3.827   1.625   3.479  0.0363 -0.1270  0.4609
18218TIP3    H176069   3.870   1.586   3.402 -0.7369 -0.3804  0.1551
18218TIP3    H276070   3.899   1.645   3.539  0.5735 -0.6782  0.0056
18219TIP3   OH276071   3.489   3.976  12.862 -0.0009 -0.0729  0.1401
18219TIP3    H176072   3.502   3.980  12.768 -2.6891 -1.4653 -0.3484
18219TIP3    H276073   3.520   4.060  12.894  1.4582  0.1935 -1.9170
18220TIP3   OH276074   2.827   5.649   2.612 -0.3517  0.1055  0.1795
18220TIP3    H176075   2.908   5.691   2.583 -0.1216 -0.6447 -0.2983
18220TIP3    H276076   2.798   5.600   2.535 -1.5132  0.7487  0.1970
18221TIP3   OH276077   3.368   0.859  16.295  0.3186 -0.0402  0.0559
18221TIP3    H176078   3.379   0.826  16.206 -0.4973 -2.7302  0.9038
18221TIP3    H276079   3.274   0.857  16.310  0.5538 -1.1006  1.5018
18222TIP3   OH276080   5.406   2.962   6.276 -0.4273 -0.0565 -0.0472
18222TIP3    H176081   5.358   3.041   6.302 -1.3283 -0.3676 -0.7337
18222TIP3    H276082   5.362   2.891   6.324 -0.6991 -0.3531 -0.7297
18223TIP3   OH276083   5.434   2.082  13.739 -0.0515  0.3719 -0.0629
18223TIP3    H176084   5.450   1.990  13.763  0.1146 -0.0166 -1.5748
18223TIP3    H276085   5.473   2.132  13.810  2.2409 -0.7015 -0.5104
18224TIP3   OH276086   3.088   2.622   4.021 -0.3313 -0.1606  0.1259
18224TIP3    H176087   3.100   2.657   4.109  0.5973  1.9938 -0.8144
18224TIP3    H276088   3.103   2.528   4.029 -0.0768  0.0510  2.2174
18225TIP3   OH276089   4.300   4.214  16.945 -0.0623 -0.8597 -0.4026
18225TIP3    H176090   4.369   4.249  17.001 -1.0027 -1.9557  1.4577
18225TIP3    H276091   4.221   4.219  16.997 -1.0264 -1.5794 -1.7662
18226TIP3   OH276092   2.222   5.882  14.416  0.0672  0.1760 -0.0776
18226TIP3    H176093   2.300   5.912  14.462 -0.0275  0.6706 -0.2378
18226TIP3    H276094   2.199   5.800  14.459  0.0142  0.6028  0.7176
18227TIP3   OH276095   4.393   5.623  10.793  0.2446 -0.4560  0.2572
18227TIP3    H176096   4.389   5.623  10.698 -0.1772  0.8108  0.2709
18227TIP3    H276097   4.305   5.648  10.821 -0.0878 -2.3336  1.0251
18228TIP3   OH276098   6.202   5.602  15.578  0.0835 -0.1393  0.2682
18228TIP3    H176099   6.125   5.629  15.528  2.0583 -0.0496 -2.8862
18228TIP3    H276100   6.197   5.507  15.580 -1.6783 -0.0473  2.7905
18229TIP3   OH276101   2.063   1.656   4.167 -0.0323  0.1059  0.9141
18229TIP3    H176102   1.983   1.632   4.119 -1.0523  3.1249  1.0112
18229TIP3    H276103   2.108   1.573   4.180 -0.4724 -1.0696 -3.9305
18230TIP3   OH276104   2.530   1.925  11.044 -0.0814  0.0278 -0.1358
18230TIP3    H176105   2.603   1.984  11.024  0.1193 -0.0015  0.5099
18230TIP3    H276106   2.472   1.932  10.968  0.1458  0.7404 -0.2456
18231TIP3   OH276107   1.519   1.451  14.129  0.1312  0.0609 -0.2990
18231TIP3    H176108   1.500   1.492  14.213  0.2518  0.5443 -0.5072
18231TIP3    H276109   1.519   1.523  14.066  1.6957 -0.0548 -0.4535
18232TIP3   OH276110   5.002   4.535  10.712  0.4143 -0.1526  0.1247
18232TIP3    H176111   5.038   4.609  10.761 -1.1619  1.0869 -0.5235
18232TIP3    H276112   4.907   4.552  10.710 -0.0933 -2.7081  0.8197
18233TIP3   OH276113   1.320   6.606  15.891  0.4382  0.0371 -0.2263
18233TIP3    H176114   1.347   6.669  15.957  1.6807 -1.4851  0.7655
18233TIP3    H276115   1.350   6.642  15.808  0.7633  0.9421  0.2801
18234TIP3   OH276116   1.679   0.725   2.424  0.6486 -0.8724 -0.0148
18234TIP3    H176117   1.628   0.760   2.497 -0.5082 -0.9403 -0.7783
18234TIP3    H276118   1.721   0.801   2.385  0.6940 -0.7429  0.2870
18235TIP3   OH276119   1.546   2.590   4.340  0.4364  0.0784 -0.3077
18235TIP3    H176120   1.531   2.671   4.291  1.3521  1.4607  1.6259
18235TIP3    H276121   1.560   2.619   4.430 -0.7072 -2.3705  0.6997
18236TIP3   OH276122   0.401   2.644   1.938 -0.1439  0.0712 -0.3184
18236TIP3    H176123   0.494   2.667   1.935  0.1373 -0.9048  0.6590
18236TIP3    H276124   0.357   2.726   1.960  0.4843  0.5132 -0.6839
18237TIP3   OH276125   5.499   3.985  14.220  0.3871 -0.6633  0.1444
18237TIP3    H176126   5.436   3.976  14.292  1.1696  0.6048  0.9944
18237TIP3    H276127   5.511   3.895  14.188 -0.5141 -1.1450  1.1086
18238TIP3   OH276128   1.321   1.402  14.454  0.7547  0.4417  0.4216
18238TIP3    H176129   1.378   1.467  14.414  0.1955  0.7384  0.1091
18238TIP3    H276130   1.318   1.427  14.547  2.4610 -0.5526  0.7599
18239TIP3   OH276131   2.312   3.858  17.140  0.4160  0.0584  0.5452
18239TIP3    H176132   2.308   3.953  17.137 -1.0812  0.0509  1.9142
18239TIP3    H276133   2.345   3.833  17.054  0.6243  1.7911  0.1019
18240TIP3   OH276134   5.661   1.576   5.961 -0.0133  0.5511 -0.6641
18240TIP3    H176135   5.720   1.592   6.034  0.1591 -0.5399 -0.5445
18240TIP3    H276136   5.619   1.492   5.983  0.9161 -0.3909 -2.3646
18241TIP3   OH276137   2.618   1.464  13.251  0.1758 -0.7655  0.1524
18241TIP3    H176138   2.529   1.470  13.216  0.3018  0.4499  0.0135
18241TIP3    H276139   2.630   1.371  13.270 -0.3624 -1.2691 -1.8516
18242TIP3   OH276140   3.577   3.369   5.807 -0.5305 -0.7741 -0.1493
18242TIP3    H176141   3.524   3.406   5.878 -2.7435 -1.0585 -1.6304
18242TIP3    H276142   3.556   3.275   5.808  2.4101 -1.4907  1.3093
18243TIP3   OH276143   0.916   3.372   5.204  0.1398 -0.1318  0.0285
18243TIP3    H176144   0.914   3.287   5.246 -1.1999  0.5000  1.3103
18243TIP3    H276145   0.849   3.367   5.136  0.2082 -0.1717 -0.0359
18244TIP3   OH276146   1.376   5.274  14.884  0.1743  0.3337  0.6687
18244TIP3    H176147   1.308   5.310  14.942 -0.7095 -1.4617  0.7815
18244TIP3    H276148   1.332   5.263  14.800  1.0237  1.4396  0.0604
18245TIP3   OH276149   6.424   4.992   0.201 -0.4562 -0.1856 -0.5008
18245TIP3    H176150   6.491   5.010   0.135 -0.4147 -0.0317 -0.4168
18245TIP3    H276151   6.348   5.044   0.173  0.4297  1.9561  1.0132
18246TIP3   OH276152   2.175   5.013   3.499 -0.5227 -0.3311  0.4076
18246TIP3    H176153   2.243   4.950   3.477 -0.5545 -0.2672  0.1228
18246TIP3    H276154   2.112   4.963   3.552 -0.8910 -0.7149 -0.3930
18247TIP3   OH276155   5.975   1.709   0.380 -0.4318 -0.0862 -0.1990
18247TIP3    H176156   5.991   1.736   0.470 -1.5756 -0.6361  0.1884
18247TIP3    H276157   5.935   1.785   0.338  2.9024  1.2393 -1.1311
18248TIP3   OH276158   2.553   3.364   4.138 -0.3537 -0.3157 -0.1780
18248TIP3    H176159   2.522   3.447   4.175 -0.8788 -0.9486  0.8251
18248TIP3    H276160   2.521   3.364   4.048 -1.7723 -0.1867  0.3241
18249TIP3   OH276161   2.154   6.171  15.458  0.2853 -0.3409 -1.1112
18249TIP3    H176162   2.132   6.214  15.540 -0.8081  0.9324 -2.0594
18249TIP3    H276163   2.223   6.108  15.482 -1.8657 -1.9028  1.2576
18250TIP3   OH276164   1.951   4.888  16.680  0.4276 -1.1606 -0.2402
18250TIP3    H176165   2.014   4.892  16.608  1.1491 -2.5616  0.2840
18250TIP3    H276166   1.882   4.949  16.655  2.4941  1.1824 -0.3487
18251TIP3   OH276167   2.159   2.902   1.400 -0.3352 -0.1236  0.4723
18251TIP3    H176168   2.137   2.810   1.386 -1.4567  0.1051  0.6794
18251TIP3    H276169   2.163   2.940   1.313 -0.0246 -0.3324  0.3949
18252TIP3   OH276170   0.005   6.674   5.165  0.3363 -0.3847 -0.3140
18252TIP3    H176171  -0.046   6.681   5.084  1.5263  0.2250 -1.0296
18252TIP3    H276172   0.089   6.637   5.137  0.9429  0.3166  0.5558
18253TIP3   OH276173   0.920   4.295   5.570 -0.0283  0.0349  0.2326
18253TIP3    H176174   1.004   4.261   5.599  0.4500  2.0422  1.3204
18253TIP3    H276175   0.877   4.325   5.651 -1.2219  0.2008 -0.4556
18254TIP3   OH276176   3.621   5.666  12.012 -0.3180 -0.2085  0.0666
18254TIP3    H176177   3.559   5.738  12.024  0.0464 -0.0777  1.2382
18254TIP3    H276178   3.574   5.603  11.957 -1.4531 -0.0509  0.8379
18255TIP3   OH276179   4.456   0.733  15.829 -0.4875  0.5368 -0.9478
18255TIP3    H176180   4.546   0.760  15.848 -0.4405 -0.2407 -0.0482
18255TIP3    H276181   4.425   0.693  15.910 -2.0486  1.8387 -0.8698
18256TIP3   OH276182   4.590   5.615   3.891  0.5194 -0.0311 -0.0133
18256TIP3    H176183   4.562   5.705   3.911  0.6964 -0.2396  1.1906
18256TIP3    H276184   4.515   5.577   3.846 -0.8010 -0.2435  2.2626
18257TIP3   OH276185   2.604   5.335  11.741  0.2638 -0.4866  0.3556
18257TIP3    H176186   2.631   5.313  11.651  1.5632 -0.4359  0.7277
18257TIP3    H276187   2.544   5.265  11.765 -0.6255 -0.1494 -0.7901
18258TIP3   OH276188   4.681   2.575  11.507  0.5288  0.5670  0.6679
18258TIP3    H176189   4.598   2.610  11.474  1.3759  2.8256  0.8348
18258TIP3    H276190   4.698   2.497  11.454 -2.4568 -0.8171  1.6646
18259TIP3   OH276191   2.516   5.930   1.887  0.3090  0.2273 -0.4626
18259TIP3    H176192   2.469   5.946   1.806 -1.4115 -1.1111  0.2376
18259TIP3    H276193   2.556   5.844   1.875 -1.9916 -1.0896  1.0033
18260TIP3   OH276194   1.647   5.650   6.131  0.0159 -0.0186  0.3090
18260TIP3    H176195   1.651   5.557   6.153  2.8172 -0.0531 -0.0904
18260TIP3    H276196   1.589   5.655   6.056 -1.2333 -1.2601  1.1763
18261TIP3   OH276197   2.600   1.114   2.857 -0.2104 -0.2940  0.4967
18261TIP3    H176198   2.574   1.199   2.892  0.2720 -0.0883  0.3631
18261TIP3    H276199   2.519   1.063   2.855 -1.2396  1.3408 -2.8326
18262TIP3   OH276200   0.371   0.685  14.194 -0.4432  0.0862  0.0215
18262TIP3    H176201   0.372   0.607  14.138  0.6053 -0.1907  0.4295
18262TIP3    H276202   0.395   0.757  14.135  2.6807 -0.4885  0.5333
18263TIP3   OH276203   0.704   2.630   1.919 -0.3056 -0.0233 -0.6193
18263TIP3    H176204   0.685   2.703   1.861 -0.4873  1.1004  0.8262
18263TIP3    H276205   0.786   2.654   1.963  0.3198 -1.2727 -1.0704
18264TIP3   OH276206   4.655   3.397   3.969  0.2785 -0.0291  0.2020
18264TIP3    H176207   4.736   3.394   4.020  0.7866 -1.2148 -0.6421
18264TIP3    H276208   4.668   3.331   3.900 -0.1798  1.8953 -1.7825
18265TIP3   OH276209   2.369   2.253   4.138 -0.3255  0.0261  0.0072
18265TIP3    H176210   2.385   2.257   4.233 -0.6185 -1.0909  0.1126
18265TIP3    H276211   2.428   2.318   4.101 -0.2650  0.5255  0.9718
18266TIP3   OH276212   5.549   5.254   5.973  0.0808  0.4833  0.4253
18266TIP3    H176213   5.629   5.259   6.026  0.2344 -1.0305  0.3532
18266TIP3    H276214   5.571   5.192   5.903 -1.0697  0.2936  0.2291
18267TIP3   OH276215   4.046   2.119  12.396 -0.4069 -0.6749  0.1443
18267TIP3    H176216   4.101   2.121  12.318 -1.8878 -1.4030 -0.9361
18267TIP3    H276217   4.039   2.026  12.418 -2.0143 -0.6729 -0.3187
18268TIP3   OH276218   0.696   6.424  13.799  0.2329 -0.0749  0.3675
18268TIP3    H176219   0.723   6.404  13.889  2.2128 -1.5326 -0.5260
18268TIP3    H276220   0.750   6.499  13.773  0.0251  0.0203  0.2040
18269TIP3   OH276221   2.608   1.077   1.487  0.6088  0.4144  0.3249
18269TIP3    H176222   2.566   1.053   1.405  0.1727 -0.1541  0.7014
18269TIP3    H276223   2.698   1.046   1.478  0.8190  1.2256 -0.3110
18270TIP3   OH276224   5.482   4.824  15.634  0.3019  0.8564 -0.2134
18270TIP3    H176225   5.576   4.822  15.612  0.3029 -0.1313 -0.1381
18270TIP3    H276226   5.480   4.823  15.729  0.2255  1.9470 -0.1913
18271TIP3   OH276227   4.960   6.405  14.531 -0.2981  0.1515  0.2791
18271TIP3    H176228   4.945   6.413  14.437  1.9128  0.4999 -0.0760
18271TIP3    H276229   4.976   6.312  14.545 -0.3630  0.1368  0.2558
18272TIP3   OH276230   6.128   5.822  13.333 -0.1518  0.3844 -0.3180
18272TIP3    H176231   6.187   5.881  13.285 -0.0542  0.5902  0.0474
18272TIP3    H276232   6.182   5.789  13.405 -0.4066  0.3741 -0.1335
18273TIP3   OH276233   4.141   2.530   1.945 -0.3542  0.7244  0.2609
18273TIP3    H176234   4.150   2.474   1.868 -0.5005  1.2934 -0.1773
18273TIP3    H276235   4.070   2.490   1.996  0.5410 -0.3220  0.6938
18274TIP3   OH276236   1.233   2.170  14.398 -0.2008 -0.0965  0.7786
18274TIP3    H176237   1.226   2.235  14.328 -0.2030  0.2096  1.0656
18274TIP3    H276238   1.185   2.207  14.471  0.5823 -0.0049  1.2521
18275TIP3   OH276239   0.297   0.076   2.240  0.4013  0.9401  0.3140
18275TIP3    H176240   0.365   0.109   2.298  1.3286 -0.1852 -0.0956
18275TIP3    H276241   0.225   0.051   2.298  0.5639  1.6080  0.8039
18276TIP3   OH276242   6.342   6.242  15.196 -0.3742 -0.0265 -0.3596
18276TIP3    H176243   6.416   6.184  15.213 -1.3002 -2.5817 -4.3949
18276TIP3    H276244   6.316   6.274  15.282  2.0675 -3.2393  1.6699
18277TIP3   OH276245   5.208   4.964  12.686 -0.3900  0.1522  0.1645
18277TIP3    H176246   5.137   4.998  12.741 -0.4454  0.5526 -0.1544
18277TIP3    H276247   5.164   4.902  12.628 -0.2944 -0.4484  0.7246
18278TIP3   OH276248   3.871   1.799   2.502  0.2192  0.4319 -1.0780
18278TIP3    H176249   3.818   1.810   2.581 -0.4875  2.7072 -1.8548
18278TIP3    H276250   3.961   1.804   2.534  0.0058 -1.9240  0.0266
18279TIP3   OH276251   3.561   0.695   4.463 -0.3696  0.1441  0.1566
18279TIP3    H176252   3.504   0.764   4.497  0.3901  0.4269  0.8503
18279TIP3    H276253   3.504   0.644   4.405 -0.4752  2.4331 -1.8302
18280TIP3   OH276254   4.457   5.902   3.619  0.2423 -0.6796  0.0928
18280TIP3    H176255   4.458   5.867   3.709 -0.6503  1.7905  1.1006
18280TIP3    H276256   4.364   5.919   3.602  0.3961 -1.3005 -1.3891
18281TIP3   OH276257   1.803   5.005   3.716  0.4089 -0.0594  0.3535
18281TIP3    H176258   1.746   4.937   3.679  0.2380  0.8263 -1.0323
18281TIP3    H276259   1.887   4.960   3.731 -0.1247 -0.9277  0.8058
18282TIP3   OH276260   5.480   4.409   4.839  0.2269 -0.2464  0.3189
18282TIP3    H176261   5.543   4.338   4.849  0.2353 -0.2377  0.3276
18282TIP3    H276262   5.533   4.485   4.814  0.1603 -0.3563 -0.1588
18283TIP3   OH276263   4.015   4.919   1.156 -0.2368 -0.2934 -0.3931
18283TIP3    H176264   4.097   4.925   1.205  0.1818  0.4389 -1.1651
18283TIP3    H276265   4.041   4.891   1.068 -0.6138  1.5800 -1.1266
18284TIP3   OH276266   1.200   0.225   2.983 -0.2907 -0.0692 -0.3213
18284TIP3    H176267   1.282   0.225   3.034 -0.4241 -0.3132 -0.1037
18284TIP3    H276268   1.223   0.181   2.901 -0.4605 -1.0966  0.1694
18285TIP3   OH276269   5.359   1.889  14.098  0.2993  0.1492  0.3183
18285TIP3    H176270   5.376   1.871  14.190  1.9034  0.2309  0.0397
18285TIP3    H276271   5.386   1.980  14.085  0.9136 -0.1342 -0.4401
18286TIP3   OH276272   2.606   3.255  15.076  0.1110  0.0997 -0.9670
18286TIP3    H176273   2.512   3.239  15.074 -0.2003  1.8707 -1.8106
18286TIP3    H276274   2.635   3.219  15.159 -1.0951 -1.5462 -1.2267
18287TIP3   OH276275   5.864   2.915  14.453  0.6268 -0.0135 -0.0919
18287TIP3    H176276   5.788   2.860  14.475  1.5552 -1.8374 -1.2934
18287TIP3    H276277   5.911   2.925  14.536 -0.5611  0.5698  0.5242
18288TIP3   OH276278   6.300   0.666   2.775 -0.2464  0.2983  0.1008
18288TIP3    H176279   6.238   0.732   2.743  0.7029 -0.1235 -2.7831
18288TIP3    H276280   6.263   0.583   2.746  0.3390 -0.1561  0.6523
18289TIP3   OH276281   5.607   3.633   5.910 -0.5513 -0.0312  0.0452
18289TIP3    H176282   5.592   3.560   5.850  0.2097  0.4162 -0.6965
18289TIP3    H276283   5.627   3.592   5.994 -0.5405 -0.6691 -0.2710
18290TIP3   OH276284   4.653   6.154   1.332  0.0942 -0.5436 -0.0909
18290TIP3    H176285   4.738   6.112   1.341  1.2555  1.6812 -0.4427
18290TIP3    H276286   4.647   6.178   1.240 -0.1251  0.9104  0.2911
18291TIP3   OH276287   0.745   5.376  17.186 -0.5676  0.3931  0.4322
18291TIP3    H176288   0.784   5.288  17.184  0.2423  0.6737  2.2459
18291TIP3    H276289   0.688   5.379  17.110  0.2729 -1.3100 -0.2963
18292TIP3   OH276290   6.012   3.803  12.756  0.0286 -0.1180  0.2881
18292TIP3    H176291   6.029   3.735  12.690 -0.9241  0.8412 -0.9687
18292TIP3    H276292   6.082   3.792  12.819 -0.3192 -2.5514  0.3327
18293TIP3   OH276293   4.212   6.709   1.861  0.5595  0.1366 -0.0555
18293TIP3    H176294   4.163   6.751   1.790  1.7136  0.3092 -0.7774
18293TIP3    H276295   4.213   6.616   1.838  1.2467  0.2398 -0.4827
18294TIP3   OH276296   3.946   0.244  12.337  0.3635 -0.3937 -0.1748
18294TIP3    H176297   3.945   0.177  12.269  0.5088 -0.9497  0.3673
18294TIP3    H276298   3.950   0.327  12.289 -1.5731 -0.6923 -0.8826
18295TIP3   OH276299   1.540   2.612   3.236  0.7030 -0.1577  0.4843
18295TIP3    H176300   1.490   2.543   3.193 -1.1853  0.4625  1.5752
18295TIP3    H276301   1.506   2.693   3.197  0.8079  0.2755  1.2748
18296TIP3   OH276302   3.501   3.541   1.936  0.5752  0.1992 -0.4782
18296TIP3    H176303   3.491   3.626   1.978  0.3737  0.8240 -1.7505
18296TIP3    H276304   3.591   3.515   1.956  0.6054  0.6655  0.0069
18297TIP3   OH276305   5.251   0.883  11.534 -0.2550 -0.6405 -0.1553
18297TIP3    H176306   5.190   0.824  11.579 -0.3036  0.4497  1.2447
18297TIP3    H276307   5.215   0.970  11.549  1.3287 -0.0268  0.1893
18298TIP3   OH276308   2.650   1.043   4.614 -0.2376  0.1184 -0.2294
18298TIP3    H176309   2.572   0.989   4.632 -0.0916 -0.5345 -1.4736
18298TIP3    H276310   2.639   1.120   4.669 -1.5503 -0.1738 -0.0619
18299TIP3   OH276311   2.271   4.827   4.790 -0.1195  0.1616  0.4063
18299TIP3    H176312   2.199   4.857   4.735  0.2994  1.1084  0.3645
18299TIP3    H276313   2.347   4.829   4.733 -0.1475 -1.3791  0.2933
18300TIP3   OH276314   0.312   2.127   5.413  0.2087 -0.1816  0.0007
18300TIP3    H176315   0.252   2.057   5.439  0.2330 -0.1298  0.1902
18300TIP3    H276316   0.398   2.085   5.408  0.1659 -0.2465 -0.2313
18301TIP3   OH276317   3.057   6.395   4.394  0.8538  0.0751 -0.8737
18301TIP3    H176318   3.115   6.443   4.334  0.3719  0.5902 -0.9362
18301TIP3    H276319   3.117   6.347   4.451  1.3767  1.1220 -0.5067
18302TIP3   OH276320   6.488   6.423  11.715  0.1135 -0.1646 -0.0411
18302TIP3    H176321   6.413   6.415  11.774 -0.8740  1.6684 -0.9854
18302TIP3    H276322   6.486   6.514  11.686  1.8338 -0.4867 -1.2607
18303TIP3   OH276323   3.172   3.795   3.469  0.2383 -0.6211 -0.5928
18303TIP3    H176324   3.198   3.888   3.467  1.8908 -1.0698 -2.0188
18303TIP3    H276325   3.093   3.791   3.416 -1.8227  0.4955  2.3019
18304TIP3   OH276326   0.870   3.934  14.421  0.0171  0.7314  0.4272
18304TIP3    H176327   0.915   3.930  14.505 -0.1582 -0.4360  0.4744
18304TIP3    H276328   0.939   3.953  14.357  0.5323 -0.6698  0.5487
18305TIP3   OH276329   6.008   4.733   2.074  0.2612 -0.8795 -0.1014
18305TIP3    H176330   5.920   4.754   2.106  1.4678  0.2245  2.6474
18305TIP3    H276331   6.002   4.642   2.046 -2.4133 -0.0339 -2.4330
18306TIP3   OH276332   6.386   1.546   3.227  0.5918 -0.6996  0.3353
18306TIP3    H176333   6.443   1.595   3.168 -1.0249 -0.1399 -0.7945
18306TIP3    H276334   6.342   1.482   3.171  0.9133 -1.8620  1.3881
18307TIP3   OH276335   3.182   1.630  13.873 -0.0329  0.3300 -0.1927
18307TIP3    H176336   3.115   1.623  13.806  0.9229  0.5956 -1.1849
18307TIP3    H276337   3.220   1.543  13.879 -1.0262 -0.0373  0.9736
18308TIP3   OH276338   0.360   3.502   2.800 -0.1330  0.1437  0.1365
18308TIP3    H176339   0.306   3.429   2.830  0.5996 -0.8963 -1.0789
18308TIP3    H276340   0.372   3.556   2.878 -2.6282  0.2067  0.5224
18309TIP3   OH276341   3.605   5.341   3.769  0.5418 -0.0666  0.0387
18309TIP3    H176342   3.674   5.290   3.725  1.2324  0.0963  0.9313
18309TIP3    H276343   3.538   5.276   3.792  0.8196 -0.3670 -0.0034
18310TIP3   OH276344   6.209   0.130  14.770  0.0325  0.2246 -0.0568
18310TIP3    H176345   6.177   0.134  14.861 -1.3807  1.0900 -0.5753
18310TIP3    H276346   6.238   0.220  14.752 -0.3664  0.2199 -0.7018
18311TIP3   OH276347   2.810   2.006   0.752  0.1429  0.3508  0.4262
18311TIP3    H176348   2.786   2.005   0.660 -1.0630 -2.5915  0.7096
18311TIP3    H276349   2.766   1.930   0.789  1.7191  0.6871  3.1499
18312TIP3   OH276350   4.428   0.366   3.093 -0.2229  0.3312 -0.5524
18312TIP3    H176351   4.341   0.355   3.054  0.0655 -0.5334 -0.9484
18312TIP3    H276352   4.465   0.278   3.096 -0.2233  0.3895  1.6495
18313TIP3   OH276353   6.218   1.456   5.817 -0.2047 -0.0911 -0.2967
18313TIP3    H176354   6.252   1.475   5.729 -0.9088 -1.9391 -0.9862
18313TIP3    H276355   6.152   1.522   5.832  0.5684  0.8066 -0.7796
18314TIP3   OH276356   3.177   3.370  15.808 -0.1786 -0.6194  0.1086
18314TIP3    H176357   3.247   3.387  15.745  1.0240 -0.2992  1.4885
18314TIP3    H276358   3.222   3.366  15.893 -1.9288  0.3643  1.1203
18315TIP3   OH276359   2.195   1.463  16.647 -0.4600  0.0660 -0.6366
18315TIP3    H176360   2.227   1.373  16.651 -2.7275 -0.7260  2.2435
18315TIP3    H276361   2.126   1.461  16.580  0.8049  0.1491 -1.9581
18316TIP3   OH276362   5.359   2.009   1.722 -0.1669 -0.1085 -0.3822
18316TIP3    H176363   5.415   1.996   1.799  1.1672 -0.8880 -1.4756
18316TIP3    H276364   5.314   2.092   1.739  1.1297  0.4041  0.6247
18317TIP3   OH276365   4.473   5.285  11.679 -0.2222  0.2165 -0.3323
18317TIP3    H176366   4.441   5.242  11.758 -2.3368 -0.6278 -1.5941
18317TIP3    H276367   4.403   5.346  11.656 -0.4588 -0.8613 -2.5520
18318TIP3   OH276368   2.643   3.854   5.204 -0.3758 -0.8104  0.3673
18318TIP3    H176369   2.647   3.828   5.111 -2.6870 -0.4027  0.1227
18318TIP3    H276370   2.731   3.840   5.236  0.2935 -1.6614 -1.7294
18319TIP3   OH276371   2.932   3.560   4.377 -0.3204 -0.4687 -0.0753
18319TIP3    H176372   2.937   3.503   4.300 -0.0283 -1.2042  0.4866
18319TIP3    H276373   2.838   3.565   4.396 -0.5003  0.6358 -1.1509
18320TIP3   OH276374   5.799   1.749  13.498 -0.1295  0.5090 -0.2436
18320TIP3    H176375   5.754   1.730  13.580 -1.4212 -1.7542 -1.4596
18320TIP3    H276376   5.891   1.761  13.524 -0.6867  0.9539  1.6542
18321TIP3   OH276377   5.991   4.172  12.369  0.3901  0.3997 -0.3701
18321TIP3    H176378   6.046   4.248  12.349  1.7078 -0.4711 -0.1158
18321TIP3    H276379   6.048   4.112  12.417 -0.6224 -0.7709 -0.5784
18322TIP3   OH276380   2.952   5.063   4.811  0.4300 -0.2376 -0.3552
18322TIP3    H176381   2.859   5.045   4.802  0.0344  1.1344  0.8125
18322TIP3    H276382   2.987   4.985   4.854  0.0236 -1.1783 -1.6777
18323TIP3   OH276383   3.563   5.765  12.341  0.5781 -0.6174  0.1992
18323TIP3    H176384   3.608   5.705  12.282  0.9025 -0.1597 -0.0138
18323TIP3    H276385   3.492   5.802  12.289  0.6719 -0.4478  0.1964
18324TIP3   OH276386   1.273   2.375  14.196 -0.4124  0.5058  0.1673
18324TIP3    H176387   1.237   2.348  14.111  0.9597 -0.4515 -0.1288
18324TIP3    H276388   1.341   2.439  14.174 -0.2983  0.5229  0.5649
18325TIP3   OH276389   1.874   5.305  12.079 -0.1151 -0.1154 -0.4812
18325TIP3    H176390   1.966   5.328  12.071 -0.1822 -0.4759 -2.4544
18325TIP3    H276391   1.830   5.387  12.099  1.1066 -0.5955  5.0086
18326TIP3   OH276392   0.347   2.443  17.146 -0.1680 -0.1878  0.2400
18326TIP3    H176393   0.322   2.531  17.174  0.5625 -0.2710  1.1689
18326TIP3    H276394   0.324   2.387  17.220 -1.2579 -0.8818 -0.6161
18327TIP3   OH276395   3.093   1.582  12.342  0.2598 -0.1494  0.2118
18327TIP3    H176396   3.170   1.538  12.377  0.4322  0.9203  1.2206
18327TIP3    H276397   3.105   1.579  12.247  0.4378 -1.9247  0.2795
18328TIP3   OH276398   2.195   4.831   4.286  0.3146 -0.2174 -0.4018
18328TIP3    H176399   2.229   4.903   4.232 -0.9838 -0.3858 -1.4554
18328TIP3    H276400   2.135   4.783   4.228  0.0293 -1.2732  0.7448
18329TIP3   OH276401   0.689   0.633  16.426 -0.4302  0.2210 -0.0802
18329TIP3    H176402   0.632   0.597  16.494 -0.3131  0.4746  0.1505
18329TIP3    H276403   0.755   0.682  16.473  1.0779 -1.5931 -0.2434
18330TIP3   OH276404   2.407   2.000   4.029 -0.1781 -0.3020 -0.0780
18330TIP3    H176405   2.334   1.939   4.041 -1.0008  0.7786  0.5542
18330TIP3    H276406   2.376   2.082   4.069  1.4945  0.0808  0.4635
18331TIP3   OH276407   0.519   6.786   1.744  0.1404 -0.0469  0.2491
18331TIP3    H176408   0.574   6.708   1.744  0.6775  0.3300 -0.6666
18331TIP3    H276409   0.430   6.752   1.753  0.5504 -0.6155  2.5031
18332TIP3   OH276410   3.716   3.600   1.406  0.4434 -0.1239  0.1861
18332TIP3    H176411   3.628   3.570   1.382 -1.3174  3.6345  1.5341
18332TIP3    H276412   3.722   3.584   1.500  2.3520 -2.9185 -0.3447
18333TIP3   OH276413   3.341   3.889   0.303  0.4665 -0.1827  0.0036
18333TIP3    H176414   3.349   3.945   0.380  0.0477 -1.7739  1.2169
18333TIP3    H276415   3.328   3.801   0.338 -1.4736 -0.6765 -1.8811
18334TIP3   OH276416   0.098   3.369   2.333  0.2070 -0.4423 -0.1226
18334TIP3    H176417   0.028   3.360   2.398  0.5956 -3.6512 -0.0807
18334TIP3    H276418   0.175   3.331   2.375  0.3943 -2.7945 -2.5149
18335TIP3   OH276419   4.530   6.657   4.091 -0.0102 -1.1094 -0.7065
18335TIP3    H176420   4.614   6.683   4.129  0.6038 -1.1875 -1.9892
18335TIP3    H276421   4.495   6.591   4.151 -1.8094  2.8808  2.8930
18336TIP3   OH276422   5.834   6.719   2.773  0.6412 -0.3174 -0.0136
18336TIP3    H176423   5.791   6.747   2.854  1.2435  0.8526 -0.0938
18336TIP3    H276424   5.770   6.734   2.705  0.4029 -0.5980  0.1490
18337TIP3   OH276425   0.968   3.841   4.900 -0.4862  0.6519 -1.0395
18337TIP3    H176426   0.941   3.917   4.952  1.7090  1.2716 -0.7542
18337TIP3    H276427   0.908   3.842   4.825 -0.9003  2.3055 -0.7229
18338TIP3   OH276428   3.725   5.923  15.608 -0.1079 -0.5216 -0.3970
18338TIP3    H176429   3.631   5.918  15.623 -0.0978 -0.7226 -0.3919
18338TIP3    H276430   3.734   5.961  15.521 -0.1586  1.2033  0.3406
18339TIP3   OH276431   4.199   1.164   3.352 -0.4106  0.6580  0.1486
18339TIP3    H176432   4.155   1.163   3.267  1.9624 -0.7145 -1.1412
18339TIP3    H276433   4.293   1.166   3.329  0.2290  1.6373  2.7441
18340TIP3   OH276434   4.406   3.484  11.372  0.2658  0.1350 -0.2442
18340TIP3    H176435   4.403   3.430  11.293 -0.0588 -0.3329  0.0896
18340TIP3    H276436   4.495   3.521  11.372  0.5738 -0.5924 -0.3456
18341TIP3   OH276437   3.786   6.644   0.617  0.2102 -0.7906  0.2948
18341TIP3    H176438   3.698   6.619   0.587 -0.3846  2.3322 -0.7434
18341TIP3    H276439   3.832   6.671   0.538  1.7978 -1.4954  0.9672
18342TIP3   OH276440   4.208   3.178   4.692 -0.5424 -0.2293  0.0015
18342TIP3    H176441   4.282   3.222   4.650 -2.7225  2.1960 -1.5035
18342TIP3    H276442   4.215   3.201   4.784  0.0569  0.7635 -0.2830
18343TIP3   OH276443   2.906   0.938   2.582 -0.0036  0.5123  0.5631
18343TIP3    H176444   2.981   0.893   2.544  2.0548  3.9864  0.3691
18343TIP3    H276445   2.884   0.886   2.660  1.2737 -1.6633 -0.4824
18344TIP3   OH276446   1.037   1.416   3.551 -0.6098 -0.5601 -0.3713
18344TIP3    H176447   1.019   1.438   3.460  0.4928 -0.8944 -0.6776
18344TIP3    H276448   0.950   1.403   3.590 -1.1169  0.3821 -1.1606
18345TIP3   OH276449   3.944   1.824  11.223 -0.1761  0.0286 -0.3588
18345TIP3    H176450   3.874   1.827  11.159  0.4993  0.8407 -1.0570
18345TIP3    H276451   3.901   1.798  11.305 -1.4300  1.4450 -0.5706
18346TIP3   OH276452   5.153   2.453  17.092 -0.2603  0.5390 -0.0294
18346TIP3    H176453   5.219   2.478  17.027 -0.1415  0.4537  0.0547
18346TIP3    H276454   5.069   2.470  17.050 -0.1915 -0.4898 -0.5950
18347TIP3   OH276455   0.498   5.129  13.596  0.0970 -1.1659 -0.6470
18347TIP3    H176456   0.565   5.069  13.627  0.5013  0.3657  1.6277
18347TIP3    H276457   0.547   5.201  13.555 -0.2179 -0.7336 -0.2716
18348TIP3   OH276458   6.106   3.070  14.504  0.2634  0.0954  0.7006
18348TIP3    H176459   6.175   3.124  14.466  1.8933 -0.8639  2.1809
18348TIP3    H276460   6.027   3.094  14.456  1.6499  1.1220 -1.1445
18349TIP3   OH276461   2.412   3.774  11.233  0.1949  0.1946  0.4153
18349TIP3    H176462   2.449   3.861  11.247  1.7578 -0.3843  0.0218
18349TIP3    H276463   2.360   3.783  11.153  0.6288  0.6915  0.1850
18350TIP3   OH276464   3.282   2.492  11.316 -0.3028  0.2435 -0.2718
18350TIP3    H176465   3.236   2.566  11.277 -0.5971  0.9039  1.2679
18350TIP3    H276466   3.333   2.531  11.388 -1.3430 -1.1872  1.2767
18351TIP3   OH276467   1.946   3.376  16.128 -0.1235  0.3370 -0.0489
18351TIP3    H176468   1.881   3.349  16.193  0.2862 -0.4186  0.0502
18351TIP3    H276469   2.021   3.318  16.144 -0.4354 -0.6183 -1.9151
18352TIP3   OH276470   1.636   2.486   1.577 -0.2928  0.2993  0.3317
18352TIP3    H176471   1.610   2.558   1.519 -0.5471 -1.2248 -1.4812
18352TIP3    H276472   1.719   2.454   1.541  0.1587  0.0895  1.5188
18353TIP3   OH276473   5.823   3.372   0.056  0.0421  0.1464 -0.5171
18353TIP3    H176474   5.731   3.386   0.078 -0.0385  0.6973 -1.2043
18353TIP3    H276475   5.822   3.337  -0.033  0.3703 -2.1999  0.3664
18354TIP3   OH276476   2.169   6.648   2.201 -0.1487  0.0174  0.3175
18354TIP3    H176477   2.081   6.682   2.192  0.0010  0.3533  0.1253
18354TIP3    H276478   2.158   6.553   2.201 -0.4721  0.0556 -0.0412
18355TIP3   OH276479   4.206   5.456   1.193 -0.8228  0.3575  0.5264
18355TIP3    H176480   4.245   5.497   1.270 -0.1417  0.3453  0.1934
18355TIP3    H276481   4.212   5.362   1.210  3.1861  0.1785 -1.3535
18356TIP3   OH276482   4.195   3.986   2.600  0.0512 -0.3382 -0.1209
18356TIP3    H176483   4.279   3.960   2.563  0.8051 -1.0126  1.9931
18356TIP3    H276484   4.217   4.032   2.681 -1.5183  1.9687 -0.9349
18357TIP3   OH276485   6.149   2.569   0.542 -0.7647 -0.2139  0.6776
18357TIP3    H176486   6.114   2.484   0.568 -1.5552  0.0939  0.6184
18357TIP3    H276487   6.204   2.550   0.466 -0.9655 -0.6664  0.6459
18358TIP3   OH276488   2.097   5.248  10.967 -0.2066  0.6561  0.2726
18358TIP3    H176489   2.045   5.179  11.010  0.6193 -1.3710 -1.8545
18358TIP3    H276490   2.114   5.214  10.879  0.3769  3.5511 -0.7950
18359TIP3   OH276491   3.904   6.704   0.363 -0.0015  0.1820  0.0209
18359TIP3    H176492   3.910   6.646   0.287  0.4578 -1.1386  1.0513
18359TIP3    H276493   3.995   6.721   0.387 -0.1515  0.3144  0.4971
18360TIP3   OH276494   6.159   0.542  16.822  0.3004 -0.1813 -0.6836
18360TIP3    H176495   6.145   0.448  16.836  2.7971 -0.5236 -0.3591
18360TIP3    H276496   6.177   0.549  16.728  1.7108 -0.2458 -0.4241
18361TIP3   OH276497   0.743   6.780   0.100  0.0396 -0.2317  0.2591
18361TIP3    H176498   0.705   6.829   0.173  2.0973  1.6720  0.1056
18361TIP3    H276499   0.737   6.839   0.025  0.5650 -1.0471 -0.4332
18362TIP3   OH276500   2.889   6.329   1.364 -0.1027  0.4466  0.3336
18362TIP3    H176501   2.890   6.233   1.362 -0.1382  0.4635 -0.6067
18362TIP3    H276502   2.957   6.352   1.428  0.6701 -0.1855 -0.2535
18363TIP3   OH276503   2.205   5.001  13.952  0.1152 -0.5122  0.1893
18363TIP3    H176504   2.190   5.046  13.868  2.9981  0.5713  0.2146
18363TIP3    H276505   2.117   4.973  13.980 -1.1322  0.8565 -2.2084
18364TIP3   OH276506   3.522   3.265  12.365 -0.2025  0.2106 -0.4494
18364TIP3    H176507   3.428   3.276  12.357 -0.6159 -1.4824  1.7123
18364TIP3    H276508   3.555   3.282  12.276 -2.6563 -0.3930 -1.5307
18365TIP3   OH276509   6.569   6.407   4.725  0.2476  0.4226 -0.0022
18365TIP3    H176510   6.508   6.481   4.720  1.2590  1.2441 -0.3325
18365TIP3    H276511   6.654   6.447   4.740  0.8351 -0.6745 -0.3572
18366TIP3   OH276512   5.827   2.903   0.997 -0.1776  0.0938 -0.1438
18366TIP3    H176513   5.919   2.924   1.013  0.2828 -0.7953 -1.5920
18366TIP3    H276514   5.781   2.987   1.007  0.9113  0.7233 -0.3611
18367TIP3   OH276515   2.678   0.593  17.178 -0.5956  0.2444 -0.1140
18367TIP3    H176516   2.608   0.658  17.187  0.3160  0.9522  2.3587
18367TIP3    H276517   2.759   0.644  17.184  0.1325 -1.0721  1.7350
18368TIP3   OH276518   0.536   2.216   6.745 -0.6775  0.1176  0.7226
18368TIP3    H176519   0.525   2.294   6.799  0.7754 -0.4331  1.8596
18368TIP3    H276520   0.614   2.173   6.781  2.2444  1.3320 -3.7129
18369TIP3   OH276521   4.728   3.974   5.412 -0.5785 -0.1884 -0.3483
18369TIP3    H176522   4.759   4.064   5.401 -1.2784  0.1016  0.0540
18369TIP3    H276523   4.679   3.976   5.494  0.8299 -1.3190  0.5362
18370TIP3   OH276524   1.576   5.576   3.003  0.3673 -0.2400 -0.4076
18370TIP3    H176525   1.639   5.550   2.936  0.3918 -2.2103  0.3206
18370TIP3    H276526   1.519   5.640   2.961  1.3305 -0.3157 -1.8302
18371TIP3   OH276527   6.057   4.328  12.882  0.3558 -0.4733  0.8732
18371TIP3    H176528   5.964   4.343  12.864  0.1377 -0.6415  1.8268
18371TIP3    H276529   6.067   4.233  12.880  0.9959 -0.3880 -1.5414
18372TIP3   OH276530   3.230   6.743   5.722  0.0255  0.2063 -1.1189
18372TIP3    H176531   3.182   6.716   5.800  1.5281 -0.8008 -0.5302
18372TIP3    H276532   3.278   6.821   5.749  1.3984 -0.7676 -0.7088
18373TIP3   OH276533   5.383   2.619   6.715  0.3026 -0.0696  0.2265
18373TIP3    H176534   5.442   2.549   6.689 -2.3916 -2.6130  0.6135
18373TIP3    H276535   5.296   2.588   6.688 -0.9496  3.2526  0.1991
18374TIP3   OH276536   0.262   5.880   2.431  0.2814  0.3239  0.2140
18374TIP3    H176537   0.326   5.840   2.490  0.6444  1.3713  0.5469
18374TIP3    H276538   0.193   5.815   2.423  0.3911  0.0314  1.5386
18375TIP3   OH276539   5.524   3.757  15.033 -0.0228 -0.0271 -0.3535
18375TIP3    H176540   5.513   3.816  14.958  1.9161 -1.3986 -1.7899
18375TIP3    H276541   5.474   3.678  15.009 -1.0440  0.2815  0.7097
18376TIP3   OH276542   4.501   2.171   4.252 -0.1606 -0.0020 -0.6234
18376TIP3    H176543   4.408   2.183   4.269 -0.1594 -0.5294 -0.2369
18376TIP3    H276544   4.520   2.082   4.281  0.6518  0.4066  0.1078
18377TIP3   OH276545   1.612   5.777  11.899  0.2036  0.5508  0.3294
18377TIP3    H176546   1.647   5.700  11.944  0.9169  0.3739 -0.5120
18377TIP3    H276547   1.690   5.824  11.868 -0.2794  0.6411 -0.7618
18378TIP3   OH276548   5.610   5.906  15.843  0.0305  0.4590  0.1599
18378TIP3    H176549   5.590   5.996  15.818 -0.8862  1.2498  3.4610
18378TIP3    H276550   5.533   5.855  15.815 -0.1804  0.9853 -0.2174
18379TIP3   OH276551   6.470   3.251  14.898 -0.7279  0.1313 -0.2238
18379TIP3    H176552   6.548   3.239  14.843 -1.0236  0.7466 -0.7857
18379TIP3    H276553   6.434   3.162  14.907 -0.2076 -0.0935 -0.3322
18380TIP3   OH276554   0.582   1.065  16.925 -0.6399 -0.0108  0.2736
18380TIP3    H176555   0.562   0.991  16.983 -0.5234 -0.9102 -0.8186
18380TIP3    H276556   0.561   1.142  16.978  1.8030 -0.7258  2.4149
18381TIP3   OH276557   5.323   4.718   3.213  0.4434  0.2139 -0.5965
18381TIP3    H176558   5.352   4.803   3.246  1.1452  0.2458 -1.2773
18381TIP3    H276559   5.231   4.731   3.190  0.0580  0.3016  0.9542
18382TIP3   OH276560   3.043   4.698   4.036  0.1791  0.6584 -0.1815
18382TIP3    H176561   2.962   4.746   4.021 -0.9366 -0.8499  0.8066
18382TIP3    H276562   3.019   4.606   4.019  1.7787  0.2407 -0.2365
18383TIP3   OH276563   5.620   6.005  16.419 -0.2609  0.0628  0.4004
18383TIP3    H176564   5.675   5.947  16.366 -2.6159 -0.1009 -1.9588
18383TIP3    H276565   5.618   5.963  16.505  2.3463 -0.5146  0.2305
18384TIP3   OH276566   0.376   3.437  11.170  0.3637  0.2155 -0.1610
18384TIP3    H176567   0.333   3.505  11.118  1.7417 -0.2549 -1.9816
18384TIP3    H276568   0.305   3.378  11.195 -0.7985  2.1237  1.1852
18385TIP3   OH276569   2.922   2.150   4.868 -0.5172 -0.3594 -0.3425
18385TIP3    H176570   2.991   2.213   4.888 -1.5728  0.3452  1.1846
18385TIP3    H276571   2.876   2.188   4.793  1.9289 -1.8033 -2.6843
18386TIP3   OH276572   6.027   1.137   2.068  0.5686  0.0425  0.4115
18386TIP3    H176573   5.960   1.198   2.099  0.4959 -0.4570  1.2474
18386TIP3    H276574   6.010   1.056   2.116  0.1650 -0.8954 -1.2890
18387TIP3   OH276575   3.461   6.165   3.953  0.0595 -0.3189  0.4103
18387TIP3    H176576   3.419   6.203   3.876  0.9456 -0.4755 -0.1598
18387TIP3    H276577   3.494   6.080   3.924  0.7729 -0.1944  0.8416
18388TIP3   OH276578   6.717   6.050  14.747  0.3353 -0.1376  0.0742
18388TIP3    H176579   6.792   6.109  14.738 -0.8481  1.2654 -0.8839
18388TIP3    H276580   6.756   5.963  14.751  2.0969  0.6691  1.1460
18389TIP3   OH276581   5.486   3.084  12.720  0.2888 -0.1484  0.1036
18389TIP3    H176582   5.469   3.005  12.771  2.5456  0.0349  1.2005
18389TIP3    H276583   5.491   3.154  12.784  0.1581  0.5806 -0.6746
18390TIP3   OH276584   2.206   3.146   1.283  0.4515 -0.0301  0.3831
18390TIP3    H176585   2.290   3.107   1.305  1.2736  0.8819 -1.0721
18390TIP3    H276586   2.177   3.188   1.364  0.7653 -1.4498  1.2497
18391TIP3   OH276587   0.582   5.625  16.432 -0.2221 -0.3676  0.4741
18391TIP3    H176588   0.549   5.633  16.343  2.8803 -1.2727 -0.7965
18391TIP3    H276589   0.621   5.711  16.451  1.5980 -1.0618 -0.0855
18392TIP3   OH276590   5.743   1.320   3.272 -0.8009  0.5192  0.2777
18392TIP3    H176591   5.802   1.291   3.342 -0.6087  1.7377  0.6284
18392TIP3    H276592   5.783   1.400   3.239 -0.7894 -0.1529 -1.3780
18393TIP3   OH276593   3.840   5.983  13.177  0.4780 -0.3054  0.3359
18393TIP3    H176594   3.760   5.993  13.125  0.7709 -0.4649 -0.1461
18393TIP3    H276595   3.866   6.073  13.198  1.6853 -0.0981 -1.8284
18394TIP3   OH276596   3.525   5.164  13.323 -0.0878 -0.7049  0.4329
18394TIP3    H176597   3.446   5.147  13.272  0.1296 -1.8133  0.4440
18394TIP3    H276598   3.566   5.239  13.280 -1.4251  0.2342  0.7615
18395TIP3   OH276599   2.916   0.557   0.633 -0.0855 -0.7145  0.2890
18395TIP3    H176600   2.993   0.603   0.602  0.0000  0.1916  1.8042
18395TIP3    H276601   2.882   0.511   0.555  1.9085 -1.0592 -0.3957
18396TIP3   OH276602   0.115   1.356   0.931 -0.1253  0.2208 -0.1608
18396TIP3    H176603   0.095   1.265   0.907  0.3417 -0.5717  2.2700
18396TIP3    H276604   0.063   1.409   0.870  1.1159 -1.6183 -2.9224
18397TIP3   OH276605   1.566   5.046   0.785  0.7763  0.3026  0.0277
18397TIP3    H176606   1.632   4.988   0.824  0.5784  0.4357  0.5695
18397TIP3    H276607   1.505   5.064   0.857  1.1151  1.5887  0.0042
18398TIP3   OH276608   0.226   4.731   0.567 -0.0200 -0.2096  0.1380
18398TIP3    H176609   0.173   4.774   0.634  0.8255 -0.0805  0.7321
18398TIP3    H276610   0.168   4.724   0.492 -1.5814 -2.0476  1.4831
18399TIP3   OH276611   4.407   3.264   2.714  0.2582  0.3175 -0.0288
18399TIP3    H176612   4.372   3.284   2.801 -1.8830  0.1171 -0.8202
18399TIP3    H276613   4.360   3.323   2.655 -0.9320 -2.0210 -1.4855
18400TIP3   OH276614   3.159   5.581  13.631 -0.2312 -0.1882 -0.2466
18400TIP3    H176615   3.130   5.641  13.700  2.1281  0.6378  0.0592
18400TIP3    H276616   3.157   5.495  13.671  3.2345  0.5252  1.6022
18401TIP3   OH276617   3.438   1.596   5.432 -0.4024 -0.1828 -0.0813
18401TIP3    H176618   3.533   1.587   5.443 -0.3581  0.6291  0.2982
18401TIP3    H276619   3.403   1.596   5.521 -0.6635  0.3844 -0.1754
18402TIP3   OH276620   0.317   5.410  15.308  0.0447 -0.5753  0.2664
18402TIP3    H176621   0.325   5.497  15.269  0.6427 -0.5158  0.5125
18402TIP3    H276622   0.225   5.404  15.335 -0.2796 -0.4755 -0.8034
18403TIP3   OH276623   6.420   0.168  11.570 -0.3447  0.5360  0.5928
18403TIP3    H176624   6.332   0.207  11.567 -0.7042 -0.2955  0.2419
18403TIP3    H276625   6.405   0.077  11.594  0.4930  0.5982  1.3734
18404TIP3   OH276626   0.083   1.415  13.026  0.6635  0.4147 -0.5574
18404TIP3    H176627   0.006   1.428  12.971  1.5295 -0.2733 -1.9554
18404TIP3    H276628   0.108   1.323  13.011  0.1972 -0.1557  1.9272
18405TIP3   OH276629   6.511   1.952  11.331  0.0132  0.2284 -0.0084
18405TIP3    H176630   6.458   1.956  11.252 -0.0816 -0.9316 -0.0109
18405TIP3    H276631   6.521   1.858  11.349  1.2435  0.4507  0.5352
18406TIP3   OH276632   5.269   6.295   5.022  0.0256  0.0333 -0.3288
18406TIP3    H176633   5.313   6.334   5.097 -0.4323 -1.7641  0.9268
18406TIP3    H276634   5.279   6.200   5.035 -1.6116 -0.3414 -1.5607
18407TIP3   OH276635   4.776   4.215   2.213  0.0777  0.7460  0.3459
18407TIP3    H176636   4.835   4.263   2.155  0.5072 -0.2356 -0.0501
18407TIP3    H276637   4.688   4.246   2.189  0.3980  1.8704  0.6223
18408TIP3   OH276638   4.271   0.611  14.214  0.0329  0.1999 -0.4949
18408TIP3    H176639   4.335   0.604  14.142 -2.0109 -1.0455 -2.2730
18408TIP3    H276640   4.254   0.520  14.239  0.4771  0.6165  1.3779
18409TIP3   OH276641   2.054   2.751   0.406 -0.6304  0.1585  0.5507
18409TIP3    H176642   2.087   2.724   0.320 -2.1476 -3.0264  0.8799
18409TIP3    H276643   2.062   2.846   0.406  4.4376 -0.1112 -0.9774
18410TIP3   OH276644   5.215   6.714  15.336  0.1864  0.2868  0.6311
18410TIP3    H176645   5.309   6.695  15.344  0.1836 -0.7536 -1.3803
18410TIP3    H276646   5.172   6.634  15.367 -0.0171  0.2747  0.3127
18411TIP3   OH276647   1.115   6.671  15.003  0.2472 -0.1624  0.3624
18411TIP3    H176648   1.025   6.643  15.020  0.5585 -1.4856 -0.0470
18411TIP3    H276649   1.139   6.723  15.079 -1.3770  1.4965 -0.2327
18412TIP3   OH276650   1.191   0.682   5.765  0.1009  0.3929 -0.2412
18412TIP3    H176651   1.104   0.671   5.803  0.5768 -1.5147  0.3691
18412TIP3    H276652   1.226   0.760   5.807 -0.4576 -0.1028  1.1699
18413TIP3   OH276653   5.759   2.208   0.606  0.4694  0.0154  0.0714
18413TIP3    H176654   5.813   2.161   0.669 -0.9247 -1.4999  0.1588
18413TIP3    H276655   5.669   2.178   0.623 -0.0158  0.1107 -2.1365
18414TIP3   OH276656   3.764   3.982  14.491  0.1914  0.4628  0.5920
18414TIP3    H176657   3.835   3.993  14.554 -0.0710 -0.4549  1.0515
18414TIP3    H276658   3.686   4.011  14.538  0.0389  0.0475  0.5962
18415TIP3   OH276659   3.332   5.762   1.589  0.2726 -0.4495 -0.4783
18415TIP3    H176660   3.414   5.715   1.598  0.4003 -0.1796 -0.2299
18415TIP3    H276661   3.352   5.833   1.528  0.0256 -0.8424 -1.0217
18416TIP3   OH276662   4.591   3.579   5.889 -0.2037 -0.1192 -0.6505
18416TIP3    H176663   4.576   3.560   5.796  0.7975  0.6278 -0.9691
18416TIP3    H276664   4.583   3.674   5.895 -0.0440 -0.1463 -0.0056
18417TIP3   OH276665   3.872   6.749   1.032  0.5344  0.0391  0.2735
18417TIP3    H176666   3.793   6.696   1.030  1.5106 -1.4240 -0.1386
18417TIP3    H276667   3.873   6.792   0.946  0.3005 -0.1052  0.1963
18418TIP3   OH276668   5.143   1.683   0.645 -0.0097 -0.1154  0.4436
18418TIP3    H176669   5.080   1.707   0.713 -0.2174  0.6616 -0.0210
18418TIP3    H276670   5.107   1.602   0.607 -0.0667 -0.3654  1.0256
18419TIP3   OH276671   1.973   4.004   3.526 -0.0297  0.3464  0.2137
18419TIP3    H176672   1.931   4.033   3.607 -0.8549  0.6489 -0.3101
18419TIP3    H276673   2.067   4.015   3.542 -0.1053 -1.0718  1.6703
18420TIP3   OH276674   4.576   2.988  14.160 -0.4782  0.2366  0.5585
18420TIP3    H176675   4.522   2.940  14.222  1.8991 -0.5239  2.1190
18420TIP3    H276676   4.539   2.968  14.074 -1.8863 -1.2655  1.5012
18421TIP3   OH276677   1.576   6.150  14.050 -0.4104 -0.0437  0.2742
18421TIP3    H176678   1.593   6.244  14.044  0.0759 -0.1106  0.6030
18421TIP3    H276679   1.630   6.112  13.980 -1.6283  0.0465 -0.7322
18422TIP3   OH276680   0.224   1.106  16.570 -0.2094  0.1529  0.2524
18422TIP3    H176681   0.207   1.178  16.632  0.6594  1.2804 -0.7941
18422TIP3    H276682   0.208   1.144  16.484 -0.4993 -1.1477 -0.2751
18423TIP3   OH276683   2.006   6.750   5.838  0.0291 -0.3212  0.0103
18423TIP3    H176684   1.968   6.806   5.905 -2.3893 -0.6902 -0.9669
18423TIP3    H276685   2.008   6.663   5.877 -0.7732 -0.4153 -0.1423
18424TIP3   OH276686   1.211   3.752   2.913  0.4241  0.1961  0.1260
18424TIP3    H176687   1.213   3.837   2.869 -2.4062  1.0269  1.4668
18424TIP3    H276688   1.119   3.741   2.940  1.1860 -2.2789  1.9058
18425TIP3   OH276689   4.539   3.834  16.808  0.8266  0.3453  0.0531
18425TIP3    H176690   4.577   3.922  16.812  0.4886  0.4358  1.4124
18425TIP3    H276691   4.489   3.825  16.889 -0.1700 -0.6380 -0.6550
18426TIP3   OH276692   1.655   5.361  11.251 -0.1840  0.7974  0.4573
18426TIP3    H176693   1.576   5.387  11.204  0.7409  2.1219 -0.3949
18426TIP3    H276694   1.727   5.398  11.200  0.9733 -0.1312  1.3899
18427TIP3   OH276695   5.869   0.137  11.871  0.3553  0.7076  0.1013
18427TIP3    H176696   5.912   0.213  11.909  1.2984 -0.0020  0.4811
18427TIP3    H276697   5.814   0.103  11.941 -0.9003  1.6421 -0.3986
18428TIP3   OH276698   1.270   6.320  14.387  0.0411  0.0144  0.2570
18428TIP3    H176699   1.301   6.325  14.477 -0.6482  0.6148  0.4722
18428TIP3    H276700   1.216   6.241  14.384 -0.2034  0.1748  0.4547
18429TIP3   OH276701   0.027   4.225   3.983 -0.2392  0.1837  0.0354
18429TIP3    H176702   0.030   4.234   4.078  0.5786 -1.7127  0.2231
18429TIP3    H276703   0.119   4.221   3.957 -0.4797 -1.5226 -0.5846
18430TIP3   OH276704   1.584   2.162  12.724  0.0919  0.3069  0.4484
18430TIP3    H176705   1.555   2.073  12.707 -0.1175  0.2400  1.1526
18430TIP3    H276706   1.634   2.156  12.806  0.5129  0.7417  0.2238
18431TIP3   OH276707   5.598   6.089   0.875  0.3132 -0.8405  0.2924
18431TIP3    H176708   5.603   6.175   0.834 -0.1956 -1.6725 -1.5800
18431TIP3    H276709   5.660   6.094   0.948  0.7003  0.9282 -0.1219
18432TIP3   OH276710   6.236   1.057   3.814  0.1816  0.4108 -0.1901
18432TIP3    H176711   6.182   0.985   3.844 -0.1657  0.3905 -0.8536
18432TIP3    H276712   6.232   1.122   3.885  0.5377 -0.2356  0.4233
18433TIP3   OH276713   0.213   2.640  16.979  0.5303 -0.4433 -0.0257
18433TIP3    H176714   0.200   2.657  16.886  0.4013 -0.7230 -0.0567
18433TIP3    H276715   0.294   2.685  17.001  0.0287  0.4929 -0.0461
18434TIP3   OH276716   6.656   0.990  11.990 -0.1457 -0.0090  0.1011
18434TIP3    H176717   6.713   1.021  12.060 -1.2843  0.8273  0.6849
18434TIP3    H276718   6.675   1.046  11.916 -1.6931  1.6755  0.9425
18435TIP3   OH276719   3.070   6.353   4.731  0.5177 -0.4996  0.3257
18435TIP3    H176720   3.140   6.363   4.795  0.5025 -2.2103  0.6354
18435TIP3    H276721   3.050   6.443   4.703  1.2118  0.1835  1.9594
18436TIP3   OH276722   2.840   4.428   0.903 -0.4806 -0.3756 -0.3924
18436TIP3    H176723   2.898   4.501   0.923 -0.3633 -0.0964 -1.7171
18436TIP3    H276724   2.769   4.436   0.967 -0.6108  1.0463 -0.7015
18437TIP3   OH276725   1.466   0.248  13.761  0.7583 -0.0113 -0.7278
18437TIP3    H176726   1.529   0.186  13.723  0.2509 -0.6642 -0.4997
18437TIP3    H276727   1.386   0.235  13.711  0.7129  0.6253 -0.8296
18438TIP3   OH276728   4.034   1.395   2.260  0.1519  0.1388 -0.6356
18438TIP3    H176729   3.991   1.310   2.273 -0.4202  0.4785 -0.3126
18438TIP3    H276730   4.123   1.372   2.234  0.7971 -0.5822  2.0557
18439TIP3   OH276731   3.829   2.721  14.243 -0.1666  0.1093 -0.0318
18439TIP3    H176732   3.844   2.670  14.164  0.9320 -0.4359  0.5247
18439TIP3    H276733   3.909   2.772  14.255 -1.1120  1.7056 -0.3823
18440TIP3   OH276734   2.601   0.597  15.468 -0.5244  0.4551 -0.1357
18440TIP3    H176735   2.581   0.691  15.466  1.9096  1.0036 -0.6778
18440TIP3    H276736   2.689   0.592  15.506 -1.0922 -1.7176  0.9660
18441TIP3   OH276737   3.324   5.935   1.373 -0.3181  0.5904 -0.5303
18441TIP3    H176738   3.416   5.958   1.386 -1.2966  3.4706  1.7058
18441TIP3    H276739   3.302   5.973   1.288  0.7835 -0.8730 -1.4785
18442TIP3   OH276740   0.680   2.335  11.528 -0.0966  0.5496  0.1274
18442TIP3    H176741   0.659   2.369  11.442 -0.5578  1.6156  0.6638
18442TIP3    H276742   0.605   2.281  11.552  0.0647  0.1909 -0.1569
18443TIP3   OH276743   6.570   3.485  13.183 -0.1728 -0.4737 -0.5640
18443TIP3    H176744   6.582   3.577  13.208  0.6737 -1.0565  1.2702
18443TIP3    H276745   6.507   3.488  13.111  0.8607  1.6345 -1.4173
18444TIP3   OH276746   4.475   5.108  10.824 -0.2422  0.5860 -0.2139
18444TIP3    H176747   4.407   5.160  10.866  0.4575 -0.7260  2.6690
18444TIP3    H276748   4.557   5.150  10.849  0.1708  0.0887 -0.7092
18445TIP3   OH276749   0.212   5.089   0.709 -0.0617 -0.1614  0.3386
18445TIP3    H176750   0.276   5.066   0.642  0.5481 -0.1533  0.9081
18445TIP3    H276751   0.257   5.154   0.763 -0.4042 -0.4578  0.9859
18446TIP3   OH276752   4.275   1.172  11.191  0.7073  1.1696  0.1891
18446TIP3    H176753   4.199   1.115  11.178  1.1898  0.2100  1.4921
18446TIP3    H276754   4.289   1.214  11.106 -1.1443  1.1856 -0.1185
18447TIP3   OH276755   3.281   2.455   5.604 -0.5029 -0.0726  0.5720
18447TIP3    H176756   3.313   2.539   5.636 -2.5463  1.1613 -0.5850
18447TIP3    H276757   3.186   2.459   5.615 -0.5007 -2.8670  2.0132
18448TIP3   OH276758   5.869   5.623  12.682  0.2952 -0.0815  0.0401
18448TIP3    H176759   5.916   5.702  12.655  0.2336 -0.0609 -0.0073
18448TIP3    H276760   5.776   5.645  12.670  0.2486  0.0812  0.6865
18449TIP3   OH276761   4.155   6.701   2.501  0.0562  0.1492 -0.3966
18449TIP3    H176762   4.184   6.627   2.554  0.5201  0.6454  0.0327
18449TIP3    H276763   4.227   6.763   2.504 -0.6068  0.9155 -0.2086
18450TIP3   OH276764   2.656   5.645   1.190 -0.0754  0.2405 -0.8358
18450TIP3    H176765   2.690   5.672   1.105 -0.9866  2.1147 -0.6370
18450TIP3    H276766   2.721   5.675   1.253 -1.0061  1.8758 -0.6275
18451TIP3   OH276767   5.146   2.479  16.615 -0.1963  0.3185  0.2664
18451TIP3    H176768   5.154   2.412  16.683 -0.5281 -0.3212 -0.3315
18451TIP3    H276769   5.078   2.447  16.556 -0.1667  1.0474 -0.1742
18452TIP3   OH276770   2.867   0.312   2.242  0.6641 -0.4047  0.1213
18452TIP3    H176771   2.780   0.302   2.282  0.0767  1.7671 -0.5820
18452TIP3    H276772   2.906   0.225   2.249 -2.1247 -1.7764 -0.8659
18453TIP3   OH276773   1.480   0.594  17.016  0.6764 -0.7360  0.3120
18453TIP3    H176774   1.427   0.665  17.051 -1.2476  0.0537 -3.9914
18453TIP3    H276775   1.438   0.514  17.050  0.0205  0.0386  1.3452
18454TIP3   OH276776   6.634   1.289  16.498  0.0273  0.2831  0.8757
18454TIP3    H176777   6.554   1.238  16.487 -0.9351  1.3516  2.7432
18454TIP3    H276778   6.680   1.280  16.414 -1.9370 -0.5137 -0.1447
18455TIP3   OH276779   4.290   4.726   3.046  0.2539  0.5704 -0.4182
18455TIP3    H176780   4.361   4.761   2.992 -0.6464  1.1905 -1.2225
18455TIP3    H276781   4.232   4.800   3.060 -0.6893 -0.1329 -0.5165
18456TIP3   OH276782   6.576   3.246  13.505 -0.0224  0.5957  0.2897
18456TIP3    H176783   6.614   3.302  13.437  0.1788  0.7986  0.5682
18456TIP3    H276784   6.590   3.157  13.473  1.2185  0.6411  0.6594
18457TIP3   OH276785   5.816   4.160   0.610 -0.3142  0.2600 -0.0656
18457TIP3    H176786   5.745   4.224   0.602  0.4128  1.0496 -0.2000
18457TIP3    H276787   5.885   4.206   0.658  0.2683 -0.3683 -0.2891
18458TIP3   OH276788   4.010   5.223  13.421  0.6376  0.2216 -0.0491
18458TIP3    H176789   3.948   5.242  13.351 -0.5493  0.9222  1.1864
18458TIP3    H276790   3.988   5.135  13.450 -0.0274  0.6110  0.6382
18459TIP3   OH276791   2.372   5.895   5.109 -0.1606  0.1250  0.0159
18459TIP3    H176792   2.459   5.935   5.102 -0.8471  1.2373 -2.7866
18459TIP3    H276793   2.385   5.805   5.082  0.2930  0.0140  0.5834
18460TIP3   OH276794   6.641   1.665   4.683  0.0069 -0.4445  0.0152
18460TIP3    H176795   6.576   1.676   4.613 -0.4337  0.6993  0.5871
18460TIP3    H276796   6.713   1.722   4.658 -0.1051 -0.1166  0.4220
18461TIP3   OH276797   5.400   4.587   6.003 -0.0220 -0.1249 -0.5067
18461TIP3    H176798   5.430   4.661   5.950 -0.9452 -0.6287 -1.7486
18461TIP3    H276799   5.330   4.624   6.057 -3.0000 -0.8350 -3.6978
18462TIP3   OH276800   6.618   6.558   1.107 -0.1850 -0.2390 -0.1921
18462TIP3    H176801   6.607   6.546   1.201  1.8316 -3.2098 -0.2708
18462TIP3    H276802   6.542   6.513   1.068 -0.1857 -0.3680 -0.0420
18463TIP3   OH276803   2.694   3.783  12.213  0.4759 -0.1194 -0.1041
18463TIP3    H176804   2.692   3.879  12.205 -2.2207 -0.2164 -1.4099
18463TIP3    H276805   2.648   3.765  12.295  1.5213 -0.2996  0.4537
18464TIP3   OH276806   1.875   0.198  15.030 -0.3862 -0.8151 -0.0693
18464TIP3    H176807   1.845   0.114  14.993  1.1736 -1.5478  0.3007
18464TIP3    H276808   1.801   0.230  15.081 -1.0684 -1.8750 -0.3913
18465TIP3   OH276809   0.684   1.237   0.036 -0.1471  0.2939  0.1690
18465TIP3    H176810   0.736   1.169   0.077 -0.9439 -0.0539  0.6199
18465TIP3    H276811   0.702   1.229  -0.058  0.7792  0.3308  0.3443
18466TIP3   OH276812   5.742   3.215  15.722  0.1424 -0.4309  0.1928
18466TIP3    H176813   5.744   3.123  15.698 -1.6962 -0.5014  0.2877
18466TIP3    H276814   5.824   3.229  15.770  0.6778 -1.8710 -0.2825
18467TIP3   OH276815   3.515   3.426  13.281 -0.5166  0.0273  0.1194
18467TIP3    H176816   3.599   3.465  13.256 -0.7023  0.4404  0.1440
18467TIP3    H276817   3.538   3.341  13.319 -0.1375 -0.0322 -0.2433
18468TIP3   OH276818   1.976   3.161   0.723  0.7136  0.5163 -0.2010
18468TIP3    H176819   2.010   3.076   0.695 -0.5220 -0.0971  0.1312
18468TIP3    H276820   1.953   3.148   0.815  0.6172  1.2336 -0.1252
18469TIP3   OH276821   6.395   1.037  12.196  0.2994 -0.2228 -0.1039
18469TIP3    H176822   6.435   1.090  12.127 -0.3901  0.9334  0.3766
18469TIP3    H276823   6.458   0.966  12.211  1.7863  1.1263  0.0874
18470TIP3   OH276824   2.748   5.875   4.560 -0.8747  0.2856 -0.3752
18470TIP3    H176825   2.716   5.871   4.650  2.8660 -1.0896  1.0069
18470TIP3    H276826   2.708   5.800   4.517 -2.6768  0.9400  0.1137
18471TIP3   OH276827   5.081   2.847  13.272 -0.4289 -0.8599  0.1461
18471TIP3    H176828   5.060   2.760  13.308 -0.1196 -0.8396  0.3804
18471TIP3    H276829   5.022   2.856  13.197 -0.8005 -1.0728  0.4052
18472TIP3   OH276830   1.855   4.610   4.129 -0.5023 -0.1954  0.2892
18472TIP3    H176831   1.852   4.631   4.223  2.1250  0.3991  0.2849
18472TIP3    H276832   1.920   4.670   4.093 -0.7123 -1.1434 -1.7364
18473TIP3   OH276833   6.010   0.409  11.728 -0.0991  0.3143  0.2906
18473TIP3    H176834   5.918   0.409  11.702  0.0614 -1.1618 -0.3429
18473TIP3    H276835   6.009   0.390  11.821 -0.4844  1.4422  0.5205
18474TIP3   OH276836   2.962   5.813   2.127 -0.6474  0.1205  0.3891
18474TIP3    H176837   2.963   5.896   2.175 -0.0399  1.4541 -1.8124
18474TIP3    H276838   3.052   5.781   2.134 -0.7024  0.0186  0.6332
18475TIP3   OH276839   0.280   4.577  16.994 -0.1017  0.8124 -0.4918
18475TIP3    H176840   0.268   4.531  17.077  2.7089  0.4040 -0.2441
18475TIP3    H276841   0.264   4.669  17.016 -1.1463  0.4930  0.0923
18476TIP3   OH276842   4.895   6.528   1.861  0.0594  0.7545  0.1330
18476TIP3    H176843   4.912   6.528   1.767  1.2515  1.0336  0.3349
18476TIP3    H276844   4.826   6.463   1.873  1.2504 -0.7185 -0.7089
18477TIP3   OH276845   2.539   4.338   0.869 -0.3983 -0.7862  0.5441
18477TIP3    H176846   2.451   4.302   0.873 -1.5432  1.6772 -1.4216
18477TIP3    H276847   2.539   4.410   0.931  0.4443 -1.1669  0.9994
18478TIP3   OH276848   6.532   4.169   1.153  0.7434  0.3458 -0.1945
18478TIP3    H176849   6.460   4.220   1.191 -0.5444 -1.3039 -0.3254
18478TIP3    H276850   6.511   4.164   1.060  0.6514 -0.6797 -0.1343
18479TIP3   OH276851   2.944   0.125   3.089 -0.3000 -0.8849  0.0773
18479TIP3    H176852   2.850   0.141   3.084  0.1467  1.8313 -0.6963
18479TIP3    H276853   2.975   0.141   2.999  0.9052 -1.6494  0.3523
18480TIP3   OH276854   6.213   4.090   3.445  0.1200  0.2140  0.1102
18480TIP3    H176855   6.144   4.150   3.415 -0.4887 -0.5213  0.0235
18480TIP3    H276856   6.265   4.142   3.507  0.9882  1.5516 -1.6900
18481TIP3   OH276857   3.011   1.079  13.211  0.4391 -0.5643 -0.1146
18481TIP3    H176858   3.026   1.010  13.147 -1.6990 -0.5997 -0.6408
18481TIP3    H276859   2.917   1.076  13.227 -0.0266  3.3192 -1.4707
18482TIP3   OH276860   2.559   3.180  11.197 -0.2935 -0.1754 -0.3686
18482TIP3    H176861   2.613   3.197  11.120 -0.6529 -0.9254 -0.7914
18482TIP3    H276862   2.490   3.246  11.193  0.3645  0.5427 -0.0333
18483TIP3   OH276863   0.957   5.262  11.200  0.8529 -0.2953 -0.2706
18483TIP3    H176864   0.967   5.214  11.118 -2.7363  0.8971 -1.4971
18483TIP3    H276865   0.942   5.353  11.174 -0.0786  0.1405  1.6925
18484TIP3   OH276866   2.792   6.586   4.297 -0.2129 -0.0454  0.4531
18484TIP3    H176867   2.885   6.594   4.317 -0.2635  1.3774  0.1669
18484TIP3    H276868   2.784   6.624   4.209 -1.4399  2.0389  1.4402
18485TIP3   OH276869   0.058   5.020   5.409 -0.3479 -0.2338  0.2503
18485TIP3    H176870   0.051   5.099   5.355  1.3896 -2.1182 -2.8988
18485TIP3    H276871   0.151   5.014   5.430 -0.8047 -0.2981  2.3143
18486TIP3   OH276872   6.556   6.721  11.156 -0.6294  0.2419 -0.0525
18486TIP3    H176873   6.635   6.745  11.204  0.1413 -0.3332 -1.0153
18486TIP3    H276874   6.588   6.689  11.071 -1.8900 -0.0032 -0.4467
18487TIP3   OH276875   1.049   4.331  11.108 -0.2361 -0.6674 -0.0912
18487TIP3    H176876   1.076   4.348  11.018  0.3019 -0.9971  0.0083
18487TIP3    H276877   1.055   4.416  11.151  0.7098 -0.7504 -0.0554
18488TIP3   OH276878   0.373   2.471   0.862  0.7353 -0.4789 -0.3842
18488TIP3    H176879   0.424   2.411   0.916 -0.9874 -2.0639 -0.4733
18488TIP3    H276880   0.434   2.501   0.794  1.5534 -2.3215 -0.4877
18489TIP3   OH276881   5.099   2.631   1.677 -0.0166 -0.2255  0.0942
18489TIP3    H176882   5.184   2.592   1.697  0.0124 -0.7153 -0.9440
18489TIP3    H276883   5.040   2.596   1.743  0.3817 -0.6657  0.2170
18490TIP3   OH276884   6.204   0.001  13.139  0.1592  0.2295  0.1320
18490TIP3    H176885   6.200   0.095  13.156  0.6342  0.6608 -2.0018
18490TIP3    H276886   6.246  -0.035  13.216 -1.0152  1.6255  1.4651
18491TIP3   OH276887   3.542   5.820  16.469 -0.6289  0.7523 -0.0832
18491TIP3    H176888   3.585   5.811  16.384  0.1010 -0.1014  0.3752
18491TIP3    H276889   3.610   5.856  16.527 -0.8070  0.3023  0.4103
18492TIP3   OH276890   5.286   3.269   3.569  0.5155 -0.7371 -0.3372
18492TIP3    H176891   5.358   3.253   3.629  1.7335  0.5657 -1.3946
18492TIP3    H276892   5.226   3.325   3.618  2.6095  2.2414 -1.0183
18493TIP3   OH276893   5.115   2.702   0.968  0.0821  0.6938  0.2590
18493TIP3    H176894   5.129   2.657   0.885  0.8658 -0.5385  1.0400
18493TIP3    H276895   5.197   2.748   0.985  0.0280  0.7133  0.4723
18494TIP3   OH276896   5.113   0.181  15.960 -0.1891  0.2823  0.2699
18494TIP3    H176897   5.036   0.231  15.986 -0.9698 -1.1674  0.8364
18494TIP3    H276898   5.155   0.157  16.043  0.5171  0.5467 -0.0178
18495TIP3   OH276899   3.860   0.739   0.544 -0.3079  0.5401  0.9396
18495TIP3    H176900   3.854   0.717   0.637 -2.7614  1.5836  1.0695
18495TIP3    H276901   3.835   0.659   0.498 -4.1415  1.4325  1.3140
18496TIP3   OH276902   0.022   5.731   2.452 -0.6998 -0.9955 -0.4453
18496TIP3    H176903   0.015   5.659   2.389 -0.9603 -0.2628 -1.2521
18496TIP3    H276904  -0.022   5.697   2.530 -0.7806 -1.7369 -0.7989
18497TIP3   OH276905   5.511   0.370   1.335  0.2107 -0.3608  0.1810
18497TIP3    H176906   5.521   0.462   1.358  0.2733 -0.7878  1.8917
18497TIP3    H276907   5.419   0.361   1.309 -0.1048 -0.0597  1.1760
18498TIP3   OH276908   1.385   4.926   3.109  0.1295  0.2625  0.1244
18498TIP3    H176909   1.415   4.960   3.193  1.1746 -1.7224  0.5749
18498TIP3    H276910   1.293   4.954   3.104  0.1943  0.8198  1.7137
18499TIP3   OH276911   5.276   6.655  10.570 -0.0009 -0.0489  0.5044
18499TIP3    H176912   5.290   6.744  10.602 -0.0182  0.6048 -1.2576
18499TIP3    H276913   5.299   6.659  10.477  1.0475 -2.1348  0.6355
18500TIP3   OH276914   4.614   0.796   1.206  0.0233 -0.9069 -0.2473
18500TIP3    H176915   4.552   0.792   1.278  0.5175 -0.5001  0.2061
18500TIP3    H276916   4.560   0.792   1.127 -0.7277  1.1247  0.1321
18501TIP3   OH276917   5.103   4.140   5.389 -0.2914 -0.3145 -0.3038
18501TIP3    H176918   5.011   4.166   5.399 -1.0736 -2.1861 -2.1830
18501TIP3    H276919   5.133   4.126   5.479 -1.7466  0.6173  0.3520
18502TIP3   OH276920   1.883   5.747  11.326  0.8168  0.1709  0.1002
18502TIP3    H176921   1.906   5.834  11.296  0.9947 -0.4410 -1.6333
18502TIP3    H276922   1.808   5.760  11.384 -1.1780  1.2360 -2.6039
18503TIP3   OH276923   6.458   3.803   5.545  0.5791  0.3848 -0.4170
18503TIP3    H176924   6.480   3.809   5.637  0.9452 -0.5074 -0.4423
18503TIP3    H276925   6.481   3.888   5.508  1.5911  0.3215  0.0642
18504TIP3   OH276926   0.957   1.532   0.295 -0.1439 -0.2808  0.2002
18504TIP3    H176927   0.973   1.563   0.205  0.1423 -2.0897 -0.3917
18504TIP3    H276928   0.869   1.564   0.316  0.1843  1.0355 -0.3251
18505TIP3   OH276929   6.620   2.835  12.750  0.3259  0.1152 -0.1931
18505TIP3    H176930   6.703   2.883  12.742 -0.6292  1.8177 -0.0773
18505TIP3    H276931   6.618   2.805  12.840  0.3159  1.0269  0.1156
18506TIP3   OH276932   5.372   2.302   5.317  0.0739 -1.0996  0.0460
18506TIP3    H176933   5.425   2.360   5.372  2.6686 -2.2710 -1.1395
18506TIP3    H276934   5.311   2.361   5.273  1.7940  0.5918 -0.1592
18507TIP3   OH276935   3.637   5.905  11.018  0.6068  0.2206 -0.1260
18507TIP3    H176936   3.608   5.928  10.930 -0.2690  0.9644  0.3456
18507TIP3    H276937   3.646   5.809  11.016  0.2087  0.1950 -0.9032
18508TIP3   OH276938   5.774   3.345   4.803  0.0542 -0.2153 -0.6362
18508TIP3    H176939   5.718   3.372   4.875  0.5923  0.8477 -0.6095
18508TIP3    H276940   5.774   3.420   4.743  0.5386 -0.6431 -1.1747
18509TIP3   OH276941   0.152   1.623   5.475 -0.1223  0.2795 -0.4526
18509TIP3    H176942   0.211   1.571   5.529 -1.1594  0.1230  0.5233
18509TIP3    H276943   0.165   1.713   5.505  0.0788  0.3232 -0.6681
18510TIP3   OH276944   0.764   5.261   3.904  0.0782  0.1851 -0.0693
18510TIP3    H176945   0.741   5.168   3.904  0.7392 -0.0209 -2.9107
18510TIP3    H276946   0.815   5.273   3.985  1.4070 -2.3133 -0.4795
18511TIP3   OH276947   5.747   0.243  10.751 -0.1770 -0.2233  0.1718
18511TIP3    H176948   5.801   0.311  10.712 -0.1143  0.3383  1.2225
18511TIP3    H276949   5.786   0.161  10.720  0.9041  0.1868  0.4267
18512TIP3   OH276950   5.850   6.344   2.466 -0.1244 -0.1541  0.1542
18512TIP3    H176951   5.780   6.325   2.529  0.9178 -1.2044  1.0133
18512TIP3    H276952   5.825   6.295   2.388 -0.7636  0.1255  0.1781
18513TIP3   OH276953   5.630   0.372   2.279  0.4158 -0.5112 -0.4475
18513TIP3    H176954   5.655   0.465   2.275 -1.9288  0.2525  1.0639
18513TIP3    H276955   5.667   0.341   2.361  0.5081 -0.6847 -0.5557
18514TIP3   OH276956   0.312   0.874  11.229 -1.2478 -0.3841 -0.3147
18514TIP3    H176957   0.383   0.846  11.170  0.8422 -0.4614  2.1405
18514TIP3    H276958   0.320   0.969  11.232  0.1166 -0.5219  1.5299
18515TIP3   OH276959   0.630   5.033  13.200 -0.4974  0.5730 -0.2666
18515TIP3    H176960   0.592   4.966  13.257 -0.3930  0.7392  0.0000
18515TIP3    H276961   0.617   5.115  13.247 -0.5456  0.7295 -0.5540
18516TIP3   OH276962   2.281   1.641  14.491 -0.3383 -0.1632  0.2999
18516TIP3    H176963   2.332   1.713  14.528  1.1212  0.3770 -2.6597
18516TIP3    H276964   2.241   1.678  14.413 -1.7059 -1.8572  0.1799
18517TIP3   OH276965   4.915   4.033  10.934 -0.6122 -0.2539  0.2040
18517TIP3    H176966   4.909   4.122  10.898 -0.1055 -0.7084 -1.0191
18517TIP3    H276967   4.902   4.045  11.028 -1.2785  1.0353 -0.0310
18518TIP3   OH276968   4.076   4.480  11.535  0.2099  0.1985  0.3606
18518TIP3    H176969   4.077   4.547  11.468  1.3769  0.8044  0.9682
18518TIP3    H276970   4.112   4.402  11.492 -0.1974  0.2324 -0.0493
18519TIP3   OH276971   6.613   3.709   2.934  0.0840  0.2848 -0.1673
18519TIP3    H176972   6.544   3.671   2.880 -0.2374  1.2740 -0.4683
18519TIP3    H276973   6.576   3.713   3.022  0.4668 -0.9754  0.0522
18520TIP3   OH276974   0.837   4.626   0.833 -1.1017 -0.0269 -0.0034
18520TIP3    H176975   0.918   4.577   0.845 -1.2129 -0.4624 -1.0369
18520TIP3    H276976   0.855   4.711   0.873  0.9157  0.9512 -2.8285
18521TIP3   OH276977   6.087   6.102   3.962 -0.0482  0.0563  0.4769
18521TIP3    H176978   6.052   6.191   3.950 -0.6367  0.0223  1.8338
18521TIP3    H276979   6.173   6.105   3.920  0.2753  1.5070  1.1987
18522TIP3   OH276980   5.381   1.598   2.145  0.1964  0.1148 -0.3108
18522TIP3    H176981   5.347   1.666   2.087  0.8485 -0.9714 -1.9907
18522TIP3    H276982   5.325   1.603   2.223 -1.3450  0.9066 -1.4440
18523TIP3   OH276983   1.582   0.171   3.631 -0.0975  0.0428 -0.1890
18523TIP3    H176984   1.674   0.149   3.617 -0.2484 -0.9128  0.2974
18523TIP3    H276985   1.578   0.197   3.723 -0.5320 -1.0274  0.0901
18524TIP3   OH276986   1.044   3.464  11.935 -0.4417  0.5560  0.1755
18524TIP3    H176987   1.095   3.385  11.953 -0.6641  0.6301  1.2027
18524TIP3    H276988   1.044   3.511  12.019 -0.4486  1.5619 -0.3831
18525TIP3   OH276989   3.466   1.951   3.010  0.1081  0.1461  0.1852
18525TIP3    H176990   3.490   1.863   2.981  1.8180  1.0294 -1.1715
18525TIP3    H276991   3.459   1.943   3.105  0.3465 -1.4410  0.0893
18526TIP3   OH276992   3.419   3.444   4.647 -0.0811 -0.2530 -0.0203
18526TIP3    H176993   3.494   3.471   4.594  0.0865 -3.0390 -1.2647
18526TIP3    H276994   3.343   3.483   4.603  0.2586 -0.8299 -1.1373
18527TIP3   OH276995   4.684   5.417  14.606  0.4391 -0.0775 -0.2355
18527TIP3    H176996   4.751   5.430  14.672 -0.3520 -0.7048  0.6945
18527TIP3    H276997   4.605   5.456  14.643  0.2733  0.6617 -1.3224
18528TIP3   OH276998   0.462   1.838   2.937  0.5544  0.0281 -0.6596
18528TIP3    H176999   0.484   1.899   3.008 -1.0012  0.6082 -0.6550
18528TIP3    H277000   0.494   1.881   2.858 -0.2937  0.7439 -0.6230
18529TIP3   OH277001   4.839   5.195  13.943 -0.1749  0.0143  0.1104
18529TIP3    H177002   4.870   5.244  13.867  0.2523 -0.0372  0.2476
18529TIP3    H277003   4.850   5.103  13.918 -0.5580 -0.0051  0.0205
18530TIP3   OH277004   4.013   6.451  11.406 -0.0142  0.2883 -0.5391
18530TIP3    H177005   4.077   6.469  11.475  1.2027  0.2471 -1.6415
18530TIP3    H277006   3.965   6.533  11.396 -1.5772 -0.2992  1.7391
18531TIP3   OH277007   5.104   1.910   4.120  0.2537 -0.2194 -0.0161
18531TIP3    H177008   5.050   1.941   4.047  0.7696 -2.3030 -1.3271
18531TIP3    H277009   5.053   1.931   4.198 -0.9508  0.7755 -1.0432
18532TIP3   OH277010   4.476   5.986  14.216 -0.2727  0.1833 -0.0558
18532TIP3    H177011   4.415   6.059  14.219 -0.9797 -0.3103 -1.6781
18532TIP3    H277012   4.563   6.028  14.216 -0.6798  1.1832 -3.0322
18533TIP3   OH277013   2.898   1.078  16.927 -0.3616  0.1523  0.5736
18533TIP3    H177014   2.966   1.082  16.995 -0.5677 -0.6643  0.8405
18533TIP3    H277015   2.935   1.019  16.861 -1.7789 -2.2456  1.8556
18534TIP3   OH277016   3.849   0.460  16.133 -0.6706  0.4746 -0.0485
18534TIP3    H177017   3.890   0.373  16.132 -0.4196  0.5923 -0.2223
18534TIP3    H277018   3.839   0.480  16.226 -0.0380  0.5760  0.0005
18535TIP3   OH277019   0.414   6.025   5.970  0.0471 -0.7420 -0.2702
18535TIP3    H177020   0.498   6.072   5.970  1.4484 -3.1544 -0.2673
18535TIP3    H277021   0.416   5.973   5.889 -0.6862 -2.1276  0.5888
18536TIP3   OH277022   5.356   2.079   2.774 -0.6872  0.2168 -0.2068
18536TIP3    H177023   5.346   2.117   2.861  0.7972 -0.4641  0.2779
18536TIP3    H277024   5.424   2.133   2.733 -0.8480  0.0696 -0.6666
18537TIP3   OH277025   0.572   0.292  14.257  0.4338  0.5909  0.3021
18537TIP3    H177026   0.652   0.268  14.305 -0.3311  0.2201  1.4245
18537TIP3    H277027   0.599   0.361  14.198  1.7414  0.0059  0.1968
18538TIP3   OH277028   0.842   0.479  11.303 -0.3650 -0.3161  0.1671
18538TIP3    H177029   0.859   0.566  11.267  0.3161 -0.3301  0.4329
18538TIP3    H277030   0.930   0.442  11.316 -0.6293 -0.6403  1.0294
18539TIP3   OH277031   6.015   2.594   5.450 -0.0149 -0.2239  0.0666
18539TIP3    H177032   6.097   2.609   5.498 -0.0804  1.0515 -0.1921
18539TIP3    H277033   6.038   2.614   5.359 -0.7725  0.7134  0.0846
18540TIP3   OH277034   0.697   4.285  13.379 -0.4418  0.4714 -0.5054
18540TIP3    H177035   0.744   4.258  13.300  1.6467 -2.1195  1.5166
18540TIP3    H277036   0.622   4.226  13.383  1.5449 -2.0404  1.3982
18541TIP3   OH277037   5.242   1.549  12.641 -0.5065 -0.1085  0.3181
18541TIP3    H177038   5.217   1.467  12.683 -0.0410 -0.8055 -0.7445
18541TIP3    H277039   5.184   1.615  12.680 -1.0253 -0.9714  1.0168
18542TIP3   OH277040   0.769   3.123   1.943  0.7840 -0.1698  0.1126
18542TIP3    H177041   0.862   3.101   1.940  0.5716 -1.0627 -0.1463
18542TIP3    H277042   0.766   3.214   1.973  1.7494 -0.0514 -0.1413
18543TIP3   OH277043   4.320   0.244   0.596  0.0373 -0.0355  0.2139
18543TIP3    H177044   4.393   0.220   0.539  0.5468  0.5042  0.6277
18543TIP3    H277045   4.360   0.258   0.682 -0.2589  2.0212  0.0484
18544TIP3   OH277046   0.753   3.972   0.239  0.4940 -0.0914  0.0710
18544TIP3    H177047   0.804   3.932   0.168 -2.3475 -0.1028 -2.0637
18544TIP3    H277048   0.802   4.050   0.264  1.6571 -0.2144 -1.7656
18545TIP3   OH277049   3.417   4.883   1.466  0.0441  0.1859 -0.0610
18545TIP3    H177050   3.446   4.796   1.441  0.4257  0.1890  0.3429
18545TIP3    H277051   3.493   4.939   1.450  0.0719  0.2999  0.4325
18546TIP3   OH277052   4.613   0.309   0.405 -0.7166 -0.4967  0.1007
18546TIP3    H177053   4.546   0.368   0.371 -0.9681 -0.1789  1.1168
18546TIP3    H277054   4.577   0.221   0.392 -0.9065 -0.3661 -0.2442
18547TIP3   OH277055   6.540   2.236   4.401  0.0988 -0.5636 -0.0037
18547TIP3    H177056   6.611   2.185   4.361  0.9403  1.5591 -1.2490
18547TIP3    H277057   6.466   2.225   4.341  0.4407  0.1226 -0.5509
18548TIP3   OH277058   1.170   0.994  17.118 -0.4654  0.2797 -0.1260
18548TIP3    H177059   1.232   1.037  17.060 -3.2386  2.6994 -1.4355
18548TIP3    H277060   1.147   0.913  17.074  0.5176  0.1452 -0.3984
18549TIP3   OH277061   0.181   0.659  15.389  0.0153  0.8315 -0.3519
18549TIP3    H177062   0.191   0.743  15.344 -0.2262  0.1116 -1.7824
18549TIP3    H277063   0.253   0.606  15.356  0.4998  0.6422  0.9717
18550TIP3   OH277064   5.220   0.575   0.869  0.2465  0.6388  0.7395
18550TIP3    H177065   5.211   0.645   0.804  0.9496  0.3694  0.3537
18550TIP3    H277066   5.302   0.531   0.847 -0.1097 -0.2140  1.0733
18551TIP3   OH277067   1.503   2.398   1.127  0.2804 -0.5653  0.1004
18551TIP3    H177068   1.517   2.327   1.065 -1.0885 -1.0090  0.2696
18551TIP3    H277069   1.415   2.430   1.106 -0.5020 -1.2216  2.2955
18552TIP3   OH277070   6.270   6.665  15.087 -0.1330  0.1978  0.3502
18552TIP3    H177071   6.334   6.696  15.022 -0.5220  0.1646 -0.0459
18552TIP3    H277072   6.312   6.682  15.172  0.0766  0.8899  0.1097
18553TIP3   OH277073   4.287   3.603   3.843 -0.6520  0.2347 -0.4003
18553TIP3    H177074   4.221   3.548   3.801 -0.1718 -0.6794  0.0340
18553TIP3    H277075   4.250   3.691   3.841 -1.9785 -0.3060  0.0563
18554TIP3   OH277076   3.157   0.888   4.355 -0.1029 -0.4457  0.7582
18554TIP3    H177077   3.082   0.923   4.307  0.7051  0.6896  0.3020
18554TIP3    H277078   3.121   0.860   4.439 -1.1005 -0.2553  0.4001
18555TIP3   OH277079   2.709   3.935  16.830  0.9935  0.1116 -0.6469
18555TIP3    H177080   2.790   3.977  16.861  2.2251 -2.5735 -0.1158
18555TIP3    H277081   2.729   3.907  16.741 -0.1124  1.3107 -1.3026
18556TIP3   OH277082   1.041   1.095   1.687  0.4349 -0.5595  0.4019
18556TIP3    H177083   0.992   1.022   1.724 -1.5667  0.2542 -0.6101
18556TIP3    H277084   1.090   1.057   1.614 -0.7121 -0.8490 -0.2151
18557TIP3   OH277085   2.588   6.396  11.496  0.2766 -0.3714  0.0579
18557TIP3    H177086   2.522   6.461  11.472 -0.9707 -0.9223  1.9021
18557TIP3    H277087   2.637   6.381  11.415 -1.9642 -0.0766 -1.4058
18558TIP3   OH277088   5.441   6.070   1.324 -0.5022  0.2913  0.0529
18558TIP3    H177089   5.358   6.026   1.342  0.6558 -2.2049 -0.4189
18558TIP3    H277090   5.473   6.098   1.410 -1.3268  0.3053  0.3547
18559TIP3   OH277091   4.190   1.700  13.173 -0.0281  0.2503  0.0489
18559TIP3    H177092   4.117   1.692  13.112 -1.0406 -0.5419  1.3245
18559TIP3    H277093   4.265   1.662  13.126 -1.2324 -2.1773  0.0061
18560TIP3   OH277094   4.752   3.940  11.427  0.3657 -0.1669 -0.2296
18560TIP3    H177095   4.761   4.027  11.388 -0.0292 -0.1902 -0.3698
18560TIP3    H277096   4.827   3.891  11.394  0.8795  0.2726  0.2588
18561TIP3   OH277097   2.569   3.211  13.795 -0.2567  1.0701 -0.3278
18561TIP3    H177098   2.656   3.238  13.824 -0.1447  1.3264 -0.9072
18561TIP3    H277099   2.524   3.185  13.876  0.2881  1.1238 -0.0064
18562TIP3   OH277100   2.810   5.322   4.858  0.3581 -0.2555 -0.2818
18562TIP3    H177101   2.726   5.343   4.899 -0.0131  0.6783 -1.5081
18562TIP3    H277102   2.787   5.272   4.779  0.8772  1.1024 -1.3162
18563TIP3   OH277103   1.505   5.999  15.952  0.5161 -0.4762 -0.5674
18563TIP3    H177104   1.587   6.048  15.941 -0.7155  1.6912 -0.3235
18563TIP3    H277105   1.526   5.910  15.922  2.5369  0.4450 -1.9760
18564TIP3   OH277106   2.836   6.503  12.448  0.2979  0.1999  0.2955
18564TIP3    H177107   2.763   6.449  12.416 -0.0399  0.0648  1.2931
18564TIP3    H277108   2.795   6.562  12.511  0.6638  1.6374 -0.7980
18565TIP3   OH277109   0.013   4.111  16.812 -0.3623 -0.8217  0.7878
18565TIP3    H177110  -0.008   4.132  16.721 -0.4032 -0.2408  0.9283
18565TIP3    H277111   0.109   4.111  16.815 -0.3427  0.7655  1.0847
18566TIP3   OH277112   2.892   1.895   1.688 -0.2354  0.8076 -0.5945
18566TIP3    H177113   2.936   1.946   1.620 -0.9373  1.5539 -0.4852
18566TIP3    H277114   2.809   1.940   1.702 -0.7292 -0.1955 -0.2915
18567TIP3   OH277115   6.540   4.046  12.999  0.3645  0.9212  0.8664
18567TIP3    H177116   6.604   3.977  13.011 -0.2245  0.0903 -0.5675
18567TIP3    H277117   6.591   4.124  12.981  0.9806  0.1362 -0.8793
18568TIP3   OH277118   2.396   3.885  16.863 -0.9847 -0.1489 -0.3167
18568TIP3    H177119   2.318   3.884  16.807 -1.6259 -0.3636  0.5707
18568TIP3    H277120   2.403   3.976  16.892 -3.0833 -0.8450  2.5814
18569TIP3   OH277121   1.799   4.890  15.433  0.5544  0.3711  0.0827
18569TIP3    H177122   1.871   4.831  15.458  0.6306  0.3103 -0.2735
18569TIP3    H277123   1.741   4.890  15.509 -0.3069 -1.4819 -0.5388
18570TIP3   OH277124   4.413   5.085  13.668 -0.6874 -0.3330 -0.1704
18570TIP3    H177125   4.348   5.142  13.709  0.5602 -0.4207  1.9758
18570TIP3    H277126   4.361   5.016  13.627 -1.9769 -0.1741  1.1498
18571TIP3   OH277127   2.043   2.047   1.304 -0.3136 -0.0296 -0.1106
18571TIP3    H177128   2.026   2.116   1.368 -0.6834  0.8521 -1.1239
18571TIP3    H277129   2.016   1.966   1.346 -0.6462  0.5541  0.7973
18572TIP3   OH277130   3.363   6.563   4.517  0.1025  0.6888  0.3688
18572TIP3    H177131   3.430   6.579   4.584 -1.2245  0.4876  1.7724
18572TIP3    H277132   3.307   6.495   4.554 -0.5594  0.4600 -1.0215
18573TIP3   OH277133   0.563   3.648  16.648  0.1648  0.3506  0.3312
18573TIP3    H177134   0.580   3.713  16.717  2.5410  1.6853 -1.4282
18573TIP3    H277135   0.489   3.684  16.599 -0.8632 -0.0931  1.5178
18574TIP3   OH277136   2.445   4.582  14.937 -0.3035  0.2077 -0.2376
18574TIP3    H177137   2.406   4.519  14.997 -0.0429  2.1387  2.0591
18574TIP3    H277138   2.537   4.588  14.965 -0.4878  2.0953  0.0727
18575TIP3   OH277139   1.097   1.389  14.307  0.5767  0.5796  0.0809
18575TIP3    H177140   1.043   1.464  14.331 -1.5525 -1.2604  1.2186
18575TIP3    H277141   1.162   1.383  14.376 -0.1796  0.4879  0.7876
18576TIP3   OH277142   5.634   0.655   2.289  0.2404  0.8046  0.4475
18576TIP3    H177143   5.706   0.706   2.327 -0.1065  1.1080  0.7059
18576TIP3    H277144   5.558   0.679   2.342  0.0666  0.0369  0.5565
18577TIP3   OH277145   0.271   3.837   0.941  0.7277 -0.1609 -0.4491
18577TIP3    H177146   0.262   3.812   0.849  1.4066 -2.7007  0.1211
18577TIP3    H277147   0.242   3.928   0.945  0.2191 -0.1824 -3.0805
18578TIP3   OH277148   1.925   2.420  12.806 -0.1599 -0.2575  0.1782
18578TIP3    H177149   1.855   2.484  12.798  0.7964  0.7736 -0.1326
18578TIP3    H277150   2.005   2.468  12.784  0.3833 -1.9800 -1.8245
18579TIP3   OH277151   3.113   2.861  11.554 -0.8628 -0.2047  0.2051
18579TIP3    H177152   3.198   2.818  11.565 -1.0014 -0.5637 -0.1016
18579TIP3    H277153   3.058   2.822  11.622 -1.3862 -1.5570 -0.9717
18580TIP3   OH277154   3.187   4.363   3.348  0.9766 -0.2412  0.2327
18580TIP3    H177155   3.201   4.356   3.442 -1.6080 -1.0435  0.5948
18580TIP3    H277156   3.120   4.431   3.339  0.5603 -0.7940 -0.9633
18581TIP3   OH277157   1.957   2.740   5.786  0.1509 -0.5161 -0.0742
18581TIP3    H177158   1.863   2.759   5.787  0.0901 -0.0113 -4.6474
18581TIP3    H277159   1.966   2.663   5.843 -2.9522 -0.4027  0.6818
18582TIP3   OH277160   0.861   6.458   2.450 -0.2194  0.3702  0.4529
18582TIP3    H177161   0.954   6.440   2.434 -0.5813  0.0288 -1.4032
18582TIP3    H277162   0.860   6.504   2.534  1.3916 -1.7599  1.6748
18583TIP3   OH277163   4.350   5.044  15.375  0.5214  0.2066 -0.4873
18583TIP3    H177164   4.306   5.129  15.373 -0.7260 -0.4106  0.0553
18583TIP3    H277165   4.341   5.015  15.466 -0.0612 -1.0060 -0.9261
18584TIP3   OH277166   4.248   1.598   4.465  0.9195  0.4608 -0.2959
18584TIP3    H177167   4.313   1.645   4.414  0.3086  1.3584 -0.2501
18584TIP3    H277168   4.279   1.605   4.556  1.8559 -0.8971 -0.4958
18585TIP3   OH277169   2.496   3.987   1.466  0.6615 -0.1166 -0.0344
18585TIP3    H177170   2.449   3.974   1.548  2.4724  0.5535  1.1374
18585TIP3    H277171   2.547   3.907   1.454  1.5377  0.3921  0.2688
18586TIP3   OH277172   3.868   4.930   4.339 -0.1646 -0.1966  0.0899
18586TIP3    H177173   3.939   4.921   4.403  2.7457  0.8513 -2.8265
18586TIP3    H277174   3.797   4.972   4.387  1.9669  0.6776  2.6019
18587TIP3   OH277175   4.982   5.088  10.363  0.6049 -0.1410 -0.0819
18587TIP3    H177176   4.921   5.066  10.293  0.7737  0.8921 -0.5725
18587TIP3    H277177   4.927   5.110  10.438  0.3744  0.5742 -0.4591
18588TIP3   OH277178   0.760   4.364  14.360 -0.0308  0.1482  0.3341
18588TIP3    H177179   0.760   4.325  14.447  1.6663  0.3485  0.4496
18588TIP3    H277180   0.812   4.304  14.307 -2.0348 -0.5848 -0.8435
18589TIP3   OH277181   5.280   5.898   3.980 -0.0842  0.2212 -0.5470
18589TIP3    H177182   5.299   5.804   3.971  2.2075  0.5953 -0.0769
18589TIP3    H277183   5.275   5.929   3.890  2.1291  0.1473 -0.7419
18590TIP3   OH277184   5.736   4.911  13.841 -0.1000 -0.4466 -0.0407
18590TIP3    H177185   5.828   4.916  13.866 -0.3838  1.5957  0.6829
18590TIP3    H277186   5.697   4.849  13.903  0.3618  0.3132  1.0191
18591TIP3   OH277187   3.775   4.303  11.813  0.0182  0.6479  0.3412
18591TIP3    H177188   3.803   4.374  11.755  2.6722 -0.1283  0.6152
18591TIP3    H277189   3.719   4.248  11.758  1.7377  0.4380 -1.2288
18592TIP3   OH277190   3.187   6.180  15.326  0.1659  0.5932  0.2123
18592TIP3    H177191   3.099   6.165  15.292  0.4107 -0.6146  0.0772
18592TIP3    H277192   3.177   6.178  15.421  0.3264 -1.4612  0.2172
18593TIP3   OH277193   3.778   3.793   2.679 -0.3117  0.1323 -0.0641
18593TIP3    H177194   3.769   3.799   2.584  0.3723  1.3184 -0.0680
18593TIP3    H277195   3.771   3.883   2.710  1.0110 -0.0600  0.8575
18594TIP3   OH277196   3.904   3.978   0.472 -0.4522 -0.1539  0.5971
18594TIP3    H177197   3.941   4.051   0.521 -0.0179 -0.6829  1.0770
18594TIP3    H277198   3.826   4.013   0.430  0.1229  0.7589  0.2790
18595TIP3   OH277199   3.513   6.552   0.532  0.1781 -0.0731 -0.3394
18595TIP3    H177200   3.509   6.456   0.531  0.5191 -0.1078  1.0633
18595TIP3    H277201   3.441   6.579   0.476 -0.2151 -1.1437 -0.3636
18596TIP3   OH277202   3.514   2.973   4.898  0.1623 -0.1138  0.5143
18596TIP3    H177203   3.500   2.983   4.992 -1.0027 -2.2172  0.6007
18596TIP3    H277204   3.472   3.049   4.859  1.0734  1.0377  1.7004
18597TIP3   OH277205   4.400   4.585  13.512 -0.4496  0.5059 -0.5248
18597TIP3    H177206   4.451   4.666  13.525 -1.1315  0.4208  3.0788
18597TIP3    H277207   4.319   4.615  13.470  0.0816  1.4435 -0.9030
18598TIP3   OH277208   0.431   5.650   6.178 -0.2575  0.4342 -0.2356
18598TIP3    H177209   0.509   5.706   6.178  0.7956 -0.9501 -3.1649
18598TIP3    H277210   0.454   5.576   6.234  1.1439 -0.7161 -2.2752
18599TIP3   OH277211   6.517   3.214   1.945 -0.6012 -0.1993  0.4402
18599TIP3    H177212   6.487   3.305   1.946 -1.3733 -0.4556  0.8901
18599TIP3    H277213   6.538   3.195   2.036  1.0729  0.0183  0.1105
18600TIP3   OH277214   4.380   4.335   1.898 -0.1209  0.7772  0.4305
18600TIP3    H177215   4.364   4.428   1.914 -1.0022  0.6286  0.4371
18600TIP3    H277216   4.405   4.330   1.805 -1.7515  0.8285 -0.0311
18601TIP3   OH277217   0.828   6.502  14.087  0.2552 -0.1041  0.7900
18601TIP3    H177218   0.900   6.439  14.082 -0.4271 -0.7876 -1.0273
18601TIP3    H277219   0.750   6.448  14.103 -0.3686  0.2139 -1.0311
18602TIP3   OH277220   6.375   0.351   0.216  0.1784 -0.0751  0.0897
18602TIP3    H177221   6.443   0.416   0.235  0.4990  0.0557 -1.4500
18602TIP3    H277222   6.293   0.399   0.222  0.3269  0.1380  0.3965
18603TIP3   OH277223   1.246   1.229  16.409  0.1321 -0.5045 -0.2419
18603TIP3    H177224   1.240   1.287  16.332  0.9665  0.7315  0.6104
18603TIP3    H277225   1.256   1.289  16.483  0.8805 -1.7407  0.6727
18604TIP3   OH277226   2.464   5.343  16.767  0.0206 -0.3445 -0.0365
18604TIP3    H177227   2.384   5.375  16.807  0.3707  0.7820 -0.2211
18604TIP3    H277228   2.446   5.345  16.673  0.8656  1.6054 -0.1806
18605TIP3   OH277229   4.219   1.587  11.484  0.0966  0.1367 -0.8034
18605TIP3    H177230   4.229   1.682  11.478  0.9797  0.0299 -1.2165
18605TIP3    H277231   4.175   1.562  11.403 -0.8184  0.2798 -0.3493
18606TIP3   OH277232   3.694   2.581   1.202  0.5518  0.0053  0.5473
18606TIP3    H177233   3.616   2.631   1.179  0.9758 -0.2280 -1.5615
18606TIP3    H277234   3.669   2.490   1.189  1.5938 -0.0026 -1.6466
18607TIP3   OH277235   1.551   1.995   3.464  0.2034 -0.0199 -0.0245
18607TIP3    H177236   1.473   1.992   3.520  0.0821  2.6579 -0.0102
18607TIP3    H277237   1.605   2.064   3.501  1.9531 -0.8923 -0.8895
18608TIP3   OH277238   1.206   1.043  12.880 -0.5718 -0.7140  0.2928
18608TIP3    H177239   1.162   1.007  12.803 -0.7637 -0.2470  0.1837
18608TIP3    H277240   1.191   0.977  12.949 -0.9808 -0.8099  0.1152
18609TIP3   OH277241   1.666   1.621  15.574  0.6619 -0.0221 -0.0295
18609TIP3    H177242   1.702   1.533  15.570 -0.6201 -0.5205 -0.9380
18609TIP3    H277243   1.584   1.616  15.524  1.2394  1.9940 -1.2553
18610TIP3   OH277244   4.214   5.212  10.878 -0.9587 -0.3063 -0.3467
18610TIP3    H177245   4.178   5.282  10.932 -0.5420 -0.7070  0.4594
18610TIP3    H277246   4.168   5.220  10.795  1.0718  2.6747 -1.2452
18611TIP3   OH277247   4.656   1.668   2.692  0.4782  0.0321  0.1133
18611TIP3    H177248   4.629   1.670   2.601 -0.5628 -0.0956  0.4154
18611TIP3    H277249   4.683   1.757   2.712 -2.0036  0.7378  0.4807
18612TIP3   OH277250   2.898   3.352  13.991 -0.0007  0.6871  0.6813
18612TIP3    H177251   2.851   3.340  13.910  4.5933 -1.7254 -1.8353
18612TIP3    H277252   2.886   3.270  14.039  1.4848  0.0997  0.0719
18613TIP3   OH277253   2.217   6.096   0.428  0.4635  0.1944  0.3817
18613TIP3    H177254   2.272   6.107   0.350 -1.1779  0.2233 -0.8122
18613TIP3    H277255   2.130   6.077   0.392 -0.7050  1.9735  2.1821
18614TIP3   OH277256   4.667   5.742   4.403  0.3813 -0.0511  0.1112
18614TIP3    H177257   4.706   5.688   4.335  0.0928 -0.5823  0.3648
18614TIP3    H277258   4.661   5.829   4.365 -1.8174 -0.8045 -1.3384
18615TIP3   OH277259   5.821   4.724  11.740  0.0032  0.3656 -0.4412
18615TIP3    H177260   5.769   4.726  11.659  0.1892  1.4381 -0.5407
18615TIP3    H277261   5.870   4.806  11.739 -1.3044  1.2147  1.6254
18616TIP3   OH277262   3.769   0.588  14.521 -0.0607 -0.3885 -0.1278
18616TIP3    H177263   3.854   0.546  14.534  0.1722  0.1239 -0.0124
18616TIP3    H277264   3.778   0.674  14.560 -0.0142  0.3858 -1.7948
18617TIP3   OH277265   6.319   3.257  16.590  0.0875  0.7416  0.1832
18617TIP3    H177266   6.228   3.229  16.579  0.7142  0.0790 -4.1069
18617TIP3    H277267   6.370   3.180  16.563  1.9396  1.4465  1.6014
18618TIP3   OH277268   2.442   3.979   3.347 -0.7360 -0.1470 -0.4566
18618TIP3    H177269   2.375   4.037   3.309 -0.5872  0.3570  0.0369
18618TIP3    H277270   2.394   3.900   3.370 -1.2293  0.3082  0.1292
18619TIP3   OH277271   6.583   2.328  12.139 -0.7818 -0.3503  0.7298
18619TIP3    H177272   6.626   2.379  12.208  0.4402  0.3968 -0.5646
18619TIP3    H277273   6.511   2.284  12.184 -0.1312  0.2813  2.4471
18620TIP3   OH277274   4.028   0.684   4.807  0.0707  0.4209 -0.4876
18620TIP3    H177275   4.029   0.591   4.830  0.6910  0.8618  1.3605
18620TIP3    H277276   4.029   0.685   4.711 -0.8368 -1.4814 -0.5487
18621TIP3   OH277277   2.321   3.064  11.798 -0.2993  0.1836  0.5569
18621TIP3    H177278   2.227   3.082  11.805  0.1111  1.3895  3.7858
18621TIP3    H277279   2.355   3.138  11.747 -0.8676  0.6303  0.8163
18622TIP3   OH277280   6.502   5.485   0.656  0.6524 -0.0889  0.2064
18622TIP3    H177281   6.526   5.393   0.643 -0.8062 -0.7071  1.6558
18622TIP3    H277282   6.510   5.498   0.751 -0.9116  0.7469  0.2410
18623TIP3   OH277283   5.972   2.252   2.246 -0.4561  0.1577  0.0665
18623TIP3    H177284   5.953   2.346   2.249 -2.4162 -0.2254  0.7882
18623TIP3    H277285   5.889   2.211   2.220 -0.2014 -1.5056  1.7084
18624TIP3   OH277286   0.052   6.531  11.574  0.0586  0.2449  0.0420
18624TIP3    H177287   0.035   6.509  11.482 -0.5235  0.1270  0.1734
18624TIP3    H277288  -0.005   6.606  11.591 -1.3769 -0.9939  0.8754
18625TIP3   OH277289   3.288   3.141   1.268 -0.5380 -0.4870  0.7156
18625TIP3    H177290   3.199   3.177   1.269  0.5660  2.4528 -0.2913
18625TIP3    H277291   3.288   3.078   1.197 -2.1299 -1.3684  1.4773
18626TIP3   OH277292   0.493   0.833   0.509  0.1663 -0.1969 -0.1424
18626TIP3    H177293   0.528   0.908   0.557  0.5627  0.1896 -1.0155
18626TIP3    H277294   0.400   0.850   0.500 -0.3680 -1.4087  2.5292
18627TIP3   OH277295   4.638   6.435  17.220  0.4674  0.8312 -0.3414
18627TIP3    H177296   4.637   6.478  17.306  0.8324  0.1348  0.0084
18627TIP3    H277297   4.643   6.342  17.239  0.4845  0.6675 -1.1208
18628TIP3   OH277298   0.534   3.464  13.060  0.5787 -0.2093  0.0105
18628TIP3    H177299   0.545   3.414  13.141  1.5925  0.6830  0.4363
18628TIP3    H277300   0.603   3.432  13.002 -0.1761 -0.8800 -0.5242
18629TIP3   OH277301   6.679   4.186  16.191 -0.3830 -0.2846  0.2888
18629TIP3    H177302   6.617   4.246  16.150  0.8717  0.6300 -0.2636
18629TIP3    H277303   6.635   4.159  16.272 -1.7066 -0.0160 -0.3199
18630TIP3   OH277304   0.585   5.793  15.468  0.5304 -0.3373  0.2185
18630TIP3    H177305   0.629   5.708  15.473  1.5647  0.2250  0.9660
18630TIP3    H277306   0.618   5.833  15.387  2.0642  0.4218  1.1862
18631TIP3   OH277307   4.699   3.332  10.873 -0.0123 -0.1167 -0.4884
18631TIP3    H177308   4.719   3.242  10.900 -1.6120 -0.6076 -0.8522
18631TIP3    H277309   4.694   3.381  10.954 -0.2061 -0.5978 -0.2035
18632TIP3   OH277310   4.193   3.463   2.656 -0.0029  0.6368  0.4393
18632TIP3    H177311   4.227   3.530   2.715  0.4151 -1.3652  2.5256
18632TIP3    H277312   4.099   3.462   2.673 -0.3348  2.1302 -1.1391
18633TIP3   OH277313   5.748   0.215  15.947 -0.4344  0.0622  0.3207
18633TIP3    H177314   5.765   0.123  15.925  0.8629  0.7460 -1.7209
18633TIP3    H277315   5.746   0.216  16.043  1.4310 -1.7920  0.4479
18634TIP3   OH277316   3.705   1.563   2.634  0.1775 -0.7070 -0.2570
18634TIP3    H177317   3.744   1.483   2.598 -0.3295 -0.9213 -0.3447
18634TIP3    H277318   3.610   1.547   2.630 -0.0497  0.9602 -2.8106
18635TIP3   OH277319   1.566   6.307  13.268  0.3399 -0.1933  0.2296
18635TIP3    H177320   1.508   6.383  13.281  0.3006 -0.2464  0.3638
18635TIP3    H277321   1.539   6.270  13.184  0.0558 -0.3256  0.3797
18636TIP3   OH277322   2.577   3.150   4.331 -0.2112  0.3046 -0.1480
18636TIP3    H177323   2.489   3.140   4.295 -0.7410  0.2818  1.1311
18636TIP3    H277324   2.603   3.239   4.308  0.3994 -0.4862 -2.6076
18637TIP3   OH277325   3.701   2.952  16.072  0.1804  0.5853 -0.2118
18637TIP3    H177326   3.738   2.878  16.120  0.6766  1.2918  0.5049
18637TIP3    H277327   3.607   2.946  16.086  0.1139 -0.5269 -1.0433
18638TIP3   OH277328   4.445   6.704   2.165  0.1546 -0.3749 -0.2862
18638TIP3    H177329   4.384   6.650   2.215 -2.7071  0.6041 -2.5556
18638TIP3    H277330   4.494   6.642   2.112 -0.3818 -1.0381 -0.0113
18639TIP3   OH277331   5.591   6.122   0.137  0.1826 -0.5296 -0.0821
18639TIP3    H177332   5.525   6.164   0.082 -1.7212 -2.2226  0.8399
18639TIP3    H277333   5.663   6.100   0.077 -0.7459 -0.0413 -1.3895
18640TIP3   OH277334   4.532   0.063   0.426 -0.0860  0.5259  0.7213
18640TIP3    H177335   4.476   0.017   0.364  0.0348 -0.0618  1.0387
18640TIP3    H277336   4.553  -0.003   0.493  0.8028  0.7956  0.7220
18641TIP3   OH277337   3.908   4.235  16.537  0.2896 -0.5704 -0.0437
18641TIP3    H177338   3.982   4.226  16.477 -0.3614  0.0325 -0.9396
18641TIP3    H277339   3.941   4.292  16.607  0.5553 -0.0221 -0.6203
18642TIP3   OH277340   3.389   1.613  12.891  0.0459 -0.0038 -0.3598
18642TIP3    H177341   3.382   1.704  12.921  1.2662  0.4638 -1.4226
18642TIP3    H277342   3.453   1.573  12.949  0.7114  0.2700 -0.8995
18643TIP3   OH277343   2.902   3.802   5.323 -0.0959 -0.0670 -0.6051
18643TIP3    H177344   2.974   3.816   5.385 -0.5684  0.4928 -0.1721
18643TIP3    H277345   2.866   3.717   5.347 -1.5063  0.9821  1.1778
18644TIP3   OH277346   0.861   1.921   6.207  0.0458 -0.1730 -0.9740
18644TIP3    H177347   0.951   1.950   6.219 -0.1095  0.8802 -2.2770
18644TIP3    H277348   0.842   1.935   6.114 -1.0884 -1.4690 -0.9722
18645TIP3   OH277349   3.282   3.965  10.729 -0.4964  0.2582  0.3575
18645TIP3    H177350   3.352   3.900  10.726 -0.6917  0.1201 -1.9213
18645TIP3    H277351   3.209   3.920  10.770  0.0476 -0.2795  0.7429
18646TIP3   OH277352   2.669   6.265   6.279 -0.0643 -0.4255 -0.0550
18646TIP3    H177353   2.604   6.249   6.211  0.3380  0.0591 -0.5670
18646TIP3    H277354   2.635   6.340   6.327 -0.6025 -1.0917  0.6084
18647TIP3   OH277355   5.604   5.158   4.572  0.4370  0.2405 -0.5616
18647TIP3    H177356   5.651   5.175   4.491  1.3912  1.9811  0.3456
18647TIP3    H277357   5.597   5.062   4.576  0.8195  0.1207 -2.4257
18648TIP3   OH277358   2.347   1.616   2.464 -0.6947  0.0816  0.1315
18648TIP3    H177359   2.323   1.621   2.556 -0.7401  0.9437  0.0826
18648TIP3    H277360   2.424   1.673   2.457 -0.7322  0.0707 -0.3778
18649TIP3   OH277361   4.059   3.517  14.414  0.0526  0.6296  0.1397
18649TIP3    H177362   4.121   3.502  14.343 -0.2249  1.6152 -0.3119
18649TIP3    H277363   4.045   3.611  14.416 -0.0413  0.6091  1.4276
18650TIP3   OH277364   4.969   1.536  15.211  0.0455 -0.2259  0.3213
18650TIP3    H177365   4.935   1.494  15.290  0.5068  1.0220  1.2090
18650TIP3    H277366   5.064   1.522  15.215  0.0994  0.0809  0.1539
18651TIP3   OH277367   6.154   2.511  12.794  0.2564  0.3150 -0.1505
18651TIP3    H177368   6.197   2.530  12.711 -1.0486  1.0501 -0.6802
18651TIP3    H277369   6.090   2.443  12.772  0.1565  0.2549  0.3225
18652TIP3   OH277370   0.670   6.776  13.389 -0.4217  0.5432  0.4223
18652TIP3    H177371   0.759   6.800  13.363  0.0120 -0.4190  0.9841
18652TIP3    H277372   0.624   6.859  13.395  0.5695  1.0909  0.6031
18653TIP3   OH277373   3.352   2.570  15.726  0.1092 -0.5337 -0.3812
18653TIP3    H177374   3.338   2.617  15.644 -1.4805  0.9875  0.7203
18653TIP3    H277375   3.269   2.523  15.741  0.7288 -1.5676 -0.1140
18654TIP3   OH277376   5.043   3.969  12.875 -0.2704 -0.0571 -0.0053
18654TIP3    H177377   5.036   3.874  12.865  1.9639 -0.2419 -0.1537
18654TIP3    H277378   5.092   3.998  12.798  1.5709  0.8138  1.4468
18655TIP3   OH277379   5.423   0.673  11.477 -0.1400 -0.4309  0.2812
18655TIP3    H177380   5.387   0.759  11.495  1.2036  0.0711  0.6553
18655TIP3    H277381   5.410   0.659  11.383  3.6908  2.1387 -0.7368
18656TIP3   OH277382   3.628   1.294   0.678  0.3344  0.4651 -0.3020
18656TIP3    H177383   3.696   1.361   0.669 -0.9515  1.6091 -1.8597
18656TIP3    H277384   3.656   1.224   0.619  0.2086  0.9242 -0.9204
18657TIP3   OH277385   5.684   4.747   0.227  0.0075  0.4879  0.2260
18657TIP3    H177386   5.733   4.809   0.173 -0.3532  0.9430  0.4195
18657TIP3    H277387   5.594   4.752   0.195 -0.0921  0.3241  0.4744
18658TIP3   OH277388   4.308   4.038   3.551  0.7221 -0.1288  0.0440
18658TIP3    H177389   4.395   4.072   3.573  0.4956  0.6817 -0.2918
18658TIP3    H277390   4.248   4.095   3.599  0.3119  0.2949 -0.9717
18659TIP3   OH277391   4.799   3.096   1.457 -0.2188  0.4789 -0.0599
18659TIP3    H177392   4.727   3.094   1.394 -0.2381  4.0875 -0.2644
18659TIP3    H277393   4.777   3.169   1.516  3.3478  1.8252 -0.2899
18660TIP3   OH277394   1.385   4.190  16.494  0.0555  0.0052 -0.6152
18660TIP3    H177395   1.450   4.141  16.442  1.0156 -1.1579  1.5984
18660TIP3    H277396   1.341   4.123  16.546 -1.4639  1.0577 -0.5116
18661TIP3   OH277397   0.849   1.792   5.525 -0.1574  0.6440  0.3067
18661TIP3    H177398   0.884   1.747   5.603  0.1960  1.8040  0.8195
18661TIP3    H277399   0.761   1.818   5.550 -0.5523 -0.2159 -0.1758
18662TIP3   OH277400   6.232   3.968  13.317  0.1317  0.1504  0.2412
18662TIP3    H177401   6.196   3.900  13.374 -0.0890  0.8599  0.9631
18662TIP3    H277402   6.157   4.021  13.292  0.5962  1.4480  1.4935
18663TIP3   OH277403   5.222   3.521  17.193  0.0854  0.4493 -0.3629
18663TIP3    H177404   5.136   3.559  17.178 -0.3383  0.4651  1.8254
18663TIP3    H277405   5.209   3.461  17.267  2.3183  1.9942  1.3768
18664TIP3   OH277406   3.867   5.139   4.695  0.0379  0.3208 -0.1557
18664TIP3    H177407   3.882   5.199   4.768  0.8590  0.2560 -0.2633
18664TIP3    H277408   3.950   5.092   4.686 -1.1007 -2.0208  1.0256
18665TIP3   OH277409   2.924   3.602  14.088  0.8050 -0.0424 -0.6528
18665TIP3    H177410   2.920   3.514  14.049 -0.3642 -0.1738 -0.2517
18665TIP3    H277411   2.836   3.638  14.073  0.0926 -0.3513  2.4511
18666TIP3   OH277412   2.435   5.155  11.300  0.4206 -0.3720 -0.0978
18666TIP3    H177413   2.391   5.214  11.238  0.4540 -1.3080 -1.0228
18666TIP3    H277414   2.526   5.187  11.301 -0.0311  0.9271  1.0484
18667TIP3   OH277415   0.524   5.281  13.930  0.8932  0.2941  0.2310
18667TIP3    H177416   0.518   5.296  13.836 -1.6049  0.8577  0.4395
18667TIP3    H277417   0.465   5.346  13.969  0.2427 -1.3164  2.0390
18668TIP3   OH277418   3.298   3.025  11.416  0.1772  0.1352  0.1500
18668TIP3    H177419   3.350   2.960  11.371  0.8752  0.3016  0.7007
18668TIP3    H277420   3.226   2.976  11.455  1.2095 -0.4686  1.3483
18669TIP3   OH277421   1.452   1.876   4.245  0.2865 -0.1787 -0.2359
18669TIP3    H177422   1.379   1.891   4.185  0.1434  2.3668  0.4959
18669TIP3    H277423   1.512   1.820   4.197 -0.9063 -0.0855 -1.8679
18670TIP3   OH277424   4.100   3.816   3.824 -0.0859 -0.4656 -0.1358
18670TIP3    H177425   4.091   3.888   3.886  0.6191 -2.0811  1.9348
18670TIP3    H277426   4.019   3.766   3.833  0.5272 -1.3930  0.4415
18671TIP3   OH277427   5.772   2.255  17.185 -0.4571 -0.2733 -0.3075
18671TIP3    H177428   5.712   2.307  17.239 -0.5556  0.2517 -0.9177
18671TIP3    H277429   5.725   2.243  17.103 -0.1157 -0.6861 -0.4429
18672TIP3   OH277430   6.583   5.932   5.820  0.1639 -0.1500 -0.0563
18672TIP3    H177431   6.662   5.879   5.805  0.2590  0.2477 -0.9460
18672TIP3    H277432   6.601   5.979   5.901  0.7784 -0.1695 -0.1821
18673TIP3   OH277433   4.864   5.645   1.180  0.2641 -0.1240  0.3129
18673TIP3    H177434   4.895   5.651   1.089 -0.3707 -0.2283  0.0876
18673TIP3    H277435   4.889   5.729   1.219 -2.2816  1.2451 -0.8611
18674TIP3   OH277436   3.636   3.900  15.395  0.3583  0.0979 -0.4643
18674TIP3    H177437   3.668   3.901  15.305  1.7972 -0.9992  0.0093
18674TIP3    H277438   3.715   3.890  15.448 -0.5343  0.1050  0.8832
18675TIP3   OH277439   3.505   2.202   0.847 -0.1624 -0.3936 -0.4419
18675TIP3    H177440   3.441   2.190   0.777  0.2078  0.6908 -0.9685
18675TIP3    H277441   3.590   2.188   0.805  0.0193 -0.5760 -0.0174
18676TIP3   OH277442   6.562   3.859   3.883  0.7062  0.3519  0.1643
18676TIP3    H177443   6.505   3.794   3.925  0.5735 -0.0134 -0.5752
18676TIP3    H277444   6.567   3.831   3.792  1.0689  1.0901 -0.0451
18677TIP3   OH277445   3.630   4.272  12.536  0.1782  0.1048  0.6675
18677TIP3    H177446   3.708   4.239  12.490  0.9648  2.5250  0.2137
18677TIP3    H277447   3.571   4.196  12.539  2.2302 -1.5602  0.3576
18678TIP3   OH277448   4.931   0.222  13.295 -0.1702 -0.5817  0.3263
18678TIP3    H177449   4.975   0.199  13.213 -0.6366 -0.5733  0.0676
18678TIP3    H277450   4.955   0.152  13.356 -1.0032 -1.3810 -0.2434
18679TIP3   OH277451   6.264   2.458  14.109  0.0557 -0.6340 -0.6486
18679TIP3    H177452   6.307   2.543  14.100  1.2385 -0.7339  3.2598
18679TIP3    H277453   6.324   2.406  14.163 -1.5967 -3.3094 -1.2594
18680TIP3   OH277454   0.599   1.156  13.774  0.6640  0.3049  0.3405
18680TIP3    H177455   0.663   1.218  13.739 -0.3880  0.9547 -0.4577
18680TIP3    H277456   0.519   1.207  13.784 -0.7053 -1.2954 -1.9311
18681TIP3   OH277457   3.824   6.706   3.644 -0.0162  0.4778  0.1263
18681TIP3    H177458   3.905   6.655   3.640 -1.2316 -1.5509  0.5740
18681TIP3    H277459   3.830   6.753   3.727  0.7276  0.3575  0.1462
18682TIP3   OH277460   1.905   1.350  12.716  0.4584  0.3236 -0.0259
18682TIP3    H177461   1.822   1.301  12.714  0.4768  0.2109  1.5008
18682TIP3    H277462   1.909   1.386  12.804  3.3501 -1.9364  0.8157
18683TIP3   OH277463   4.083   3.442   6.829  0.0508  0.0104 -0.8181
18683TIP3    H177464   4.051   3.455   6.740 -0.7251 -0.4442 -0.6123
18683TIP3    H277465   4.176   3.425   6.819  0.1666  0.9929 -1.4553
18684TIP3   OH277466   6.592   2.399  12.535  0.2931  0.2885 -0.0654
18684TIP3    H177467   6.556   2.425  12.451 -0.6478 -1.1266 -0.1114
18684TIP3    H277468   6.543   2.450  12.599  0.5843  0.9052 -0.3292
18685TIP3   OH277469   6.537   0.259   2.613  0.0857 -0.2094  0.0344
18685TIP3    H177470   6.449   0.236   2.582 -0.2555 -0.3611  1.1003
18685TIP3    H277471   6.522   0.324   2.682  0.8283 -0.0611  0.0626
18686TIP3   OH277472   6.387   3.423   0.790 -0.5577 -0.3403  0.3867
18686TIP3    H177473   6.479   3.439   0.808 -0.6319 -0.4052  0.8412
18686TIP3    H277474   6.384   3.397   0.698 -0.1162 -0.4253  0.3964
18687TIP3   OH277475   5.034   4.519  13.978  0.1168  0.2057 -0.3215
18687TIP3    H177476   5.071   4.563  14.054  0.2321 -1.7334  0.7714
18687TIP3    H277477   4.941   4.545  13.978  0.1183  0.2260  0.4732
18688TIP3   OH277478   2.186   4.305  14.623  0.0063  0.0266 -0.2410
18688TIP3    H177479   2.174   4.268  14.535 -0.5732  1.6704 -0.8695
18688TIP3    H277480   2.174   4.230  14.682 -0.7445 -0.8723 -1.4981
18689TIP3   OH277481   1.336   1.910   4.677 -0.3012 -0.0555  0.0257
18689TIP3    H177482   1.277   1.835   4.686  0.5946 -0.9197 -1.1738
18689TIP3    H277483   1.329   1.934   4.584 -0.1974  1.0357  0.2954
18690TIP3   OH277484   1.669   6.538  15.607  0.6111 -0.2403 -0.1315
18690TIP3    H177485   1.577   6.521  15.626  0.4026 -0.8836 -1.6241
18690TIP3    H277486   1.679   6.633  15.615 -0.2143 -0.1512 -0.1436
18691TIP3   OH277487   0.121   6.663   6.071  0.0038 -0.0977 -0.3059
18691TIP3    H177488   0.040   6.660   6.121 -0.4303 -1.1801 -1.0575
18691TIP3    H277489   0.153   6.572   6.071  0.5003  0.0714 -1.1533
18692TIP3   OH277490   1.250   1.915  11.389  0.0110 -0.2463 -0.0893
18692TIP3    H177491   1.198   1.991  11.362 -0.2368 -0.8653 -1.3811
18692TIP3    H277492   1.197   1.874  11.458  1.0684  1.8441  2.0272
18693TIP3   OH277493   5.181   5.754   1.155  0.1664 -0.0556  0.2952
18693TIP3    H177494   5.237   5.789   1.224 -0.0088  1.8586 -0.5002
18693TIP3    H277495   5.235   5.688   1.111  0.0581 -1.7438  2.6254
18694TIP3   OH277496   0.834   5.763  13.199  0.1928  0.2367 -0.3720
18694TIP3    H177497   0.781   5.837  13.169  0.6639  0.9869  0.6010
18694TIP3    H277498   0.868   5.791  13.284  0.8770 -0.8562 -0.2730
18695TIP3   OH277499   2.381   3.062   0.143  0.6764  0.2605 -0.4743
18695TIP3    H177500   2.401   3.045   0.051  0.2144  0.3306 -0.5878
18695TIP3    H277501   2.304   3.009   0.161 -0.9283  2.3780 -0.9026
18696TIP3   OH277502   2.964   4.498   0.657 -0.0339  0.2180 -0.4130
18696TIP3    H177503   2.902   4.459   0.719  0.1246 -0.7498 -0.8602
18696TIP3    H277504   2.924   4.582   0.633 -1.0666 -0.3096 -0.5451
18697TIP3   OH277505   6.725   4.197  12.238 -0.0124  0.2728 -0.2498
18697TIP3    H177506   6.768   4.240  12.164  0.0791  1.2256  0.3541
18697TIP3    H277507   6.797   4.163  12.291  0.0314  2.2236  0.9754
18698TIP3   OH277508   1.858   1.844  12.132  0.0473 -0.0692  0.2291
18698TIP3    H177509   1.779   1.814  12.087 -0.8122 -1.2312  2.4225
18698TIP3    H277510   1.930   1.803  12.084 -0.7763 -0.3117 -0.8184
18699TIP3   OH277511   2.296   0.579   6.226 -0.2753  0.0634 -0.1246
18699TIP3    H177512   2.335   0.549   6.143 -1.5740  0.3940 -0.8670
18699TIP3    H277513   2.253   0.661   6.204 -2.0251 -0.6592  0.5050
18700TIP3   OH277514   6.137   6.613  14.337  0.4093 -0.6980 -0.5165
18700TIP3    H177515   6.146   6.695  14.384 -2.2108 -0.4591 -0.3866
18700TIP3    H277516   6.227   6.589  14.313  1.3469  1.3214  0.8961
18701TIP3   OH277517   3.497   5.023   1.838  0.1000 -0.2458 -0.9397
18701TIP3    H177518   3.450   5.101   1.868  1.4454 -0.1810  1.0604
18701TIP3    H277519   3.430   4.971   1.793 -1.3904  0.8398 -0.0424
18702TIP3   OH277520   5.393   6.504  17.170 -0.3837 -0.3577 -0.4701
18702TIP3    H177521   5.432   6.590  17.182 -0.8367  0.0044 -1.5811
18702TIP3    H277522   5.340   6.512  17.091  0.2894 -1.8900 -1.1051
18703TIP3   OH277523   3.280   6.713   5.366  0.5778 -0.6450 -0.1761
18703TIP3    H177524   3.316   6.625   5.364 -1.0398 -1.3299 -0.2869
18703TIP3    H277525   3.356   6.771   5.372  1.6906 -2.0079 -0.9639
18704TIP3   OH277526   6.746   0.562   6.045  0.5215 -0.1733  0.2129
18704TIP3    H177527   6.749   0.479   6.093 -3.9736 -1.7319 -1.8709
18704TIP3    H277528   6.740   0.536   5.953  1.6954  2.5536 -0.6734
18705TIP3   OH277529   5.133   1.079   4.917 -0.2734  0.0702 -0.3907
18705TIP3    H177530   5.170   1.006   4.967  0.6410  0.1683 -0.9187
18705TIP3    H277531   5.079   1.126   4.980 -2.4995 -2.2016 -0.5220
18706TIP3   OH277532   0.330   1.365  12.812 -0.1412  0.0058  0.0043
18706TIP3    H177533   0.250   1.417  12.805  0.1631  0.3189 -1.3001
18706TIP3    H277534   0.356   1.349  12.722  0.7078 -0.9736  0.4182
18707TIP3   OH277535   1.773   6.297   5.257  0.5459  0.1083  0.3271
18707TIP3    H177536   1.818   6.222   5.219  0.6753  0.5261 -0.3517
18707TIP3    H277537   1.783   6.287   5.351 -0.5256 -1.4106  0.2906
18708TIP3   OH277538   0.336   6.218  11.546  0.4378  0.0327 -0.4088
18708TIP3    H177539   0.315   6.307  11.574 -2.5138 -0.8510  0.3785
18708TIP3    H277540   0.324   6.219  11.451  0.2601  0.4249 -0.3834
18709TIP3   OH277541   3.894   4.438  13.077 -0.0218  0.2804  0.6329
18709TIP3    H177542   3.876   4.370  13.012 -1.2063  0.0776  1.1613
18709TIP3    H277543   3.868   4.520  13.034  0.0252  0.2448  0.5360
18710TIP3   OH277544   5.738   2.875   6.651  0.3771  0.4611 -0.0695
18710TIP3    H177545   5.792   2.953   6.667 -0.2674  1.1016 -0.9410
18710TIP3    H277546   5.700   2.855   6.737  0.6401  1.0287  0.1885
18711TIP3   OH277547   0.716   2.319   4.956  0.5257 -0.5565 -0.6135
18711TIP3    H177548   0.656   2.375   5.006 -0.0257 -0.1474 -1.7167
18711TIP3    H277549   0.663   2.243   4.931  0.4891 -0.2530 -1.4791
18712TIP3   OH277550   1.811   6.621   5.385 -0.1630  0.3458  0.7231
18712TIP3    H177551   1.870   6.684   5.427  0.4572  0.4830 -0.3341
18712TIP3    H277552   1.771   6.574   5.458  2.1671 -0.5853  1.4500
18713TIP3   OH277553   4.949   2.527  16.237  0.7934 -0.9170 -0.0244
18713TIP3    H177554   4.877   2.507  16.178  1.4902  1.0477 -1.5663
18713TIP3    H277555   5.024   2.545  16.180  1.6906  0.1880  1.4545
18714TIP3   OH277556   3.531   6.284  11.904 -0.0080 -0.3962  0.2029
18714TIP3    H177557   3.521   6.346  11.977 -0.2154 -2.3722  1.9146
18714TIP3    H277558   3.625   6.273  11.894  0.0482  0.8587 -0.6949
18715TIP3   OH277559   4.401   0.458  10.955 -0.5135 -0.2514  0.0058
18715TIP3    H177560   4.422   0.386  10.895  2.0190 -0.8650  1.5516
18715TIP3    H277561   4.338   0.420  11.016 -2.2529  0.0505 -1.5552
18716TIP3   OH277562   2.375   5.636   0.688  0.4648  0.4894 -0.4488
18716TIP3    H177563   2.328   5.582   0.625  0.4281  0.8732 -0.7552
18716TIP3    H277564   2.311   5.657   0.755  0.0769  1.3539 -1.0777
18717TIP3   OH277565   5.468   3.559   5.290  0.2507  0.0811  0.2682
18717TIP3    H177566   5.563   3.568   5.285  0.4156 -0.9515  1.2607
18717TIP3    H277567   5.435   3.645   5.269  1.4660  0.7847  1.1413
18718TIP3   OH277568   0.475   6.087  11.731  0.3875  0.7098  0.4519
18718TIP3    H177569   0.447   6.154  11.668  0.2016  2.6118  2.5091
18718TIP3    H277570   0.395   6.040  11.754  0.5385 -0.3619 -1.0884
18719TIP3   OH277571   2.541   1.212   3.844 -0.2613  0.4242  0.4918
18719TIP3    H177572   2.540   1.132   3.897  0.7711  0.6226  0.8186
18719TIP3    H277573   2.451   1.221   3.812 -0.5729 -0.4218  1.1252
18720TIP3   OH277574   1.677   2.167   4.212  0.5148 -0.6848 -0.8215
18720TIP3    H177575   1.583   2.182   4.206  0.4703 -0.0375  1.1878
18720TIP3    H277576   1.714   2.252   4.235  1.4362 -1.1937 -0.3825
18721TIP3   OH277577   2.070   4.313  13.647  0.1285 -0.3876  0.5073
18721TIP3    H177578   2.085   4.220  13.628 -0.6900 -0.5724  0.7315
18721TIP3    H277579   2.037   4.314  13.737  0.7734  0.1790  0.7377
18722TIP3   OH277580   2.847   0.497   2.940 -0.0329  0.0749 -0.4676
18722TIP3    H177581   2.761   0.538   2.941  0.7788  1.8567 -0.7541
18722TIP3    H277582   2.859   0.465   3.030 -0.9156 -0.0332 -0.3850
18723TIP3   OH277583   2.731   2.314  12.587 -0.2036 -0.1093 -0.1279
18723TIP3    H177584   2.807   2.295  12.641  0.1441 -1.4216 -1.0373
18723TIP3    H277585   2.764   2.369  12.516 -0.3310  0.2882  0.1228
18724TIP3   OH277586   2.901   3.766   3.915 -0.7750  1.0095  0.3597
18724TIP3    H177587   2.960   3.787   3.987 -0.8463  0.4321  0.5949
18724TIP3    H277588   2.956   3.722   3.850 -0.7577  1.3155  0.1687
18725TIP3   OH277589   1.552   4.767   0.569  0.1186 -0.1622  0.2569
18725TIP3    H177590   1.551   4.714   0.489  0.8717 -0.0230  0.1510
18725TIP3    H277591   1.549   4.858   0.537  2.2432 -0.0536  0.3117
18726TIP3   OH277592   1.500   6.743   0.497 -0.3388 -0.3054  0.3630
18726TIP3    H177593   1.467   6.654   0.488  1.2728 -0.8038 -0.8440
18726TIP3    H277594   1.574   6.735   0.558  1.1350 -0.1511 -1.3806
18727TIP3   OH277595   5.008   0.923  12.577  0.0718  0.6186  0.2353
18727TIP3    H177596   4.928   0.955  12.537  0.0305  0.6454  0.3401
18727TIP3    H277597   5.014   0.968  12.661  0.4191  0.9387  0.0403
18728TIP3   OH277598   1.633   5.881  16.944 -0.1586  0.6501 -0.5291
18728TIP3    H177599   1.659   5.789  16.947  2.0971  1.2202 -1.5824
18728TIP3    H277600   1.712   5.929  16.967 -1.5916  2.3144  1.0652
18729TIP3   OH277601   2.598   4.666  15.930 -0.6498  0.5022 -0.3156
18729TIP3    H177602   2.614   4.695  15.840  2.0768  0.1434  0.0171
18729TIP3    H277603   2.678   4.688  15.977 -1.7229 -0.0766  1.8599
18730TIP3   OH277604   5.651   5.312  14.875 -0.2184  0.4627  0.5341
18730TIP3    H177605   5.622   5.239  14.931 -0.9360 -0.9894 -1.6628
18730TIP3    H277606   5.574   5.333  14.822  0.6389  1.3683 -0.3581
18731TIP3   OH277607   3.242   4.182   5.165  0.1129 -0.4885 -0.2768
18731TIP3    H177608   3.274   4.195   5.076  0.1587 -0.9896 -0.3361
18731TIP3    H277609   3.169   4.242   5.174  0.8475  0.4035 -0.2657
18732TIP3   OH277610   3.139   4.199   6.136  0.4757 -0.1072  0.0426
18732TIP3    H177611   3.125   4.273   6.076 -1.0495  0.0458  0.5561
18732TIP3    H277612   3.189   4.136   6.084  1.9509  1.3504 -0.3414
18733TIP3   OH277613   0.016   2.478   1.942 -0.3987 -0.4952  0.1510
18733TIP3    H177614   0.098   2.436   1.967  0.4866  0.9535 -0.2453
18733TIP3    H277615  -0.016   2.518   2.023  1.3141  2.2571 -0.4263
18734TIP3   OH277616   1.206   3.983   3.534 -0.2847 -0.6447  0.8551
18734TIP3    H177617   1.135   4.044   3.519  1.3909  1.1343 -0.0542
18734TIP3    H277618   1.226   3.948   3.447 -0.5412 -1.7124  1.2163
18735TIP3   OH277619   2.078   3.664   5.169  0.4005 -0.0187  0.5968
18735TIP3    H177620   2.038   3.598   5.112 -1.6850 -0.5636  2.5877
18735TIP3    H277621   2.170   3.638   5.174  0.2070 -1.0929 -0.9526
18736TIP3   OH277622   5.707   5.440  16.905 -0.9526  0.0949  0.7850
18736TIP3    H177623   5.625   5.389  16.906 -0.2881 -0.9818  0.5942
18736TIP3    H277624   5.678   5.531  16.900 -2.1665 -0.2402  1.4082
18737TIP3   OH277625   4.039   3.603  13.834  0.0123  0.3029 -0.2902
18737TIP3    H177626   4.021   3.523  13.784  1.5590  0.5552 -1.2897
18737TIP3    H277627   4.116   3.581  13.886  0.3669  1.0985 -0.4754
18738TIP3   OH277628   1.605   1.373  10.990 -0.0709  0.0424 -0.2337
18738TIP3    H177629   1.616   1.307  11.059  2.2360 -0.6613 -1.2409
18738TIP3    H277630   1.598   1.323  10.909 -3.8218  0.8139 -0.4707
18739TIP3   OH277631   2.137   1.501   0.878 -0.5404 -0.2151 -0.1089
18739TIP3    H177632   2.071   1.537   0.820 -0.8988  1.6018  1.4055
18739TIP3    H277633   2.104   1.517   0.966  1.2090 -0.6133  0.6443
18740TIP3   OH277634   2.558   3.678   6.001 -0.0549 -0.2642 -0.2458
18740TIP3    H177635   2.652   3.676   5.983 -0.2663  0.6478 -1.4901
18740TIP3    H277636   2.544   3.760   6.048 -0.1503 -0.6216  0.3416
18741TIP3   OH277637   0.055   5.761  15.200 -0.6187 -0.3509 -0.4847
18741TIP3    H177638  -0.031   5.803  15.198  0.4168  1.8158 -1.0315
18741TIP3    H277639   0.089   5.779  15.288  0.2071  0.7864 -1.0212
18742TIP3   OH277640   4.227   5.569   2.334  0.3302 -0.1558 -0.1022
18742TIP3    H177641   4.321   5.553   2.346  0.1792  0.2132  1.7983
18742TIP3    H277642   4.186   5.520   2.405 -0.6846  2.2847  1.0508
18743TIP3   OH277643   6.573   2.857  12.089 -0.4252 -0.6320 -0.0728
18743TIP3    H177644   6.510   2.787  12.070  0.3852 -1.4511  0.1913
18743TIP3    H277645   6.519   2.933  12.113 -1.2921 -1.8272  1.9338
18744TIP3   OH277646   1.289   6.407  15.376  0.6747 -0.3761 -0.2402
18744TIP3    H177647   1.347   6.435  15.446  2.4042  3.2580 -2.9505
18744TIP3    H277648   1.317   6.318  15.355  2.7341 -0.0618  1.0682
18745TIP3   OH277649   1.386   1.270   2.856 -0.4580 -0.0945 -0.2676
18745TIP3    H177650   1.296   1.242   2.835  0.5727 -1.3076 -3.3077
18745TIP3    H277651   1.400   1.237   2.945 -1.0595 -5.1470 -1.8589
18746TIP3   OH277652   5.225   1.854   2.728 -0.1327  0.2713 -0.6047
18746TIP3    H177653   5.248   1.946   2.744  0.5420 -0.1095  0.7233
18746TIP3    H277654   5.164   1.833   2.799  2.1903 -1.2081  1.0366
18747TIP3   OH277655   6.079   1.297  16.281  0.0977 -0.7777 -0.0300
18747TIP3    H177656   6.090   1.267  16.372 -1.4209 -2.0051 -0.2268
18747TIP3    H277657   6.054   1.218  16.233 -1.7578  0.3730 -1.0070
18748TIP3   OH277658   2.559   2.872  15.933 -0.1135  0.0551  0.1226
18748TIP3    H177659   2.508   2.882  15.853 -0.6767 -1.5463  0.2625
18748TIP3    H277660   2.519   2.933  15.995 -1.0353 -0.2492 -0.1710
18749TIP3   OH277661   2.676   4.331  12.111  0.0755  0.1666 -0.4031
18749TIP3    H177662   2.766   4.363  12.104  0.1645  0.2077  0.7408
18749TIP3    H277663   2.675   4.284  12.195 -0.5090 -1.3063 -1.2214
18750TIP3   OH277664   1.501   3.081   0.713 -0.0298  0.5010 -0.2481
18750TIP3    H177665   1.419   3.082   0.664 -0.2301  2.1954  0.0769
18750TIP3    H277666   1.479   3.123   0.796  0.3026 -2.3747  1.3290
18751TIP3   OH277667   4.846   6.085   2.080 -0.2472 -0.0544 -0.1127
18751TIP3    H177668   4.788   6.034   2.023  1.8560 -0.6395 -1.7974
18751TIP3    H277669   4.925   6.030   2.089 -0.0875  0.5180  2.4848
18752TIP3   OH277670   4.050   5.060  15.778 -0.3510 -0.8080 -0.4049
18752TIP3    H177671   3.998   5.012  15.842  0.3954 -1.1035 -0.0019
18752TIP3    H277672   3.993   5.072  15.703 -1.5652  0.3683  0.6749
18753TIP3   OH277673   4.240   2.573  10.952  0.1402 -0.5594  0.3732
18753TIP3    H177674   4.200   2.504  10.899  1.2714 -2.4698  1.9462
18753TIP3    H277675   4.233   2.542  11.042 -0.4849  1.9888  1.2450
18754TIP3   OH277676   3.591   6.300  15.611 -0.1929 -0.3957  0.3535
18754TIP3    H177677   3.531   6.276  15.683  0.1001 -0.1497  0.6820
18754TIP3    H277678   3.613   6.392  15.628 -1.8370  0.3305 -1.2647
18755TIP3   OH277679   6.673   3.388   0.930 -0.0912  0.4587 -0.1919
18755TIP3    H177680   6.713   3.434   0.856  1.9329 -0.6699  0.1691
18755TIP3    H277681   6.679   3.295   0.907  0.3822  0.1006  1.2967
18756TIP3   OH277682   0.266   1.676  13.442  0.5287  0.4185 -0.4057
18756TIP3    H177683   0.361   1.672  13.442  0.4808 -1.6391 -0.8727
18756TIP3    H277684   0.240   1.616  13.372 -1.0923  1.4177 -0.6826
18757TIP3   OH277685   6.295   5.851  16.078 -0.0005 -0.2899  0.3908
18757TIP3    H177686   6.365   5.909  16.048 -0.0574 -0.8928 -0.8932
18757TIP3    H277687   6.257   5.815  15.999 -0.3949 -1.6002  1.1587
18758TIP3   OH277688   2.580   1.852  13.526 -0.0169  0.2875  0.2804
18758TIP3    H177689   2.616   1.768  13.497 -0.9975  0.0657 -0.3608
18758TIP3    H277690   2.584   1.849  13.621  1.2059  0.0774  0.2207
18759TIP3   OH277691   3.668   6.570  15.434  0.6046  0.2610  0.0329
18759TIP3    H177692   3.706   6.554  15.520 -1.9325 -4.0636  0.4940
18759TIP3    H277693   3.589   6.621  15.451  0.2528 -0.3543  0.2605
18760TIP3   OH277694   1.858   2.984   3.983 -0.4141 -0.2021 -0.1946
18760TIP3    H177695   1.821   2.902   4.016 -0.6439 -0.7824 -1.8436
18760TIP3    H277696   1.819   2.995   3.896  1.6711  0.2571 -1.1150
18761TIP3   OH277697   2.858   5.023   5.657 -0.5747 -0.3170 -0.2150
18761TIP3    H177698   2.943   5.040   5.617  0.0077 -3.4862 -0.4278
18761TIP3    H277699   2.795   5.065   5.597  0.6441 -0.4128 -1.5939
18762TIP3   OH277700   1.909   2.997  14.613 -0.4913 -0.0794  0.0847
18762TIP3    H177701   1.856   3.002  14.692  0.0332 -2.3801  0.6098
18762TIP3    H277702   1.991   2.956  14.641 -0.0648 -0.3805 -1.5391
18763TIP3   OH277703   0.689   4.688  13.997 -0.7831  0.1903  0.4882
18763TIP3    H177704   0.716   4.753  14.062  0.5946  1.3845 -1.2524
18763TIP3    H277705   0.752   4.616  14.007  0.2932  0.9869 -0.4605
18764TIP3   OH277706   1.670   0.085  13.145 -0.4289 -0.8490  0.3481
18764TIP3    H177707   1.609   0.131  13.203  0.1214  0.0161  0.2487
18764TIP3    H277708   1.729   0.154  13.113 -0.9570 -1.2401 -1.5389
18765TIP3   OH277709   4.221   2.994   5.669  0.7757  0.2222  0.3084
18765TIP3    H177710   4.217   2.925   5.602  1.4003  0.8346 -0.3640
18765TIP3    H277711   4.150   2.972   5.729  0.8862 -0.9410  0.0330
18766TIP3   OH277712   2.505   5.181   0.656  0.1198 -0.2499  0.0264
18766TIP3    H177713   2.584   5.128   0.665 -0.7251 -1.6797 -0.6763
18766TIP3    H277714   2.454   5.136   0.589  0.7553  3.2154 -2.9338
18767TIP3   OH277715   4.911   6.706   5.504 -0.1049  0.3162  0.1569
18767TIP3    H177716   4.837   6.767   5.514 -0.8320 -0.1688 -2.0812
18767TIP3    H277717   4.980   6.758   5.463 -0.0305  0.1443  0.0634
18768TIP3   OH277718   5.029   6.323  13.295 -0.2610 -0.0818 -0.6814
18768TIP3    H177719   5.068   6.256  13.238  2.9427  0.7376  0.4337
18768TIP3    H277720   5.042   6.289  13.384  1.0329  1.8083 -0.1264
18769TIP3   OH277721   0.397   1.788  12.951 -0.1457  0.3529  0.5956
18769TIP3    H177722   0.336   1.715  12.956  2.4772 -2.0382 -0.6534
18769TIP3    H277723   0.382   1.826  12.864 -1.4942  1.3267  1.2365
18770TIP3   OH277724   2.083   1.562  14.839  0.2366 -0.2039  0.8066
18770TIP3    H177725   2.102   1.508  14.916 -0.4895 -1.0854  0.3735
18770TIP3    H277726   2.160   1.554  14.783  0.8237  0.5451  1.4974
18771TIP3   OH277727   3.212   3.909   6.585 -0.6061 -0.0962  0.0953
18771TIP3    H177728   3.164   3.958   6.518  0.6202  0.0312 -0.7079
18771TIP3    H277729   3.260   3.975   6.633  0.4180 -0.4188 -0.4678
18772TIP3   OH277730   0.239   3.130  15.508  0.4361 -0.5478  0.6426
18772TIP3    H177731   0.158   3.104  15.465  0.8544 -2.2430  0.8364
18772TIP3    H277732   0.279   3.192  15.448  0.5485 -2.1539 -1.0021
18773TIP3   OH277733   1.305   4.180   2.119 -0.0070  0.3310 -0.0135
18773TIP3    H177734   1.383   4.159   2.068 -1.0713  1.2014 -2.0120
18773TIP3    H277735   1.306   4.116   2.191  2.5709  0.3772  0.0389
18774TIP3   OH277736   5.104   1.979  12.366 -0.1615 -0.2853 -0.3026
18774TIP3    H177737   5.195   1.975  12.336 -0.3829  0.8453 -1.2037
18774TIP3    H277738   5.084   2.073  12.366 -1.0414 -0.4744  0.7723
18775TIP3   OH277739   2.607   1.839  15.989  0.0780 -0.1957  0.9968
18775TIP3    H177740   2.692   1.876  16.009  0.1709  0.7176 -0.9852
18775TIP3    H277741   2.569   1.899  15.925 -1.1010 -1.7949  0.1526
18776TIP3   OH277742   4.935   4.258  14.683  0.4358 -0.3005  0.4402
18776TIP3    H177743   4.992   4.189  14.650 -0.4786 -1.0481  0.3871
18776TIP3    H277744   4.901   4.301  14.604 -0.0064 -0.6354  0.4478
18777TIP3   OH277745   0.762   4.187   2.468  0.1064 -0.3706  0.4722
18777TIP3    H177746   0.784   4.226   2.383  1.5593  0.5688  1.2588
18777TIP3    H277747   0.691   4.241   2.502 -1.8973 -1.9698 -1.0109
18778TIP3   OH277748   3.249   3.024  10.752 -0.0593  0.2240 -0.3443
18778TIP3    H177749   3.166   3.058  10.786 -1.0324  1.2312 -3.5467
18778TIP3    H277750   3.237   2.929  10.750 -1.1246  0.3585 -0.7141
18779TIP3   OH277751   3.785   2.299   0.367 -0.3676 -0.5341  0.4325
18779TIP3    H177752   3.850   2.367   0.387 -0.2923  0.4747 -3.0030
18779TIP3    H277753   3.702   2.334   0.399 -0.1403  0.6497 -0.2865
18780TIP3   OH277754   5.755   4.878   3.567 -0.5831  0.1067  0.2169
18780TIP3    H177755   5.708   4.949   3.611  1.3315  0.4898  1.7570
18780TIP3    H277756   5.721   4.798   3.607  0.7269  0.4259  2.0308
18781TIP3   OH277757   1.455   3.180   1.936  0.1925  0.0217 -0.1229
18781TIP3    H177758   1.480   3.260   1.890  2.4090 -0.7966 -0.4276
18781TIP3    H277759   1.372   3.201   1.979  0.6582  2.4136 -0.3397
18782TIP3   OH277760   6.622   2.911   5.005  0.4022 -0.3372  0.6400
18782TIP3    H177761   6.667   2.907   5.089  1.6508 -0.4804 -0.0161
18782TIP3    H277762   6.692   2.898   4.940 -0.5991 -0.6247 -0.3980
18783TIP3   OH277763   3.232   5.355  11.739 -0.4005 -0.1649  0.0497
18783TIP3    H177764   3.242   5.337  11.833  0.9282 -1.2880 -0.3037
18783TIP3    H277765   3.137   5.352  11.725 -0.7518  1.7633  1.6877
18784TIP3   OH277766   6.582   4.059   5.534  0.0945 -0.4209  0.0295
18784TIP3    H177767   6.560   4.147   5.502  2.6152  0.3973  0.4306
18784TIP3    H277768   6.547   4.058   5.624  0.1339  0.1948  0.0567
18785TIP3   OH277769   3.217   6.184  12.484  0.0852  0.5182 -0.0061
18785TIP3    H177770   3.134   6.151  12.517  0.2494 -0.0149 -0.1198
18785TIP3    H277771   3.278   6.172  12.557  0.4345 -0.6032 -0.4643
18786TIP3   OH277772   4.903   2.644   1.457  0.1536 -0.3359 -0.5601
18786TIP3    H177773   4.908   2.554   1.424 -0.6891 -0.2811 -0.8555
18786TIP3    H277774   4.956   2.644   1.536  0.9697 -0.8496 -1.1053
18787TIP3   OH277775   2.407   4.617   4.227 -0.2541  0.1461  0.0441
18787TIP3    H177776   2.395   4.586   4.137 -0.1409  0.1667  0.0230
18787TIP3    H277777   2.327   4.666   4.246 -0.4705 -0.2246  0.1032
18788TIP3   OH277778   5.487   5.987   4.892  0.1495 -0.3652  0.0389
18788TIP3    H177779   5.562   6.027   4.936 -0.2572  0.1237  0.3010
18788TIP3    H277780   5.517   5.969   4.803 -0.0562  1.6775 -0.4536
18789TIP3   OH277781   4.625   4.776  15.044 -0.3036 -0.0965  0.0056
18789TIP3    H177782   4.564   4.789  15.117 -0.2395  2.0110 -0.3122
18789TIP3    H277783   4.712   4.781  15.084 -0.2388  2.3282 -0.3911
18790TIP3   OH277784   2.238   2.144  13.205  0.3967  0.4173 -0.0958
18790TIP3    H177785   2.221   2.128  13.113  0.2521  0.5299 -0.0892
18790TIP3    H277786   2.285   2.066  13.235 -0.3793 -0.0366 -0.0391
18791TIP3   OH277787   2.478   0.822  16.892  0.4712  0.4210  0.7309
18791TIP3    H177788   2.434   0.896  16.850 -0.6764  0.5696  2.1325
18791TIP3    H277789   2.487   0.757  16.822 -0.4864  1.0535 -0.0012
18792TIP3   OH277790   1.196   1.364   0.676  0.4864  0.3101  0.4357
18792TIP3    H177791   1.267   1.427   0.686  1.2765 -0.7247  1.4130
18792TIP3    H277792   1.126   1.398   0.732  0.7749  0.5076  0.6755
18793TIP3   OH277793   3.073   6.590  13.180  0.3413  0.7760 -0.0543
18793TIP3    H177794   3.004   6.525  13.167 -0.2474  1.4512 -0.3701
18793TIP3    H277795   3.123   6.557  13.255  1.4414 -1.2020 -1.6366
18794TIP3   OH277796   4.346   0.140  14.184 -0.3289 -0.1011 -0.1705
18794TIP3    H177797   4.274   0.193  14.151 -1.2588 -1.6713 -0.7223
18794TIP3    H277798   4.317   0.110  14.270  0.3607  0.6136  0.3152
18795TIP3   OH277799   4.509   2.402   0.238 -0.3176 -0.0362 -0.0287
18795TIP3    H177800   4.453   2.336   0.197  0.5496 -1.2378  0.6755
18795TIP3    H277801   4.577   2.351   0.281 -0.4729  1.2555  1.7984
18796TIP3   OH277802   3.547   1.717  15.948  0.1665  0.6357 -0.0522
18796TIP3    H177803   3.626   1.663  15.956 -0.0694  0.1082 -1.1155
18796TIP3    H277804   3.570   1.800  15.990  0.2072 -0.6168  2.4899
18797TIP3   OH277805   3.984   3.191   4.544 -0.1341  0.1580 -0.2148
18797TIP3    H177806   4.050   3.186   4.612 -1.1839  1.0959  0.8856
18797TIP3    H277807   3.940   3.106   4.547  0.0792  0.0543 -0.0131
18798TIP3   OH277808   5.904   5.488   0.599  0.0806  0.1769  0.1622
18798TIP3    H177809   5.907   5.439   0.517 -0.7853 -0.0500  0.2539
18798TIP3    H277810   5.857   5.430   0.660  0.9996  0.2130  0.9068
18799TIP3   OH277811   4.513   4.699   2.342 -0.2322 -0.7185  0.0678
18799TIP3    H177812   4.511   4.794   2.349  0.6041 -0.6399 -0.7031
18799TIP3    H277813   4.543   4.682   2.253  1.2801 -1.7059  0.7534
18800TIP3   OH277814   2.936   1.793  15.638  0.2872  0.3257  0.6111
18800TIP3    H177815   2.931   1.863  15.703  0.3194  0.5197  0.4055
18800TIP3    H277816   2.870   1.815  15.573 -0.3566 -0.3395  1.0288
18801TIP3   OH277817   0.699   1.085   3.938  0.4310 -0.3398  0.5244
18801TIP3    H177818   0.721   1.100   3.846 -1.3837  1.2250  0.3004
18801TIP3    H277819   0.777   1.115   3.986  1.3129 -0.9803 -0.4727
18802TIP3   OH277820   0.333   6.484   3.648 -0.3742  0.3822 -0.1098
18802TIP3    H177821   0.415   6.531   3.634 -1.0285  1.6723  0.2846
18802TIP3    H277822   0.275   6.518   3.580 -1.0706  0.6908  0.6296
18803TIP3   OH277823   6.653   3.154  11.639  0.1879 -0.0343 -0.3632
18803TIP3    H177824   6.588   3.100  11.684  2.1583 -2.7578 -0.6761
18803TIP3    H277825   6.678   3.221  11.704 -0.5801 -0.9357  0.8763
18804TIP3   OH277826   3.167   1.781   3.664 -0.3929  0.2993  0.0066
18804TIP3    H177827   3.231   1.710   3.657 -0.9043 -0.1677 -0.0553
18804TIP3    H277828   3.199   1.849   3.605  0.0740  0.0931  0.0207
18805TIP3   OH277829   0.264   3.425  13.301 -0.1658  0.0350 -0.2749
18805TIP3    H177830   0.202   3.465  13.240  0.0258  1.2543  0.3183
18805TIP3    H277831   0.348   3.431  13.257  0.0047  1.0950  0.1829
18806TIP3   OH277832   6.533   0.596   3.766 -0.2483 -0.3926 -0.0282
18806TIP3    H177833   6.536   0.690   3.782 -1.6905 -0.0491 -1.5740
18806TIP3    H277834   6.575   0.584   3.681  1.0715 -1.3178  0.7340
18807TIP3   OH277835   4.346   3.713  13.673 -0.4202 -0.6540 -0.7724
18807TIP3    H177836   4.399   3.687  13.749  2.5342 -0.5720 -2.7189
18807TIP3    H277837   4.259   3.728  13.709  0.5206 -2.1155  2.3496
18808TIP3   OH277838   5.126   4.058  11.654 -0.3399 -0.9590 -0.2085
18808TIP3    H177839   5.055   4.002  11.687 -0.1216 -1.5661 -0.7500
18808TIP3    H277840   5.178   4.000  11.598  0.0803 -0.2944 -0.5151
18809TIP3   OH277841   3.725   1.281  14.746  0.2436 -0.1579  0.1144
18809TIP3    H177842   3.723   1.367  14.788 -0.5297 -0.4790  0.7589
18809TIP3    H277843   3.818   1.262  14.733  0.6476 -0.9623  3.6087
18810TIP3   OH277844   3.467   2.889  15.614 -0.5147 -0.0094 -0.1143
18810TIP3    H177845   3.384   2.842  15.611 -0.0424 -1.0594  1.9560
18810TIP3    H277846   3.532   2.822  15.591  0.0147 -0.0079  1.3021
18811TIP3   OH277847   2.475   3.235  13.495 -0.3692 -0.4425 -0.3314
18811TIP3    H177848   2.482   3.214  13.588 -1.8823 -2.4269 -0.6243
18811TIP3    H277849   2.543   3.181  13.454  0.2000  0.3224 -0.4002
18812TIP3   OH277850   6.535   3.796  14.581  0.5798  0.0566  0.0167
18812TIP3    H177851   6.555   3.743  14.659  1.1326  0.7012  0.3146
18812TIP3    H277852   6.604   3.862  14.579 -0.1320  0.7942 -0.3348
18813TIP3   OH277853   1.755   5.106   5.720  0.4726 -0.5461  0.0599
18813TIP3    H177854   1.805   5.073   5.795 -1.1651 -1.2946  0.8536
18813TIP3    H277855   1.680   5.151   5.759  0.6014  0.7465 -1.1101
18814TIP3   OH277856   5.795   1.732   2.238 -0.3961 -0.1031  0.1401
18814TIP3    H177857   5.860   1.661   2.240 -0.8338 -0.5446 -0.9112
18814TIP3    H277858   5.847   1.811   2.223  0.0997 -0.1929  1.3515
18815TIP3   OH277859   3.127   3.009   5.003  0.5054  0.1474  0.2365
18815TIP3    H177860   3.132   2.949   5.077  0.7839  0.1131  0.1896
18815TIP3    H277861   3.118   2.953   4.926  0.8231  0.1611  0.1877
18816TIP3   OH277862   3.327   6.060   3.414  0.2436 -1.0137  0.4721
18816TIP3    H177863   3.345   6.126   3.481 -1.0114 -1.7335  1.5595
18816TIP3    H277864   3.409   6.050   3.367  0.4086  1.4689  0.1397
18817TIP3   OH277865   2.131   4.390  11.299  0.3964 -0.4920 -0.2595
18817TIP3    H177866   2.050   4.440  11.284 -0.1607 -1.0953  0.6484
18817TIP3    H277867   2.155   4.357  11.213  0.1325  0.3783 -0.6812
18818TIP3   OH277868   1.772   1.627   2.052 -0.8715 -0.6999  0.1780
18818TIP3    H177869   1.709   1.604   2.120 -0.3843 -1.1571  0.4767
18818TIP3    H277870   1.754   1.720   2.033 -1.5505 -0.7943  0.3435
18819TIP3   OH277871   1.125   0.453  13.752 -0.4086  0.0851  0.0475
18819TIP3    H177872   1.174   0.523  13.710 -1.1692  0.1136 -0.8070
18819TIP3    H277873   1.130   0.380  13.690 -1.8383  0.2400 -0.2730
18820TIP3   OH277874   3.531   5.899   5.937 -0.8008 -0.2112 -0.6124
18820TIP3    H177875   3.620   5.926   5.964 -0.5686 -0.2720 -1.3157
18820TIP3    H277876   3.490   5.980   5.908  0.1808 -0.6955 -3.5382
18821TIP3   OH277877   0.614   6.003  14.947  0.1111  0.2724  0.0441
18821TIP3    H177878   0.556   6.077  14.931  0.3651  0.4524 -0.0559
18821TIP3    H277879   0.634   6.007  15.040 -0.5831 -0.1939  0.2175
18822TIP3   OH277880   5.346   2.718   5.108  0.0053  0.0379  0.7655
18822TIP3    H177881   5.354   2.630   5.072  0.5866 -0.5176  2.2319
18822TIP3    H277882   5.303   2.706   5.192 -2.7835  1.4885 -0.4009
18823TIP3   OH277883   3.016   0.488  16.172  0.2163  0.0506 -0.5366
18823TIP3    H177884   3.106   0.514  16.153  0.8952 -0.6731  1.5286
18823TIP3    H277885   2.974   0.483  16.086  2.1190  0.4660 -1.5249
18824TIP3   OH277886   0.542   4.073   0.037  0.1539 -0.5880 -0.3416
18824TIP3    H177887   0.536   4.034   0.124 -0.1903  0.8398  0.2876
18824TIP3    H277888   0.455   4.110   0.021  0.5570  0.1717 -0.8042
18825TIP3   OH277889   1.659   6.033  15.012 -0.2099 -0.7043  0.3677
18825TIP3    H177890   1.592   6.085  15.055  0.5760 -0.7497  1.6619
18825TIP3    H277891   1.640   5.942  15.036  0.4140 -0.7020  0.8770
18826TIP3   OH277892   6.362   2.385  15.334  0.3604 -0.1405 -0.7955
18826TIP3    H177893   6.428   2.454  15.345  0.7701 -1.0442  2.9108
18826TIP3    H277894   6.413   2.307  15.311  0.2776 -0.1760 -0.8600
18827TIP3   OH277895   6.556   4.579  13.863  0.1968 -0.0757  0.4159
18827TIP3    H177896   6.527   4.615  13.947  0.4479 -1.8363  1.2972
18827TIP3    H277897   6.497   4.506  13.847  0.1269  0.2745 -0.9769
18828TIP3   OH277898   2.517   6.335   0.125 -0.3585 -0.0504  0.4871
18828TIP3    H177899   2.589   6.293   0.172  0.1872 -0.4930 -0.7015
18828TIP3    H277900   2.516   6.291   0.040 -2.2057 -0.2177  0.5883
18829TIP3   OH277901   3.677   0.809  14.277  0.5405 -0.0234  0.6365
18829TIP3    H177902   3.656   0.717  14.297 -0.1922 -0.0847 -0.3818
18829TIP3    H277903   3.744   0.832  14.341  1.2108 -1.4787  0.4857
18830TIP3   OH277904   4.828   0.945   0.167 -0.4933 -0.1971  0.2984
18830TIP3    H177905   4.812   0.877   0.101 -0.1042 -0.2748  0.2837
18830TIP3    H277906   4.800   0.906   0.250  2.0784 -1.3265  0.6894
18831TIP3   OH277907   4.502   2.096   2.189 -0.6987  0.2067 -0.1391
18831TIP3    H177908   4.421   2.105   2.140 -0.4446 -1.7432 -0.9636
18831TIP3    H277909   4.571   2.109   2.124 -0.3632 -1.9932 -0.2915
18832TIP3   OH277910   1.208   1.143   4.085 -0.0625 -0.0952  0.2751
18832TIP3    H177911   1.274   1.179   4.026 -0.4930 -0.6894 -0.5925
18832TIP3    H277912   1.155   1.218   4.110 -0.0115  0.1332 -0.2760
18833TIP3   OH277913   1.803   3.376   1.766 -0.3353 -0.3576  0.4397
18833TIP3    H177914   1.726   3.398   1.819 -0.8291 -2.0718  0.4557
18833TIP3    H277915   1.768   3.339   1.685  0.4590 -0.3652  0.0934
18834TIP3   OH277916   0.712   2.483   3.542  0.2678  0.2650  0.7961
18834TIP3    H177917   0.795   2.484   3.589  0.4812  0.2745  0.4279
18834TIP3    H277918   0.729   2.533   3.462  0.1816 -0.5073  0.2792
18835TIP3   OH277919   4.919   1.563   0.075  0.3502  0.2592 -0.2280
18835TIP3    H177920   4.986   1.623   0.042  0.1834  0.8665  0.5134
18835TIP3    H277921   4.876   1.529  -0.004  1.9634 -0.6613 -0.7325
18836TIP3   OH277922   5.485   1.573   4.080 -0.3301  0.0243  0.4921
18836TIP3    H177923   5.525   1.634   4.018  1.2298 -2.0307 -0.5650
18836TIP3    H277924   5.430   1.629   4.136  0.4728  2.2849 -0.9074
18837TIP3   OH277925   0.280   0.514   5.645  0.0032  0.0168  0.1011
18837TIP3    H177926   0.248   0.424   5.650 -0.9352  0.4260  1.7764
18837TIP3    H277927   0.289   0.531   5.551 -1.7979 -1.1090 -0.2901
18838TIP3   OH277928   5.103   6.689  11.633 -0.0744  0.1719 -0.2939
18838TIP3    H177929   5.095   6.720  11.543  0.6736 -0.0761 -0.4497
18838TIP3    H277930   5.078   6.764  11.687  1.1400  0.8500 -0.6770
18839TIP3   OH277931   6.203   3.160  12.959  0.0280  0.1893  0.5342
18839TIP3    H177932   6.251   3.086  12.922 -0.8048  0.2199 -0.6120
18839TIP3    H277933   6.202   3.142  13.053  0.6590 -0.7695  0.3676
18840TIP3   OH277934   5.210   3.002   1.537  0.1015 -0.0599  0.2225
18840TIP3    H177935   5.178   2.971   1.621 -1.4343 -0.7494 -0.5875
18840TIP3    H277936   5.268   3.074   1.558 -1.1235  0.4805  1.8187
18841TIP3   OH277937   5.689   5.619   5.053 -0.6869 -0.4097 -0.4111
18841TIP3    H177938   5.738   5.701   5.067 -1.1639 -0.0204 -1.0116
18841TIP3    H277939   5.673   5.617   4.959 -1.4148 -0.7743 -0.2788
18842TIP3   OH277940   4.779   5.255   5.738 -0.1725 -0.2405  0.4747
18842TIP3    H177941   4.827   5.176   5.712  2.1183  1.2815 -0.0752
18842TIP3    H277942   4.776   5.250   5.834 -2.5433 -2.3634  0.3650
18843TIP3   OH277943   3.130   6.387   3.010 -0.1663  0.2713 -0.0957
18843TIP3    H177944   3.089   6.322   3.066 -0.8267 -0.2579 -1.1802
18843TIP3    H277945   3.103   6.471   3.047 -0.1962 -0.0693  0.6583
18844TIP3   OH277946   5.890   2.933   5.680  0.6122 -0.1395  0.1618
18844TIP3    H177947   5.871   2.894   5.594  2.4585 -0.4864 -0.0914
18844TIP3    H277948   5.908   2.859   5.737 -1.3095  0.0393  1.0744
18845TIP3   OH277949   1.790   3.433   4.636  0.1013 -0.3740 -0.2955
18845TIP3    H177950   1.799   3.474   4.549  2.1126  1.4469  0.7148
18845TIP3    H277951   1.748   3.500   4.690  0.6398 -0.7680  0.6282
18846TIP3   OH277952   6.441   2.167   5.870  0.3282  0.0275 -0.0020
18846TIP3    H177953   6.393   2.247   5.850  1.1977  0.7830  0.8578
18846TIP3    H277954   6.490   2.188   5.950  0.0043 -1.5931  0.6508
18847TIP3   OH277955   3.209   4.541  16.745  0.0261  0.0348  0.2457
18847TIP3    H177956   3.287   4.548  16.691  1.0484  2.8906  1.9498
18847TIP3    H277957   3.224   4.464  16.799  1.3977  0.2095  0.1342
18848TIP3   OH277958   5.975   3.975  11.620  0.5106 -0.5501  0.0390
18848TIP3    H177959   5.913   4.031  11.665  0.3364 -0.9856  0.3460
18848TIP3    H277960   5.969   4.001  11.528  0.0799 -0.4058  0.1096
18849TIP3   OH277961   2.980   4.354   2.030 -0.2062  0.1764 -0.3479
18849TIP3    H177962   3.034   4.421   1.989 -0.2551  0.9751  0.8690
18849TIP3    H277963   2.981   4.281   1.967  1.6502  0.4576 -0.6914
18850TIP3   OH277964   0.552   5.347  16.200 -0.1220 -0.6565 -0.4100
18850TIP3    H177965   0.601   5.281  16.249 -0.8906 -0.5941  0.4560
18850TIP3    H277966   0.466   5.351  16.243 -0.4787  0.0837 -1.1640
18851TIP3   OH277967   1.820   0.684  12.684  0.1493  0.2736 -0.2617
18851TIP3    H177968   1.792   0.775  12.678  0.8484  0.5245  0.1517
18851TIP3    H277969   1.883   0.674  12.613 -0.6748 -0.1744 -0.9371
18852TIP3   OH277970   2.441   0.146  11.235 -0.1418  0.8323  0.0653
18852TIP3    H177971   2.512   0.170  11.175 -1.5649  0.6763 -1.7618
18852TIP3    H277972   2.479   0.080  11.293  1.0626  0.3162 -1.2649
18853TIP3   OH277973   5.222   2.016   5.843  0.8462  0.5596  0.2173
18853TIP3    H177974   5.273   2.007   5.924  1.8875  0.1412 -0.4781
18853TIP3    H277975   5.148   2.072   5.868  2.8002  3.0240  0.7428
18854TIP3   OH277976   0.852   4.445  16.584  0.4432 -0.2958 -0.2988
18854TIP3    H177977   0.786   4.471  16.648  0.9187  0.3422 -0.0649
18854TIP3    H277978   0.845   4.511  16.515  0.0780 -0.8607 -0.8110
18855TIP3   OH277979   3.732   1.325  10.535  0.3105  0.3559 -0.4632
18855TIP3    H177980   3.700   1.330  10.625  2.5431 -0.6531  0.4281
18855TIP3    H277981   3.718   1.413  10.500  0.6479  1.1507  1.3190
18856TIP3   OH277982   1.806   5.190  13.745 -0.1333  0.3027 -0.1780
18856TIP3    H177983   1.833   5.200  13.654  2.4498 -0.1649  0.4948
18856TIP3    H277984   1.767   5.103  13.750 -1.5097  0.8531 -1.1017
18857TIP3   OH277985   2.159   5.370  13.001 -0.1601  0.2987 -0.2396
18857TIP3    H177986   2.143   5.451  12.953 -1.0633 -0.4148 -1.1528
18857TIP3    H277987   2.101   5.306  12.961 -1.6501 -0.0954  2.4081
18858TIP3   OH277988   2.778   1.691   5.388 -0.6679  0.5917  0.5596
18858TIP3    H177989   2.809   1.629   5.322 -2.5691  0.2096 -0.0134
18858TIP3    H277990   2.851   1.699   5.450  0.4114 -0.5292 -0.5376
18859TIP3   OH277991   0.435   4.176  15.496  0.0284 -0.4342  0.0209
18859TIP3    H177992   0.364   4.225  15.539 -0.6773 -0.0940 -1.4956
18859TIP3    H277993   0.514   4.203  15.544 -0.1089  3.4656 -1.7331
18860TIP3   OH277994   1.199   6.647   4.077  0.4245 -0.0452  0.0429
18860TIP3    H177995   1.165   6.724   4.032  1.3078 -0.2468 -1.0123
18860TIP3    H277996   1.276   6.679   4.124  1.2253 -0.4157 -0.9958
18861TIP3   OH277997   4.103   5.519   5.109  0.3192 -0.5289 -0.0883
18861TIP3    H177998   4.071   5.458   5.176  2.2684  0.3947  1.7780
18861TIP3    H277999   4.071   5.605   5.137  0.9119 -0.1767 -0.4708
18862TIP3   OH278000   4.132   1.906   2.598  0.1647  0.1863 -0.3440
18862TIP3    H178001   4.161   1.903   2.507 -3.7212 -2.3072 -1.6326
18862TIP3    H278002   4.210   1.882   2.648  2.0035  0.0689 -3.1027
18863TIP3   OH278003   2.427   2.367   4.385 -0.4009 -0.0803  0.2423
18863TIP3    H178004   2.475   2.444   4.355 -0.1228  0.1723  1.2915
18863TIP3    H278005   2.467   2.345   4.469  2.7589 -4.2845 -2.1520
18864TIP3   OH278006   3.480   4.047  15.068 -0.4169 -0.1152 -0.0762
18864TIP3    H178007   3.402   4.064  15.015  0.2843 -1.5553 -1.5919
18864TIP3    H278008   3.551   4.090  15.022 -0.1105  0.2366  0.7083
18865TIP3   OH278009   3.552   4.444  11.517  0.5636 -0.2576 -0.5153
18865TIP3    H178010   3.623   4.502  11.489  0.2654  0.1508 -0.4391
18865TIP3    H278011   3.595   4.362  11.539  1.0161 -0.0076 -0.4580
18866TIP3   OH278012   6.179   4.840  11.496  0.0957  0.7635 -0.1154
18866TIP3    H178013   6.271   4.864  11.483  0.0711  0.1864 -1.5481
18866TIP3    H278014   6.180   4.778  11.568  0.7603  1.1734  0.2391
18867TIP3   OH278015   3.864   6.542   4.679 -0.4402 -0.3972 -0.4131
18867TIP3    H178016   3.818   6.464   4.709 -1.2296 -0.1426 -0.9422
18867TIP3    H278017   3.834   6.611   4.739 -1.8481  0.0646 -1.6088
18868TIP3   OH278018   1.323   1.256  11.202 -0.1459 -0.2703  0.4333
18868TIP3    H178019   1.336   1.167  11.170  1.0688  0.3590 -0.8637
18868TIP3    H278020   1.397   1.272  11.260  0.2099  0.2717 -0.1724
18869TIP3   OH278021   4.106   1.236  14.946 -0.3353  0.5674 -0.2879
18869TIP3    H178022   4.081   1.308  14.889 -0.2453 -0.1490 -1.2565
18869TIP3    H278023   4.192   1.208  14.913  0.6955  1.5157  1.5462
18870TIP3   OH278024   3.521   1.438   5.782 -0.4433 -0.3870 -0.2588
18870TIP3    H178025   3.475   1.522   5.786 -1.2252 -0.8499  1.0341
18870TIP3    H278026   3.583   1.448   5.710  0.6602  1.9030  0.9428
18871TIP3   OH278027   5.985   1.076   4.757  0.0957 -0.3921  0.6781
18871TIP3    H178028   6.076   1.067   4.784  0.7359  2.0026 -0.5117
18871TIP3    H278029   5.986   1.151   4.697 -2.1760 -2.0242 -1.5007
18872TIP3   OH278030   2.996   4.714  11.777 -0.5062 -0.3410 -0.4166
18872TIP3    H178031   2.903   4.730  11.789 -0.2338  1.4948 -0.5197
18872TIP3    H278032   3.036   4.801  11.787  1.3751 -1.3888  1.4166
18873TIP3   OH278033   2.650   1.092  14.821 -0.0698  0.8079 -0.3803
18873TIP3    H178034   2.624   1.175  14.782 -1.2935  0.4034 -0.4561
18873TIP3    H278035   2.615   1.025  14.762 -1.9121  0.1837  1.3296
18874TIP3   OH278036   2.026   1.301   5.313  0.0944 -0.2904  0.2379
18874TIP3    H178037   2.091   1.238   5.281 -0.7936 -0.6762 -0.8737
18874TIP3    H278038   2.077   1.369   5.357  1.0597 -1.8586  1.5924
18875TIP3   OH278039   1.611   1.486  16.045  0.5432  0.0414  0.0694
18875TIP3    H178040   1.643   1.413  16.097  1.3433 -0.9493 -1.7678
18875TIP3    H278041   1.600   1.557  16.108  0.5458 -1.4003  1.7413
18876TIP3   OH278042   6.223   5.331  11.041  0.0462 -0.3654 -0.1575
18876TIP3    H178043   6.135   5.310  11.008  0.1948 -1.5441  0.1729
18876TIP3    H278044   6.282   5.291  10.978  0.3347 -1.3366  0.7264
18877TIP3   OH278045   1.137   6.229  12.099  0.0494  0.0407 -1.2657
18877TIP3    H178046   1.044   6.208  12.105 -0.3329  1.6467 -1.1210
18877TIP3    H278047   1.168   6.181  12.023 -0.3707 -2.2896 -0.0216
18878TIP3   OH278048   2.078   1.703  16.150 -0.2584 -0.4538 -0.2378
18878TIP3    H178049   2.153   1.669  16.199 -0.7240 -0.5898  0.3824
18878TIP3    H278050   2.015   1.631  16.149 -1.0764  0.2374  0.7183
18879TIP3   OH278051   2.593   0.246  12.377 -0.2736 -0.1583  0.4002
18879TIP3    H178052   2.525   0.295  12.330  1.0178  0.4255 -0.8769
18879TIP3    H278053   2.674   0.266  12.330  0.8592 -0.4999  2.1822
18880TIP3   OH278054   6.120   6.704  13.832  0.2582  0.4714  0.1976
18880TIP3    H178055   6.142   6.618  13.867  3.0938  0.7453 -0.8409
18880TIP3    H278056   6.105   6.758  13.909  0.4758 -0.4240  0.8745
18881TIP3   OH278057   6.322   4.102   4.708  0.4973 -0.4981  0.2241
18881TIP3    H178058   6.374   4.089   4.628 -1.0649  1.3412 -1.1331
18881TIP3    H278059   6.382   4.148   4.768  0.6340  1.2261 -1.1731
18882TIP3   OH278060   3.505   6.440   1.436 -0.5203 -0.4804  0.3383
18882TIP3    H178061   3.503   6.535   1.439 -1.2803 -0.5312  1.5593
18882TIP3    H278062   3.463   6.412   1.517 -0.5730 -1.8562 -0.1495
18883TIP3   OH278063   5.860   2.345  11.296 -0.3298 -0.8718  0.4276
18883TIP3    H178064   5.799   2.337  11.369 -2.4717 -0.8651 -1.3320
18883TIP3    H278065   5.849   2.264  11.246  0.2745 -0.3796 -0.5184
18884TIP3   OH278066   6.078   6.635  16.123 -0.5287  0.1067  0.0007
18884TIP3    H178067   6.008   6.586  16.079  0.0834 -1.3137  0.5705
18884TIP3    H278068   6.050   6.641  16.214  0.2581 -0.8180  0.3152
18885TIP3   OH278069   3.148   0.665  15.665 -0.0104 -0.4084  0.7217
18885TIP3    H178070   3.239   0.677  15.637 -0.1199  0.5101  0.7595
18885TIP3    H278071   3.107   0.750  15.650 -1.2007 -1.1917 -0.5475
18886TIP3   OH278072   2.202   1.074  11.512 -0.1399  0.3624 -0.1736
18886TIP3    H178073   2.136   1.016  11.475  0.3778  0.8753 -1.9818
18886TIP3    H278074   2.283   1.051  11.467  0.6136  0.7401  0.9505
18887TIP3   OH278075   3.213   6.503  13.392 -0.7934  0.1111 -0.1638
18887TIP3    H178076   3.292   6.456  13.417 -0.2013  1.6949  1.0519
18887TIP3    H278077   3.173   6.530  13.475 -2.4525 -0.3966 -0.7673
18888TIP3   OH278078   4.806   0.455   4.940 -0.2020 -0.4309  0.2555
18888TIP3    H178079   4.744   0.383   4.948  0.2538 -0.7340  1.1155
18888TIP3    H278080   4.828   0.458   4.847 -1.5091 -0.3092 -0.0636
18889TIP3   OH278081   5.216   3.428  11.266  0.1290  0.5118  0.2141
18889TIP3    H178082   5.289   3.448  11.208 -0.1995  1.0041 -0.0268
18889TIP3    H278083   5.155   3.500  11.254 -1.1865 -0.7400 -0.8605
18890TIP3   OH278084   4.793   4.140  13.095  0.1054  0.5553  0.1186
18890TIP3    H178085   4.731   4.196  13.143  0.4215  2.0345 -1.1576
18890TIP3    H278086   4.749   4.122  13.012  0.4422 -0.2823  0.1150
18891TIP3   OH278087   1.670   1.275   6.130 -0.2248 -0.3008  0.6890
18891TIP3    H178088   1.652   1.283   6.224  1.7200  1.6409  0.9519
18891TIP3    H278089   1.684   1.365   6.101  3.9299 -1.1972 -0.4351
18892TIP3   OH278090   3.886   4.751   5.524  0.2602  0.4142 -0.0963
18892TIP3    H178091   3.815   4.764   5.587  0.7238  0.2965  0.4462
18892TIP3    H278092   3.890   4.656   5.512 -1.4057  0.5669 -2.1075
18893TIP3   OH278093   3.550   3.193   0.275  0.0466  0.2201  0.3997
18893TIP3    H178094   3.529   3.102   0.296  2.8122  0.1169  3.0885
18893TIP3    H278095   3.613   3.187   0.203  0.0474  0.0246  0.4168
18894TIP3   OH278096   3.581   2.580  16.793  0.3314 -0.2803 -0.4958
18894TIP3    H178097   3.491   2.613  16.788  0.2325 -0.8351 -3.2544
18894TIP3    H278098   3.604   2.586  16.886 -1.8649  1.6683 -0.0343
18895TIP3   OH278099   5.749   0.419   4.535 -0.4891 -0.3078  0.6843
18895TIP3    H178100   5.787   0.338   4.569 -0.8298  0.0852  2.0390
18895TIP3    H278101   5.822   0.482   4.535 -0.0532 -0.7888 -1.0239
18896TIP3   OH278102   3.684   0.702  12.297 -0.4443  0.4481  0.3254
18896TIP3    H178103   3.766   0.741  12.268 -0.0729 -0.2369  0.4291
18896TIP3    H278104   3.616   0.754  12.255  0.0551  0.7493 -0.1146
18897TIP3   OH278105   4.587   0.235  16.947  0.3017  0.2743  0.4298
18897TIP3    H178106   4.628   0.155  16.981 -0.3262 -0.2252  0.0271
18897TIP3    H278107   4.601   0.300  17.015 -2.4788 -1.1591  2.4754
18898TIP3   OH278108   1.182   2.323   5.663 -0.0863 -0.5806  0.0505
18898TIP3    H178109   1.252   2.259   5.673  0.1605 -0.0531  1.8167
18898TIP3    H278110   1.223   2.407   5.682 -0.9934 -0.1748  0.2640
18899TIP3   OH278111   5.826   0.744  15.099 -0.1008 -0.0467 -0.7217
18899TIP3    H178112   5.819   0.787  15.184  1.1555 -0.2606 -0.4950
18899TIP3    H278113   5.741   0.703  15.086 -0.9790  1.6480 -0.4828
18900TIP3   OH278114   3.350   5.381  11.487  0.0344  0.5058  0.0212
18900TIP3    H178115   3.311   5.327  11.418  0.3495  0.0634  0.1908
18900TIP3    H278116   3.284   5.382  11.556  0.0126  0.3711  0.0022
18901TIP3   OH278117   5.490   6.506  14.184  0.1567  0.3316 -0.4081
18901TIP3    H178118   5.473   6.577  14.121 -0.7187 -0.2851 -0.8849
18901TIP3    H278119   5.585   6.499  14.188  0.2564  1.8135 -0.0539
18902TIP3   OH278120   2.594   1.821  15.672 -0.3312  0.2708  0.1193
18902TIP3    H178121   2.508   1.783  15.653  0.1930  0.1338 -2.1759
18902TIP3    H278122   2.601   1.896  15.612  0.7958  0.8119  0.9063
18903TIP3   OH278123   2.283   6.536   3.702 -0.5210 -0.0712 -0.1857
18903TIP3    H178124   2.264   6.444   3.719  2.8724 -1.1126 -1.6182
18903TIP3    H278125   2.220   6.562   3.635 -1.3658 -1.4124  0.0802
18904TIP3   OH278126   5.686   4.715   0.484  0.1479  0.6922 -0.0905
18904TIP3    H178127   5.686   4.722   0.389  0.0766 -0.3658 -0.1809
18904TIP3    H278128   5.594   4.705   0.507  0.1865  0.6784  0.0579
18905TIP3   OH278129   0.027   2.718  11.779 -0.3009 -0.4025  0.5216
18905TIP3    H178130   0.092   2.759  11.721 -1.4926  0.6081 -0.1097
18905TIP3    H278131  -0.035   2.677  11.719 -2.1109  1.5084  1.0389
18906TIP3   OH278132   3.403   4.185   4.243 -0.0095 -0.5057  0.4044
18906TIP3    H178133   3.408   4.201   4.337  1.5896 -0.2719  0.2787
18906TIP3    H278134   3.346   4.254   4.210  0.5195  0.2163  1.0048
18907TIP3   OH278135   4.384   4.085  14.392  0.2489 -0.0429  0.3964
18907TIP3    H178136   4.381   4.154  14.325 -1.6660 -0.4890 -0.0013
18907TIP3    H278137   4.469   4.043  14.379  0.4264  0.7089 -0.9334
18908TIP3   OH278138   1.388   5.210  11.502  0.6437 -0.0488  0.3829
18908TIP3    H178139   1.309   5.228  11.451  0.8796  0.5006  0.2163
18908TIP3    H278140   1.361   5.141  11.564  0.4355 -0.9310 -0.6745
18909TIP3   OH278141   0.492   1.319  16.969 -0.3499 -0.2357  0.1472
18909TIP3    H178142   0.581   1.321  17.006  0.1034 -0.9481 -0.8951
18909TIP3    H278143   0.484   1.402  16.922 -0.3860  0.0016  0.5642
18910TIP3   OH278144   6.185   2.584   5.057  0.7068  0.7122  0.6700
18910TIP3    H178145   6.118   2.575   4.989  2.4530  1.9436 -1.2154
18910TIP3    H278146   6.136   2.616   5.133 -0.7195  2.5494 -0.9575
18911TIP3   OH278147   5.871   2.563   5.703 -0.2144 -0.0867  0.3993
18911TIP3    H178148   5.946   2.616   5.732  1.1658 -1.9727  0.3985
18911TIP3    H278149   5.890   2.544   5.611 -0.7048 -0.5185  0.3868
18912TIP3   OH278150   2.012   2.096   4.289  0.2869 -0.3823 -0.1004
18912TIP3    H178151   2.090   2.084   4.343  0.4526  2.2810  0.3262
18912TIP3    H278152   2.046   2.126   4.204 -0.2254 -0.3291 -0.2870
18913TIP3   OH278153   2.793   4.535  17.026  0.0586  0.6263 -0.3442
18913TIP3    H178154   2.874   4.489  17.005 -1.0487 -1.3280 -0.4397
18913TIP3    H278155   2.776   4.513  17.118 -1.1376 -0.2247 -0.7508
18914TIP3   OH278156   0.531   4.396   1.548 -0.0794 -0.0158 -0.3795
18914TIP3    H178157   0.617   4.433   1.569 -0.2313  0.3419 -0.3776
18914TIP3    H278158   0.549   4.307   1.519  0.3831  0.3613 -1.2675
18915TIP3   OH278159   6.671   6.083   5.071  0.8254 -0.5190  0.5515
18915TIP3    H178160   6.722   6.034   5.136  2.3724 -0.5910 -0.7013
18915TIP3    H278161   6.718   6.166   5.062  0.1117 -0.1561  0.1701
18916TIP3   OH278162   6.360   2.036  12.034 -0.2962 -0.4897  0.1367
18916TIP3    H178163   6.360   2.056  12.128 -1.3961  0.2763 -0.0166
18916TIP3    H278164   6.448   2.002  12.017  0.2437  0.3056  1.2406
18917TIP3   OH278165   3.357   5.517  16.380  0.8539 -0.1346 -0.4722
18917TIP3    H178166   3.357   5.592  16.320  0.2718  0.9202  0.8256
18917TIP3    H278167   3.271   5.518  16.420  1.0231 -1.2041 -0.0539
18918TIP3   OH278168   0.557   1.385   6.050  0.1946  0.1364 -0.0182
18918TIP3    H178169   0.516   1.301   6.065  1.4205 -0.7383 -1.3799
18918TIP3    H278170   0.648   1.373   6.076  0.3653  1.0604 -0.1559
18919TIP3   OH278171   1.028   2.272   3.481  0.4954 -0.3208  0.4526
18919TIP3    H178172   1.028   2.178   3.500 -0.0926 -0.0931  1.6196
18919TIP3    H278173   1.093   2.282   3.411  1.5880 -1.4023  1.2859
18920TIP3   OH278174   6.602   0.645  13.676  0.6208  0.1788  0.3350
18920TIP3    H178175   6.624   0.560  13.712  0.3194  0.8984  2.2609
18920TIP3    H278176   6.587   0.701  13.752  1.8445  2.2360 -0.8641
18921TIP3   OH278177   3.347   2.737  11.612 -0.1095 -0.2827 -0.3375
18921TIP3    H178178   3.403   2.794  11.665 -0.5280  0.1520 -0.3578
18921TIP3    H278179   3.400   2.716  11.535 -0.0456  0.2704 -0.4445
18922TIP3   OH278180   6.513   2.445   2.765 -0.4171  0.0390 -0.4988
18922TIP3    H178181   6.455   2.502   2.715  0.3007  1.0444 -0.1903
18922TIP3    H278182   6.469   2.435   2.850 -0.2584  0.6082 -0.3485
18923TIP3   OH278183   0.434   5.227   0.002  0.1711  0.4961 -0.6408
18923TIP3    H178184   0.388   5.181  -0.067  0.0624 -0.3475 -0.0199
18923TIP3    H278185   0.473   5.157   0.055  0.1867  1.1287  0.1881
18924TIP3   OH278186   4.779   5.831   0.311 -0.6638  0.3877  0.1507
18924TIP3    H178187   4.792   5.761   0.375  1.6275  0.7465  0.1171
18924TIP3    H278188   4.787   5.912   0.363 -0.3231  0.6606 -0.3312
18925TIP3   OH278189   4.860   0.125   2.508 -0.1487  0.1976 -0.1844
18925TIP3    H178190   4.827   0.062   2.444 -0.6912 -0.1481  0.4165
18925TIP3    H278191   4.784   0.146   2.562  0.4395 -0.0353  0.7580
18926TIP3   OH278192   6.015   0.716   4.756 -0.2259 -0.0062  0.2876
18926TIP3    H178193   6.101   0.711   4.797 -1.5130  1.1482  3.3094
18926TIP3    H278194   6.012   0.642   4.696  2.7908 -0.1503  0.2562
18927TIP3   OH278195   4.644   6.750  17.089 -0.4118  0.5306 -0.0653
18927TIP3    H178196   4.605   6.807  17.155 -1.0734  0.3048 -0.2599
18927TIP3    H278197   4.626   6.661  17.120  1.4015  0.3954  0.7134
18928TIP3   OH278198   0.248   0.369   2.249  0.3870 -0.2459  0.0869
18928TIP3    H178199   0.327   0.321   2.226  0.2412 -0.0027 -0.9564
18928TIP3    H278200   0.176   0.308   2.232  0.3139 -0.2688  0.4756
18929TIP3   OH278201   2.161   5.344  11.650 -0.1823  0.2027 -0.1191
18929TIP3    H178202   2.158   5.346  11.555  0.0139  0.4726 -0.1205
18929TIP3    H278203   2.153   5.436  11.676  1.8816  0.3520  0.0628
18930TIP3   OH278204   0.597   5.396  15.290 -0.0051  0.3200  0.0823
18930TIP3    H178205   0.632   5.307  15.296  1.5113  0.7839 -1.3932
18930TIP3    H278206   0.503   5.386  15.303  0.2395 -1.4224  0.5773
18931TIP3   OH278207   2.366   4.303   4.940  0.3183 -0.2728  0.3235
18931TIP3    H178208   2.437   4.256   4.895 -0.4118 -0.0358 -1.1061
18931TIP3    H278209   2.292   4.242   4.939 -0.0583  0.1821  0.1405
18932TIP3   OH278210   2.264   3.506  16.432  0.3071 -0.4389 -0.2220
18932TIP3    H178211   2.260   3.416  16.398  0.7417  0.1646 -1.9264
18932TIP3    H278212   2.279   3.496  16.526  2.0669 -2.1385 -0.6555
18933TIP3   OH278213   5.926   3.720  14.509  0.4289 -0.1969 -0.6017
18933TIP3    H178214   5.912   3.642  14.563  0.9614  0.1182 -0.0015
18933TIP3    H278215   5.971   3.781  14.567 -1.1253  1.0430 -0.6603
18934TIP3   OH278216   0.401   6.256  14.570 -0.3008  0.0354  0.4318
18934TIP3    H178217   0.450   6.192  14.518  1.2163  0.7839  0.9175
18934TIP3    H278218   0.362   6.314  14.504 -0.5682 -0.5787  0.0417
18935TIP3   OH278219   0.369   6.401  13.959  0.6946 -0.3741 -0.0877
18935TIP3    H178220   0.331   6.326  13.913 -1.6123  0.8144 -0.1988
18935TIP3    H278221   0.294   6.446  13.997  2.2911  0.3136  2.3880
18936TIP3   OH278222   3.960   0.823   3.967  0.1963  0.1554 -0.4756
18936TIP3    H178223   3.984   0.732   3.947  0.9502  0.0020  1.0019
18936TIP3    H278224   3.920   0.856   3.887 -0.4452 -1.6106 -0.9015
18937TIP3   OH278225   2.784   3.368  14.672 -0.5645 -0.1200 -0.0235
18937TIP3    H178226   2.851   3.388  14.607 -0.3130  1.0749  0.5852
18937TIP3    H278227   2.828   3.377  14.756 -0.9123 -1.5678  0.3383
18938TIP3   OH278228   3.079   5.551  12.395 -0.0262 -0.7374  0.2727
18938TIP3    H178229   3.073   5.521  12.304 -1.3403 -0.8177  0.3774
18938TIP3    H278230   3.095   5.645  12.388  2.0040 -1.0790 -0.0413
18939TIP3   OH278231   5.300   0.279   3.294 -0.2526  0.3110  0.0428
18939TIP3    H178232   5.378   0.317   3.254  0.1131  1.2810  1.6077
18939TIP3    H278233   5.286   0.197   3.247  1.0711  0.6424 -0.9721
18940TIP3   OH278234   3.527   6.442   2.693 -0.0418  0.2754  0.2308
18940TIP3    H178235   3.476   6.485   2.624  0.7708  0.4864 -0.2466
18940TIP3    H278236   3.491   6.477   2.774 -2.5901 -1.7462  0.0112
18941TIP3   OH278237   0.664   3.812  14.265  0.4656 -0.5205 -0.6233
18941TIP3    H178238   0.750   3.827  14.303  1.0164 -0.7931 -1.7224
18941TIP3    H278239   0.682   3.788  14.174 -0.7276 -1.3410 -0.6651
18942TIP3   OH278240   4.431   6.727  13.916 -0.2926  0.3646  0.0577
18942TIP3    H178241   4.465   6.808  13.955 -2.8723  0.9587  1.1953
18942TIP3    H278242   4.458   6.732  13.824  3.4571  0.3149  1.0394
18943TIP3   OH278243   2.910   3.274  15.691 -0.1055  0.7965 -0.6992
18943TIP3    H178244   3.001   3.274  15.720  0.0653 -0.9798 -1.1820
18943TIP3    H278245   2.866   3.336  15.749  1.9265  3.6939 -2.1328
18944TIP3   OH278246   5.606   4.250   1.980 -0.0463  0.4376  0.1863
18944TIP3    H178247   5.587   4.264   1.887 -0.9156  0.0030  0.2917
18944TIP3    H278248   5.688   4.202   1.981 -0.9439 -1.1471 -0.4191
18945TIP3   OH278249   5.654   3.065   4.501  0.0845  0.0931 -0.3603
18945TIP3    H178250   5.722   3.026   4.556  1.6203  2.8143 -0.2379
18945TIP3    H278251   5.607   3.124   4.560  0.1589  1.1710 -1.3556
18946TIP3   OH278252   3.412   4.998  16.019  0.2947  0.3148 -0.0937
18946TIP3    H178253   3.417   5.093  16.030 -1.6234  0.2733  1.2742
18946TIP3    H278254   3.332   4.983  15.970 -0.8147 -0.7331  1.9444
18947TIP3   OH278255   2.051   2.405  13.610  0.0355  0.3068  0.2584
18947TIP3    H178256   2.081   2.352  13.535 -3.0158  1.3180 -1.7925
18947TIP3    H278257   2.118   2.471  13.621  1.1601 -0.6305 -0.7834
18948TIP3   OH278258   3.216   4.374   3.618  0.5859 -0.1118  1.0089
18948TIP3    H178259   3.249   4.414   3.698 -1.1440 -0.6482  2.0001
18948TIP3    H278260   3.167   4.297   3.648  0.3118 -0.5755 -0.5948
18949TIP3   OH278261   3.677   4.968   2.584  0.9124 -0.2432  0.0005
18949TIP3    H178262   3.671   4.880   2.546  2.3663  0.2915 -1.5508
18949TIP3    H278263   3.729   5.017   2.520 -2.9568  2.7333 -0.9912
18950TIP3   OH278264   3.241   5.373   1.333  0.1229  0.3417 -0.1597
18950TIP3    H178265   3.224   5.299   1.275  0.3484  0.6592 -0.6353
18950TIP3    H278266   3.300   5.338   1.400  0.4524  0.1674 -0.5428
18951TIP3   OH278267   2.505   4.539  12.576  0.3587 -0.3048 -0.1422
18951TIP3    H178268   2.587   4.576  12.608 -0.1250  0.8679 -0.2058
18951TIP3    H278269   2.524   4.448  12.557  1.0543 -0.6522  2.0980
18952TIP3   OH278270   1.497   0.806  15.334 -0.4136  0.4330 -0.2275
18952TIP3    H178271   1.450   0.819  15.416  0.1039  1.3013 -0.0696
18952TIP3    H278272   1.585   0.840  15.351  0.7879 -2.5678 -0.0062
18953TIP3   OH278273   4.463   0.825   4.371 -0.7951  0.0454  0.8479
18953TIP3    H178274   4.537   0.795   4.423  0.7221  1.5941 -0.3881
18953TIP3    H278275   4.388   0.819   4.431  0.4263 -0.8670  2.3206
18954TIP3   OH278276   2.732   4.348   4.666  0.0962 -0.2439 -0.2252
18954TIP3    H178277   2.702   4.262   4.695 -0.1692 -0.3702 -0.8562
18954TIP3    H278278   2.678   4.368   4.590  0.5303  0.2365 -0.4153
18955TIP3   OH278279   2.018   5.539  11.941  0.2916 -0.2041  0.4663
18955TIP3    H178280   1.931   5.554  11.979  0.6733  0.0152  1.2717
18955TIP3    H278281   2.012   5.453  11.900 -1.2186  1.1011 -2.1314
18956TIP3   OH278282   5.798   0.283  11.081 -0.4461 -0.2940 -0.4540
18956TIP3    H178283   5.810   0.271  10.986 -1.8220  2.4105 -1.0110
18956TIP3    H278284   5.879   0.249  11.119  0.1565 -1.3646 -2.6031
18957TIP3   OH278285   3.240   4.860   2.341 -0.2575 -0.9755  0.1225
18957TIP3    H178286   3.205   4.865   2.252  1.2709  0.2268 -0.4261
18957TIP3    H278287   3.335   4.855   2.329  0.1941  2.7013  1.7669
18958TIP3   OH278288   4.738   3.322  16.482  0.6305  0.6422 -0.1624
18958TIP3    H178289   4.810   3.314  16.420  1.3675 -0.3049  0.7839
18958TIP3    H278290   4.718   3.415  16.485 -0.3471  0.5392 -2.8361
18959TIP3   OH278291   1.049   5.175   0.678  0.2985 -0.2241  0.4586
18959TIP3    H178292   1.004   5.257   0.654  1.6851  0.3240 -0.3676
18959TIP3    H278293   1.132   5.179   0.629  0.0822 -2.4515 -0.1369
18960TIP3   OH278294   1.536   3.075   1.274  0.7904  0.8416 -0.6095
18960TIP3    H178295   1.632   3.073   1.276  0.8056  1.1229 -0.8802
18960TIP3    H278296   1.511   2.985   1.252  0.9607  0.5631  0.3385
18961TIP3   OH278297   0.507   3.031  11.531  0.1020 -0.6829  0.0894
18961TIP3    H178298   0.499   3.119  11.492  1.6926 -0.2208  0.7869
18961TIP3    H278299   0.484   2.972  11.459 -0.2651  0.2690 -0.6011
18962TIP3   OH278300   6.317   4.996   1.064  0.0736 -0.1272  0.5831
18962TIP3    H178301   6.277   5.032   1.143 -0.6480  1.1845 -0.3521
18962TIP3    H278302   6.403   5.038   1.059 -0.5850  1.1602 -0.2594
18963TIP3   OH278303   3.681   5.051  11.397 -0.3457 -0.2213 -0.2996
18963TIP3    H178304   3.760   5.041  11.451  1.3529 -0.8879 -2.7879
18963TIP3    H278305   3.608   5.037  11.457  1.4880 -1.4480  1.6990
18964TIP3   OH278306   4.666   5.257  10.221 -0.1964  0.5555 -0.5087
18964TIP3    H178307   4.710   5.341  10.236 -0.6085  0.6649  0.1092
18964TIP3    H278308   4.729   5.206  10.170  0.1122  1.1912 -0.7694
18965TIP3   OH278309   1.820   2.125  16.352 -0.2168 -0.1950  0.0614
18965TIP3    H178310   1.846   2.072  16.428 -1.4047 -2.5531 -1.1343
18965TIP3    H278311   1.872   2.091  16.280 -0.6278  0.6463 -0.6437
18966TIP3   OH278312   6.073   6.772   1.588 -0.5121  0.1285 -0.2375
18966TIP3    H178313   5.979   6.763   1.608 -0.4465 -0.5541 -0.2328
18966TIP3    H278314   6.077   6.781   1.493 -0.8831  4.0942  0.0133
18967TIP3   OH278315   5.703   1.357   0.076  0.2953  0.2536 -0.1357
18967TIP3    H178316   5.712   1.399   0.161 -3.5395  3.0082 -0.9445
18967TIP3    H278317   5.769   1.398   0.021  1.0706  0.3154  0.8324
18968TIP3   OH278318   6.631   0.617   2.526  0.4073  0.2944  0.1225
18968TIP3    H178319   6.667   0.561   2.594 -1.6955 -0.0422  0.9942
18968TIP3    H278320   6.677   0.591   2.446 -1.1409 -3.3255  0.3187
18969TIP3   OH278321   2.708   6.713  16.309 -0.1422  0.2195  0.2076
18969TIP3    H178322   2.643   6.771  16.269  0.6439  0.9253 -0.0767
18969TIP3    H278323   2.703   6.732  16.403  1.3100  2.0307 -0.0506
18970TIP3   OH278324   4.904   5.158  11.730  0.0521 -0.7313  0.5935
18970TIP3    H178325   4.880   5.109  11.652  0.4129 -1.0273  0.6658
18970TIP3    H278326   4.974   5.106  11.771 -1.1251 -1.3408  1.8812
18971TIP3   OH278327   6.035   2.566  13.611 -0.2299 -0.0151  0.0891
18971TIP3    H178328   5.990   2.538  13.532 -0.8144  1.1880 -0.0319
18971TIP3    H278329   6.015   2.499  13.676 -1.6846  0.1718 -0.1520
18972TIP3   OH278330   1.712   0.964   5.683 -0.1878  0.4741  0.4773
18972TIP3    H178331   1.701   1.054   5.653 -0.0404 -0.0146 -1.0835
18972TIP3    H278332   1.656   0.957   5.760 -0.0403  1.9504  0.7302
18973TIP3   OH278333   2.326   3.401  16.674 -0.2439 -0.5971 -0.3452
18973TIP3    H178334   2.258   3.369  16.734  0.0360 -1.2917 -0.3850
18973TIP3    H278335   2.391   3.442  16.731 -0.6278 -0.0514 -0.2935
18974TIP3   OH278336   4.942   1.791  11.510  0.6105 -0.2916 -0.3021
18974TIP3    H178337   4.891   1.710  11.519  0.5312 -0.1909  0.1243
18974TIP3    H278338   4.942   1.808  11.415 -1.9705  0.8913 -0.1412
18975TIP3   OH278339   5.649   5.178   0.135 -0.2330  0.0525 -0.6339
18975TIP3    H178340   5.604   5.229   0.202  0.0204  0.7452 -0.9878
18975TIP3    H278341   5.620   5.215   0.052  2.2632  1.6603 -0.8547
18976TIP3   OH278342   6.160   6.316   2.456 -0.3175 -0.3255  0.6288
18976TIP3    H178343   6.075   6.333   2.496 -1.0154 -1.6804 -0.2341
18976TIP3    H278344   6.162   6.372   2.379 -1.1594 -1.5192 -0.2882
18977TIP3   OH278345   3.543   1.318  11.680 -0.3692  0.5786 -0.0348
18977TIP3    H178346   3.525   1.405  11.644  1.7260  0.1568 -2.2150
18977TIP3    H278347   3.634   1.301  11.658 -1.0421 -2.6146 -0.6151
18978TIP3   OH278348   2.252   6.734  11.630  0.2409  0.0400  0.2875
18978TIP3    H178349   2.215   6.664  11.684 -0.1349  0.8881  1.1451
18978TIP3    H278350   2.181   6.799  11.623  0.6095  0.3786 -0.4265
18979TIP3   OH278351   2.529   4.307  13.650  0.0776 -0.3810  0.3694
18979TIP3    H178352   2.503   4.388  13.695  0.4283  0.1341 -0.3468
18979TIP3    H278353   2.583   4.336  13.577 -0.6497 -1.2005 -0.5088
18980TIP3   OH278354   4.375   2.452   4.347 -0.2251  0.0762  0.3312
18980TIP3    H178355   4.322   2.375   4.364 -2.3132  1.9599  2.7310
18980TIP3    H278356   4.352   2.478   4.258 -0.1350 -1.5538 -0.1798
18981TIP3   OH278357   1.329   1.900  14.004 -0.8884 -0.4394  0.2731
18981TIP3    H178358   1.424   1.908  14.019 -1.0837  0.6773  0.9398
18981TIP3    H278359   1.320   1.892  13.909 -0.2169  0.7886  0.1031
18982TIP3   OH278360   1.004   1.776  11.158 -0.0600 -0.2220 -0.3788
18982TIP3    H178361   0.997   1.859  11.207 -2.7677  0.1514 -1.3518
18982TIP3    H278362   1.039   1.802  11.073  1.5449 -0.4588  0.1788
18983TIP3   OH278363   4.336   0.129  16.918  0.5343 -0.7263  0.5442
18983TIP3    H178364   4.419   0.175  16.933  0.9745 -1.4144  0.2265
18983TIP3    H278365   4.270   0.198  16.922  0.8926 -0.4901  2.9124
18984TIP3   OH278366   1.842   5.160  13.485 -0.3830 -0.3285 -0.0334
18984TIP3    H178367   1.760   5.201  13.458  0.2343 -0.3061 -1.9559
18984TIP3    H278368   1.908   5.196  13.425  0.9907 -0.5492  1.3069
18985TIP3   OH278369   2.133   5.519  10.945  0.5632  0.3557 -0.3037
18985TIP3    H178370   2.097   5.551  10.862 -0.0237 -1.1155 -0.6413
18985TIP3    H278371   2.146   5.425  10.930 -1.1456 -0.2511  1.8183
18986TIP3   OH278372   2.350   2.020  16.579  0.3081  0.2049 -0.0791
18986TIP3    H178373   2.419   2.051  16.637 -1.5322  0.9132  1.8113
18986TIP3    H278374   2.374   1.929  16.559  2.1372  0.6651 -0.0488
18987TIP3   OH278375   6.389   6.321   5.392  0.8295  0.0410 -0.4806
18987TIP3    H178376   6.334   6.305   5.468  0.4598 -0.4367 -0.8476
18987TIP3    H278377   6.445   6.395   5.418  0.8655 -0.2683  0.3309
18988TIP3   OH278378   3.962   6.202  13.884  0.5615  0.4458 -0.3484
18988TIP3    H178379   4.014   6.213  13.805  0.8601  3.0983  0.1461
18988TIP3    H278380   4.024   6.215  13.956  0.6136 -3.4445  0.4152
18989TIP3   OH278381   1.145   4.131   4.787 -0.0350 -0.0157  0.0297
18989TIP3    H178382   1.120   4.113   4.697  0.6735  0.0082 -0.1777
18989TIP3    H278383   1.214   4.198   4.779 -0.2881  0.3172  0.6090
18990TIP3   OH278384   2.235   1.310  16.373  0.6474  0.4848 -0.2012
18990TIP3    H178385   2.259   1.267  16.454 -1.3794  0.2212  0.2924
18990TIP3    H278386   2.197   1.394  16.400  0.5023  0.6583 -0.9127
18991TIP3   OH278387   0.130   4.969   5.736 -0.0628  0.0630  0.2334
18991TIP3    H178388   0.114   4.891   5.790  1.8406  0.2576  1.1168
18991TIP3    H278389   0.043   5.000   5.713 -0.8905 -1.0322  1.7653
18992TIP3   OH278390   3.946   2.954   3.524  0.0793 -0.0011 -0.0792
18992TIP3    H178391   3.939   2.878   3.582 -0.7258  0.4190  0.3769
18992TIP3    H278392   3.856   2.984   3.512  0.4940  1.6806  0.8079
18993TIP3   OH278393   4.278   6.518   1.010 -0.6500 -0.4058  0.3289
18993TIP3    H178394   4.241   6.603   1.035  0.1253  0.6423 -1.9884
18993TIP3    H278395   4.337   6.495   1.082 -1.5626  0.5529  1.4088
18994TIP3   OH278396   0.833   0.675   3.758 -0.3004  0.3509  0.1332
18994TIP3    H178397   0.747   0.694   3.720  0.1702  0.4054 -0.9306
18994TIP3    H278398   0.819   0.598   3.813 -1.1801  0.8029  0.5549
18995TIP3   OH278399   3.380   2.684   2.322 -0.2341  0.0614 -0.0435
18995TIP3    H178400   3.382   2.731   2.240  1.8757  0.8316  0.4299
18995TIP3    H278401   3.433   2.606   2.307  0.2969  0.2842  0.6250
18996TIP3   OH278402   5.570   3.965   2.268 -0.1615  0.3761  0.3877
18996TIP3    H178403   5.569   4.061   2.274 -1.3592  0.3643  0.7049
18996TIP3    H278404   5.655   3.939   2.304 -0.1875  1.2832  1.1329
18997TIP3   OH278405   0.962   0.111   5.962 -0.4487  1.0453 -0.2588
18997TIP3    H178406   0.971   0.185   6.022 -0.1202  0.9050 -0.1337
18997TIP3    H278407   1.017   0.042   6.000 -0.6935  0.7629 -0.4146
18998TIP3   OH278408   3.969   4.515   5.972 -0.0854  0.5723  0.6550
18998TIP3    H178409   3.999   4.502   6.062 -1.5376 -2.7514  0.6945
18998TIP3    H278410   4.047   4.499   5.919 -0.3782 -2.3779  1.0708
18999TIP3   OH278411   5.548   0.051  15.203  0.4768  0.3742 -0.4393
18999TIP3    H178412   5.545  -0.035  15.245  3.9272  0.2526 -0.2930
18999TIP3    H278413   5.467   0.056  15.152 -0.9736 -1.9030  1.5486
19000TIP3   OH278414   0.994   3.100   4.092 -0.7687  0.0419 -0.5102
19000TIP3    H178415   1.000   3.009   4.120 -1.4340  0.2668  0.3806
19000TIP3    H278416   0.961   3.147   4.168 -0.2943  1.0574 -0.9173
19001TIP3   OH278417   5.304   6.638   4.554 -0.0249  0.0116 -0.3662
19001TIP3    H178418   5.247   6.638   4.630 -2.4596  1.2988 -2.0972
19001TIP3    H278419   5.265   6.575   4.494  0.2701  0.9765 -1.6161
19002TIP3   OH278420   4.417   3.811  17.055 -0.0032 -0.0882 -0.1413
19002TIP3    H178421   4.470   3.734  17.073 -1.0189 -0.2285  2.4863
19002TIP3    H278422   4.332   3.777  17.028  0.0949  0.1317 -0.7442
19003TIP3   OH278423   2.910   2.384  14.782  0.2622 -0.2510 -0.4097
19003TIP3    H178424   2.905   2.358  14.690 -2.9583 -1.9233  0.1923
19003TIP3    H278425   2.970   2.320  14.821  0.9942 -0.0374 -1.1690
19004TIP3   OH278426   3.303   5.178  13.166 -0.7074  0.1608 -0.4327
19004TIP3    H178427   3.255   5.104  13.202  2.3957 -1.8096 -0.1982
19004TIP3    H278428   3.257   5.199  13.084 -2.0048 -1.5877 -0.1728
19005TIP3   OH278429   6.207   2.292  10.557 -0.4096  0.1278 -0.2468
19005TIP3    H178430   6.293   2.265  10.592 -0.9746 -0.8604  0.4300
19005TIP3    H278431   6.226   2.324  10.469  0.8591  1.3068  0.4268
19006TIP3   OH278432   1.502   6.468   2.250 -0.2415  0.8865  0.5729
19006TIP3    H178433   1.540   6.384   2.223 -0.2935  0.9891  0.1715
19006TIP3    H278434   1.549   6.533   2.197  0.0440  1.1405  1.1387
19007TIP3   OH278435   1.057   1.687   2.283 -0.7746 -0.2091 -0.1918
19007TIP3    H178436   1.000   1.681   2.207 -0.6267  3.9869 -0.7476
19007TIP3    H278437   0.998   1.698   2.357 -0.8293 -1.1027 -0.1019
19008TIP3   OH278438   2.970   3.510   6.284 -0.2429  0.0718  0.1032
19008TIP3    H178439   2.941   3.557   6.362 -0.6510  0.1864 -0.1145
19008TIP3    H278440   2.895   3.515   6.224 -0.1801 -0.5914 -0.0374
19009TIP3   OH278441   2.391   2.676   4.499  0.1009  0.1619 -0.0345
19009TIP3    H178442   2.315   2.703   4.449 -0.0423 -1.0605 -0.5082
19009TIP3    H278443   2.382   2.581   4.507  1.8770 -0.0918 -0.6438
19010TIP3   OH278444   2.585   5.072   2.949 -0.0142 -0.1847  0.0222
19010TIP3    H178445   2.508   5.025   2.984  0.6098 -1.6259 -0.4979
19010TIP3    H278446   2.588   5.153   3.000  1.0788 -2.3425  3.6452
19011TIP3   OH278447   3.696   3.005  14.074  0.2234  0.6338  0.7981
19011TIP3    H178448   3.719   3.030  14.163 -0.5564  1.7494  0.7052
19011TIP3    H278449   3.774   3.025  14.022  1.5179 -2.1729  1.5630
19012TIP3   OH278450   5.936   2.933  12.304 -0.1794 -0.4696 -0.5276
19012TIP3    H178451   5.931   3.020  12.264 -0.4104 -0.1997  0.0894
19012TIP3    H278452   5.845   2.912  12.326 -0.2076 -1.1514 -1.2888
19013TIP3   OH278453   6.333   6.377   1.277 -0.5232  0.1851  0.2382
19013TIP3    H178454   6.303   6.297   1.321  0.7210 -1.5844 -2.0361
19013TIP3    H278455   6.294   6.448   1.328 -1.4046 -1.8499  2.4994
19014TIP3   OH278456   4.821   5.236  15.615 -0.1548  0.0098  0.2364
19014TIP3    H178457   4.809   5.326  15.586 -1.0789  0.5326  2.1777
19014TIP3    H278458   4.765   5.185  15.557  0.1833  0.7068 -0.7128
19015TIP3   OH278459   6.073   4.567  11.639 -0.5094 -0.1592  0.2161
19015TIP3    H178460   5.981   4.543  11.653 -0.3629 -2.1044 -2.0139
19015TIP3    H278461   6.094   4.623  11.714 -2.8464 -1.5087  1.9518
19016TIP3   OH278462   5.570   0.011  15.618 -0.0976 -0.0102  0.1793
19016TIP3    H178463   5.577  -0.064  15.558  1.3475 -0.4814  0.9128
19016TIP3    H278464   5.644   0.067  15.595  1.0618 -0.6786  2.1579
19017TIP3   OH278465   6.655   6.111  14.160  0.1127 -0.0128  0.0479
19017TIP3    H178466   6.638   6.087  14.250 -1.7342  0.7200 -0.0939
19017TIP3    H278467   6.672   6.205  14.163  1.4567 -0.2264 -0.2004
19018TIP3   OH278468   0.055   5.189   1.377  0.1347 -0.1483  0.5433
19018TIP3    H178469   0.015   5.266   1.417  0.9514  1.1062 -1.0346
19018TIP3    H278470   0.039   5.118   1.441  0.2203  1.5003  2.4460
19019TIP3   OH278471   4.361   1.165  14.507 -0.0389 -0.2972  0.0503
19019TIP3    H178472   4.432   1.112  14.543  1.1144 -0.2151 -2.0138
19019TIP3    H278473   4.404   1.245  14.477 -1.0333 -0.1457 -0.9921
19020TIP3   OH278474   3.847   6.223  12.574  0.1654 -0.0204 -0.2952
19020TIP3    H178475   3.848   6.319  12.576  0.3536 -0.0538  1.7300
19020TIP3    H278476   3.758   6.200  12.601  0.4038 -0.4324  0.1397
19021TIP3   OH278477   2.509   5.057  12.013  0.2852 -0.2195  0.1497
19021TIP3    H178478   2.440   5.043  12.078 -0.9153 -0.2179 -1.1142
19021TIP3    H278479   2.558   5.132  12.047  1.3714 -1.8791  2.4397
19022TIP3   OH278480   2.233   3.999   4.860 -0.0011  0.0199  0.0681
19022TIP3    H178481   2.248   3.917   4.813 -1.2032  0.9644 -2.0313
19022TIP3    H278482   2.144   3.993   4.892 -0.2689  0.7078 -0.5314
19023TIP3   OH278483   3.028   4.406   1.295 -0.4343  0.3819  0.3892
19023TIP3    H178484   3.004   4.316   1.275  1.2089 -0.1859  0.8846
19023TIP3    H278485   2.948   4.445   1.328 -0.9892 -1.1098  0.8573
19024TIP3   OH278486   4.267   2.351  16.264  0.5945  0.1888  0.5618
19024TIP3    H178487   4.204   2.312  16.325 -0.4272  1.1052  0.1200
19024TIP3    H278488   4.313   2.417  16.316 -0.3544  1.0490  0.3370
19025TIP3   OH278489   4.054   4.937  16.975 -0.0718  0.4832  0.1237
19025TIP3    H178490   4.096   4.866  16.926 -0.7210 -0.9704  1.6151
19025TIP3    H278491   4.090   4.929  17.063 -0.5917  1.6537  0.4503
19026TIP3   OH278492   2.610   5.462   0.915 -0.0220 -0.2433  0.6446
19026TIP3    H178493   2.641   5.442   1.003 -1.5491 -0.5812  1.1246
19026TIP3    H278494   2.538   5.523   0.929 -1.4368 -1.6761 -0.2535
19027TIP3   OH278495   6.448   0.928  12.732 -0.0600 -1.1171 -0.0592
19027TIP3    H178496   6.480   0.860  12.673 -1.9597 -1.3019 -0.9094
19027TIP3    H278497   6.469   1.010  12.687  0.8065 -1.1822  0.2233
19028TIP3   OH278498   4.400   3.528  14.458 -0.1708  0.1801 -0.2423
19028TIP3    H178499   4.352   3.611  14.446  2.0246  1.7476  1.5459
19028TIP3    H278500   4.363   3.491  14.538 -0.9838 -0.4750 -0.9120
19029TIP3   OH278501   2.681   2.085   4.638  0.0852 -0.3031  0.6767
19029TIP3    H178502   2.658   2.176   4.620  1.5293 -0.0815 -0.1111
19029TIP3    H278503   2.613   2.033   4.594  0.4274  0.3488 -0.6380
19030TIP3   OH278504   0.265   1.595   2.558  0.5047  0.2317  0.5362
19030TIP3    H178505   0.222   1.543   2.626  0.9683 -0.0456  0.6210
19030TIP3    H278506   0.286   1.678   2.600  1.5075 -0.2323  0.9701
19031TIP3   OH278507   4.846   2.376   3.518  0.1618  0.2598 -0.0524
19031TIP3    H178508   4.897   2.332   3.449 -0.1338 -0.5821  0.2578
19031TIP3    H278509   4.851   2.469   3.495 -0.2045 -0.0327 -1.3899
19032TIP3   OH278510   5.330   6.467  13.024 -0.0488  0.6008 -0.3879
19032TIP3    H178511   5.335   6.544  13.079 -2.0206 -0.4374  1.2786
19032TIP3    H278512   5.267   6.489  12.955  0.0100  0.7609 -0.3893
19033TIP3   OH278513   4.475   1.631  15.370 -0.7904 -0.0102 -0.1024
19033TIP3    H178514   4.437   1.586  15.295  1.8455 -1.1631 -0.8093
19033TIP3    H278515   4.460   1.572  15.444 -0.0807 -0.6334 -0.4497
19034TIP3   OH278516   0.048   3.770   2.062  0.1798 -0.3239 -0.0936
19034TIP3    H178517   0.141   3.790   2.061  0.1968 -0.3844 -2.7642
19034TIP3    H278518   0.039   3.700   2.126  2.0918 -0.9125 -0.4368
19035TIP3   OH278519   4.723   4.208  11.316  0.2750  0.4782 -0.2153
19035TIP3    H178520   4.808   4.175  11.287  0.1187 -0.3222  0.2400
19035TIP3    H278521   4.690   4.258  11.242  1.1658  0.8382 -0.3803
19036TIP3   OH278522   1.751   1.092   0.363  0.1462  0.3800 -0.3525
19036TIP3    H178523   1.809   1.150   0.315 -0.1169  0.2625 -0.8119
19036TIP3    H278524   1.663   1.123   0.342 -0.0686 -1.1587 -1.8624
19037TIP3   OH278525   2.058   1.020  16.819  0.3254 -0.5276  0.6598
19037TIP3    H178526   2.148   1.047  16.840  0.1263  0.2965  0.4408
19037TIP3    H278527   2.004   1.066  16.882 -0.0971  0.3329 -0.3226
19038TIP3   OH278528   3.578   3.583  16.371  0.4476  0.7307  0.0149
19038TIP3    H178529   3.641   3.534  16.424 -0.6124  0.3465  0.9419
19038TIP3    H278530   3.508   3.520  16.354  0.2340  1.2059 -0.8727
19039TIP3   OH278531   5.375   3.301   6.078  0.2509 -0.3695 -0.0521
19039TIP3    H178532   5.415   3.312   6.164  0.1061 -1.5719  0.1758
19039TIP3    H278533   5.376   3.389   6.039 -1.6241  0.5955  2.0146
19040TIP3   OH278534   1.428   4.175  11.338 -0.4971  0.7866  0.0233
19040TIP3    H178535   1.448   4.102  11.280  0.4529  1.0541 -0.0034
19040TIP3    H278536   1.336   4.195  11.322 -0.4090  0.4447 -0.9168
19041TIP3   OH278537   0.559   0.566  16.642  0.2897 -0.3328  0.0085
19041TIP3    H178538   0.572   0.656  16.673 -1.0278  0.0438 -0.5314
19041TIP3    H278539   0.605   0.512  16.707  1.5921  0.7517  0.0217
19042TIP3   OH278540   0.477   2.394  12.465 -0.2394 -0.4085  0.1731
19042TIP3    H178541   0.535   2.421  12.394  1.6015 -1.4703  1.2340
19042TIP3    H278542   0.406   2.347  12.422 -0.6884  1.4751 -1.2031
19043TIP3   OH278543   5.749   4.309   5.126 -0.0592  0.1874 -0.8892
19043TIP3    H178544   5.692   4.386   5.122 -0.9864 -0.4685 -0.4500
19043TIP3    H278545   5.690   4.235   5.111  0.2900 -0.6520  1.5891
19044TIP3   OH278546   2.932   1.053  15.445 -0.7376  0.4495  0.3014
19044TIP3    H178547   3.019   1.086  15.423  0.6235 -1.3070  2.8038
19044TIP3    H278548   2.887   1.047  15.360  2.1353 -0.1837 -1.2549
19045TIP3   OH278549   3.526   2.722   5.919 -0.4901  1.0638  0.3176
19045TIP3    H178550   3.458   2.740   5.984 -0.4708  0.8095  0.4060
19045TIP3    H278551   3.602   2.771   5.951 -0.7791  1.7676 -0.0534
19046TIP3   OH278552   1.453   2.140   6.014  0.3770  0.3181  0.4924
19046TIP3    H178553   1.391   2.170   6.080 -2.6639 -2.8807 -0.7278
19046TIP3    H278554   1.500   2.068   6.056  1.1879  0.8072  0.4350
19047TIP3   OH278555   3.300   0.459  17.225  0.4427 -0.2448  0.3541
19047TIP3    H178556   3.312   0.537  17.279  1.4910  1.0632 -1.6506
19047TIP3    H278557   3.385   0.415  17.227  1.0091  0.7112 -1.5149
19048TIP3   OH278558   1.586   1.840   2.280  0.3941  0.1500  0.2389
19048TIP3    H178559   1.563   1.931   2.261  1.8228  0.3124 -0.8123
19048TIP3    H278560   1.506   1.802   2.316 -1.5030  0.7455 -3.0720
19049TIP3   OH278561   6.734   6.016   4.043  0.0166  0.0727  0.2192
19049TIP3    H178562   6.688   6.093   4.078 -0.4226 -0.3701  0.6235
19049TIP3    H278563   6.737   6.031   3.948  0.8383  1.0784  0.3957
19050TIP3   OH278564   5.270   1.803  16.863  0.9206  0.5306  0.8373
19050TIP3    H178565   5.361   1.821  16.840 -0.0858  1.9736 -2.1500
19050TIP3    H278566   5.219   1.865  16.812 -1.9415 -2.4338 -0.0244
19051TIP3   OH278567   4.087   3.860  15.655  0.2082 -0.0597  0.2978
19051TIP3    H178568   4.171   3.837  15.616  0.8035  0.5606  1.2092
19051TIP3    H278569   4.109   3.915  15.729 -0.9730 -0.3921  0.9065
19052TIP3   OH278570   6.464   2.194   3.654  0.2166 -0.5190  0.0892
19052TIP3    H178571   6.395   2.129   3.667  0.2281 -0.0071  3.0030
19052TIP3    H278572   6.545   2.143   3.649  0.0062 -0.8665  0.2549
19053TIP3   OH278573   0.413   1.557   4.453  0.0894  0.2930  0.2788
19053TIP3    H178574   0.478   1.545   4.522 -0.5906 -0.2198  0.8443
19053TIP3    H278575   0.383   1.468   4.432  1.3808  0.3032 -1.7651
19054TIP3   OH278576   1.116   2.942  12.270  0.0652  0.2163 -0.2794
19054TIP3    H178577   1.034   2.919  12.313  1.3017 -0.9552  1.5041
19054TIP3    H278578   1.096   3.021  12.221 -2.0503  0.1132  0.3719
19055TIP3   OH278579   2.794   5.749   0.959 -0.0089  0.4319  0.7721
19055TIP3    H178580   2.726   5.790   0.906 -0.2905 -0.1343  0.6891
19055TIP3    H278581   2.867   5.811   0.958 -0.1092  0.5436 -0.0565
19056TIP3   OH278582   5.071   6.000   5.423  0.6773 -0.2420 -0.7210
19056TIP3    H178583   4.996   6.057   5.441  0.7182 -0.6813  0.9615
19056TIP3    H278584   5.141   6.061   5.397  0.2760  0.3542 -0.4282
19057TIP3   OH278585   6.670   2.043   2.004 -0.6376 -0.4177  0.6502
19057TIP3    H178586   6.717   2.114   1.960  1.3069 -3.1554 -1.8886
19057TIP3    H278587   6.717   2.030   2.086  0.0925  0.0243  0.3016
19058TIP3   OH278588   0.518   4.099   2.217 -0.1925  1.2767 -0.0236
19058TIP3    H178589   0.453   4.084   2.285  1.5858  0.0428  1.4556
19058TIP3    H278590   0.479   4.063   2.138 -0.0395 -2.4932  1.5038
19059TIP3   OH278591   5.099   2.930  11.677  0.2014  0.5382  0.0433
19059TIP3    H178592   5.153   2.957  11.751 -1.4990 -0.2468  1.6129
19059TIP3    H278593   5.138   2.847  11.648  0.8196  0.8094  0.0814
19060TIP3   OH278594   0.672   6.139   2.570 -0.5571 -0.3413  0.5814
19060TIP3    H178595   0.724   6.071   2.528  1.5103  1.2587  0.4712
19060TIP3    H278596   0.735   6.190   2.621 -2.4107  0.1129  2.5171
19061TIP3   OH278597   1.756   0.760   5.499 -0.0743  0.0711  0.6967
19061TIP3    H178598   1.666   0.729   5.482  0.1249 -0.8429  1.2849
19061TIP3    H278599   1.746   0.828   5.564 -0.4779  0.9576 -0.2793
19062TIP3   OH278600   0.947   4.644   3.927  0.4066  0.5512  0.2907
19062TIP3    H178601   0.929   4.684   4.013  0.5408  1.2254  0.0049
19062TIP3    H278602   0.958   4.551   3.947 -2.6798  0.1671  0.5998
19063TIP3   OH278603   4.690   1.714  16.000  0.0190  0.0898  0.2573
19063TIP3    H178604   4.698   1.805  15.970  2.6388 -0.1137  0.1868
19063TIP3    H278605   4.619   1.716  16.065 -1.2868  1.7879 -1.1708
19064TIP3   OH278606   5.163   6.276   2.322 -0.1286  0.7064  0.4046
19064TIP3    H178607   5.144   6.201   2.378  0.0114  1.7374  1.8366
19064TIP3    H278608   5.248   6.255   2.283 -0.5672 -0.3456 -0.0323
19065TIP3   OH278609   2.502   3.023  11.435 -0.2333 -0.9359  0.2846
19065TIP3    H178610   2.534   3.070  11.357  0.3334  0.8881  1.5893
19065TIP3    H278611   2.555   3.057  11.507 -3.3893  0.3432  2.1033
19066TIP3   OH278612   0.520   4.433   0.289  0.4830 -0.1008 -0.1005
19066TIP3    H178613   0.573   4.486   0.230  1.3422  1.9502  2.4102
19066TIP3    H278614   0.431   4.465   0.277  0.7165  0.5884 -0.0313
19067TIP3   OH278615   2.661   2.513  15.832  0.2729  0.0037 -0.1545
19067TIP3    H178616   2.730   2.557  15.882 -0.3427  0.2960  0.4620
19067TIP3    H278617   2.635   2.439  15.887 -2.3248  1.9006  1.3283
19068TIP3   OH278618   6.387   2.448  10.349  0.1524  0.0294  0.2406
19068TIP3    H178619   6.392   2.390  10.272  1.7908  2.0335 -1.2206
19068TIP3    H278620   6.466   2.427  10.399 -0.0758 -0.1236  0.5343
19069TIP3   OH278621   4.758   3.332  12.410  0.0641 -0.0502 -0.2243
19069TIP3    H178622   4.779   3.370  12.325 -0.5962 -0.1028 -0.4142
19069TIP3    H278623   4.727   3.406  12.463  0.0216 -0.0983 -0.1814
19070TIP3   OH278624   2.856   3.289  12.948 -0.1597  0.4569 -0.0644
19070TIP3    H178625   2.850   3.335  12.865 -1.4722 -0.9212 -0.7454
19070TIP3    H278626   2.794   3.335  13.005  0.2164  0.9488 -0.0401
19071TIP3   OH278627   4.625   0.713  14.973  0.3771  0.2853  0.0732
19071TIP3    H178628   4.716   0.729  14.951  0.4725 -1.0992 -0.5526
19071TIP3    H278629   4.628   0.658  15.051  0.0592  0.9784  0.5901
19072TIP3   OH278630   5.205   0.328   4.408  0.1604 -0.0859 -0.2961
19072TIP3    H178631   5.289   0.338   4.453  0.9738 -0.6059 -1.6653
19072TIP3    H278632   5.151   0.277   4.468  0.2962  1.5580  1.2493
19073TIP3   OH278633   0.919   4.418   5.019  0.0373  0.0959  0.6384
19073TIP3    H178634   0.914   4.491   5.081 -0.3313  1.0908 -0.5410
19073TIP3    H278635   0.837   4.423   4.969  0.0862 -1.0175  0.4264
19074TIP3   OH278636   0.495   5.411   6.340 -0.2889 -0.1088  0.0918
19074TIP3    H178637   0.545   5.339   6.304 -1.1178 -0.1817 -0.9303
19074TIP3    H278638   0.442   5.371   6.410  0.5838 -0.1429  0.7483
19075TIP3   OH278639   5.661   5.716   5.420  0.4507 -0.1339  0.2343
19075TIP3    H178640   5.701   5.718   5.333  2.2372 -0.2179  1.0292
19075TIP3    H278641   5.710   5.781   5.470 -2.2567  1.7712  0.4902
19076TIP3   OH278642   5.485   5.800   3.351  0.2428 -0.4068  0.0621
19076TIP3    H178643   5.528   5.880   3.381 -1.0934  1.3285 -2.5182
19076TIP3    H278644   5.392   5.815   3.365 -0.0251 -1.5385 -0.4138
19077TIP3   OH278645   5.661   0.747  16.230  1.1192  0.2581 -0.0865
19077TIP3    H178646   5.719   0.819  16.254  0.2227  0.9683 -0.0666
19077TIP3    H278647   5.573   0.783  16.237  0.6855 -0.7084 -0.5070
19078TIP3   OH278648   4.519   5.304   2.072 -0.2532  0.1287 -0.0515
19078TIP3    H178649   4.607   5.270   2.088 -0.5596 -0.8422 -0.3963
19078TIP3    H278650   4.498   5.354   2.151  1.1192  1.4855 -0.5042
19079TIP3   OH278651   5.622   4.344  15.342 -0.0857  0.1403 -0.0085
19079TIP3    H178652   5.616   4.320  15.249 -1.7191  1.0301 -0.1512
19079TIP3    H278653   5.715   4.332  15.364  0.4367  0.5503 -1.9237
19080TIP3   OH278654   5.313   3.882   3.341  0.3561  0.0825  0.1211
19080TIP3    H178655   5.366   3.874   3.262 -1.3808 -0.3327 -1.0147
19080TIP3    H278656   5.247   3.813   3.333 -0.5076  0.7497  1.4068
19081TIP3   OH278657   3.312   6.620  13.697  0.1338 -0.2506 -0.3892
19081TIP3    H178658   3.389   6.582  13.654  0.5334  0.9098 -0.7321
19081TIP3    H278659   3.244   6.555  13.686  0.1092  0.1794 -3.1880
19082TIP3   OH278660   6.587   1.370   0.394  0.5176  0.2035 -0.2737
19082TIP3    H178661   6.611   1.365   0.302  0.5511 -0.9572 -0.2064
19082TIP3    H278662   6.504   1.323   0.400  1.2601 -1.0294  0.5404
19083TIP3   OH278663   5.129   6.034   2.113  0.4361 -0.0353  0.0777
19083TIP3    H178664   5.140   6.107   2.052 -0.9152  0.4087  0.3259
19083TIP3    H278665   5.206   6.037   2.169 -0.0463  1.8288  0.7027
19084TIP3   OH278666   4.182   2.211  11.852 -0.0252 -0.0545 -0.0947
19084TIP3    H178667   4.221   2.290  11.815  1.6456 -0.3804  0.9032
19084TIP3    H278668   4.240   2.140  11.824 -0.9784 -0.8072 -0.1884
19085TIP3   OH278669   0.391   0.088  14.331  0.1739  0.4429  0.2181
19085TIP3    H178670   0.305   0.111  14.295 -0.6322 -1.9272  0.5769
19085TIP3    H278671   0.449   0.158  14.300 -1.7038  1.6322 -0.7078
19086TIP3   OH278672   0.513   4.351  14.746 -0.2816  0.1351 -0.5096
19086TIP3    H178673   0.587   4.396  14.786 -0.6129  1.1986 -1.0741
19086TIP3    H278674   0.437   4.382  14.794 -0.2348 -2.2781  1.2393
19087TIP3   OH278675   1.142   0.540   4.661 -0.4046 -0.0624  0.1428
19087TIP3    H178676   1.210   0.561   4.596 -0.9006 -0.2424 -0.4400
19087TIP3    H278677   1.186   0.548   4.745  0.2620  0.1304 -0.2212
19088TIP3   OH278678   1.651   1.778  10.599  0.0263  0.3871 -0.3372
19088TIP3    H178679   1.625   1.697  10.554  1.7197  0.3394 -1.2774
19088TIP3    H278680   1.593   1.845  10.562 -1.4023 -0.3837  0.4626
19089TIP3   OH278681   0.093   3.786   5.403  0.0631 -0.0765 -0.5252
19089TIP3    H178682   0.097   3.712   5.464 -2.6029  0.3886  0.2809
19089TIP3    H278683   0.077   3.746   5.318  0.3316 -0.5255 -0.3653
19090TIP3   OH278684   0.773   3.096   3.928 -0.1542  0.0552 -0.1927
19090TIP3    H178685   0.733   3.037   3.991 -1.4507 -0.5879 -1.5740
19090TIP3    H278686   0.850   3.131   3.972 -0.0962 -1.6892  1.0987
19091TIP3   OH278687   4.795   1.452   5.244 -0.0269  0.2495  0.1069
19091TIP3    H178688   4.764   1.538   5.272  0.8199  1.5256 -2.6102
19091TIP3    H278689   4.723   1.392   5.265 -2.8283  2.4901 -2.6097
19092TIP3   OH278690   5.860   0.599  15.366 -0.3633  0.4401  0.0042
19092TIP3    H178691   5.825   0.688  15.378  1.5008  1.1579  0.3031
19092TIP3    H278692   5.820   0.569  15.285  0.0952  2.1311 -0.8816
19093TIP3   OH278693   1.013   0.103   5.696  0.8441  0.0259  0.3931
19093TIP3    H178694   0.998   0.102   5.790 -3.0759  0.7448 -0.1373
19093TIP3    H278695   1.021   0.011   5.672  0.8172 -0.2116  1.2779
19094TIP3   OH278696   0.880   4.924   3.248 -0.4229 -0.5620  0.2135
19094TIP3    H178697   0.788   4.948   3.238  0.2917  1.6774 -1.3234
19094TIP3    H278698   0.898   4.937   3.341 -1.0328  1.4381  0.0761
19095TIP3   OH278699   6.398   3.964   5.304 -0.3322  0.4079 -0.2197
19095TIP3    H178700   6.444   3.888   5.268  0.1200 -0.2717  1.7423
19095TIP3    H278701   6.335   3.928   5.365 -1.4648  1.5176 -0.7139
19096TIP3   OH278702   1.232   2.331   4.789  0.3942  0.1124  0.2370
19096TIP3    H178703   1.265   2.267   4.851 -0.4285 -0.7800 -0.2372
19096TIP3    H278704   1.142   2.347   4.817  0.6066  1.1197  0.3929
19097TIP3   OH278705   6.437   6.111  13.474 -0.5903 -0.1247 -0.4948
19097TIP3    H178706   6.368   6.172  13.448  0.6568  1.6368  0.2585
19097TIP3    H278707   6.408   6.076  13.558 -1.3769 -0.6922 -0.9953
19098TIP3   OH278708   3.620   2.625  12.860 -0.1087 -0.4500  0.0606
19098TIP3    H178709   3.656   2.547  12.817  0.5209 -0.5015  0.6813
19098TIP3    H278710   3.653   2.620  12.949 -0.9123 -0.0121  0.3826
19099TIP3   OH278711   3.920   4.518  16.394  0.5817 -0.1598 -0.2828
19099TIP3    H178712   3.845   4.478  16.439  1.1233 -0.2414  0.5525
19099TIP3    H278713   3.973   4.556  16.464  2.1943 -1.5707 -0.7124
19100TIP3   OH278714   2.185   1.781   6.312  0.4033 -0.0318  0.5773
19100TIP3    H178715   2.270   1.766   6.353  1.3058  1.3748 -0.7312
19100TIP3    H278716   2.183   1.874   6.293 -1.4808 -0.0333  0.6617
19101TIP3   OH278717   4.927   4.472   1.033  0.5820 -0.0839  0.3648
19101TIP3    H178718   5.012   4.447   0.996  0.7693  1.2103 -0.1283
19101TIP3    H278719   4.938   4.564   1.058 -0.6157  0.0404  0.4807
19102TIP3   OH278720   2.810   6.280   6.631  0.1606 -0.1545  0.2104
19102TIP3    H178721   2.796   6.375   6.627  1.1868 -0.0405 -1.1870
19102TIP3    H278722   2.730   6.243   6.592 -0.9434  0.0501  2.2125
19103TIP3   OH278723   2.475   0.591   1.739  0.0032 -0.7705 -0.1558
19103TIP3    H178724   2.408   0.559   1.678  0.3583 -1.3449 -0.2454
19103TIP3    H278725   2.546   0.621   1.683  0.0909 -0.7690 -0.0434
19104TIP3   OH278726   5.120   0.596   3.444  0.1026 -0.5610  0.3600
19104TIP3    H178727   5.078   0.636   3.369 -1.4751 -1.0184  0.9871
19104TIP3    H278728   5.175   0.666   3.481 -1.0117  0.3909  0.2263
19105TIP3   OH278729   6.520   1.577  13.788 -0.3800  0.7152  0.1500
19105TIP3    H178730   6.491   1.525  13.713 -0.9737  1.1754  0.0545
19105TIP3    H278731   6.614   1.587  13.776 -0.6054  1.5432 -1.0103
19106TIP3   OH278732   0.981   3.843  13.636  0.6366 -0.0021  0.4517
19106TIP3    H178733   1.056   3.793  13.603  1.3060  0.1753  1.6824
19106TIP3    H278734   1.003   3.861  13.727 -0.6824  0.4921  0.6748
19107TIP3   OH278735   1.889   2.538   5.281 -0.2475 -0.5192 -0.6786
19107TIP3    H178736   1.872   2.605   5.347 -0.8433  0.3305 -1.6744
19107TIP3    H278737   1.827   2.558   5.211  1.4873 -0.3940 -2.2225
19108TIP3   OH278738   5.501   5.293   2.523  0.0376  0.4101 -0.0981
19108TIP3    H178739   5.489   5.374   2.572  0.6479  1.3877 -1.5478
19108TIP3    H278740   5.430   5.236   2.553 -3.2234  3.0998 -2.3717
19109TIP3   OH278741   2.126   1.865  15.894  0.3287  0.0324 -0.4615
19109TIP3    H178742   2.171   1.942  15.929 -2.1953  0.7426  1.3858
19109TIP3    H278743   2.089   1.894  15.810 -0.6497  0.8819  0.2469
19110TIP3   OH278744   5.338   6.517   0.370  0.5849 -0.0558  0.2872
19110TIP3    H178745   5.385   6.540   0.450  1.4400  1.3935 -0.6250
19110TIP3    H278746   5.356   6.423   0.358 -0.2374 -0.4838  2.2337
19111TIP3   OH278747   2.230   4.590  13.700  0.2855  0.5779  0.0426
19111TIP3    H178748   2.272   4.575  13.784  0.1977 -2.9020 -0.4226
19111TIP3    H278749   2.136   4.587  13.719  0.2583  2.1024  0.1590
19112TIP3   OH278750   4.033   3.513  11.907 -0.1456 -0.9019 -0.6814
19112TIP3    H178751   4.107   3.559  11.868 -0.5517  2.1050  1.8292
19112TIP3    H278752   3.958   3.536  11.852 -0.1498  0.6718 -0.0525
19113TIP3   OH278753   3.483   6.751   3.669 -0.0324 -0.3444  0.0043
19113TIP3    H178754   3.514   6.661   3.657  0.0901 -0.3343  0.2311
19113TIP3    H278755   3.507   6.772   3.759  1.4361  0.5016 -0.5716
19114TIP3   OH278756   5.655   3.253  13.065  0.3347 -0.0422  0.4759
19114TIP3    H178757   5.633   3.164  13.040 -0.0053  0.2411 -0.2795
19114TIP3    H278758   5.664   3.251  13.160  5.2702 -1.9731  0.0821
19115TIP3   OH278759   5.128   4.493   0.682 -0.0603  1.1074 -0.2767
19115TIP3    H178760   5.206   4.469   0.633  1.1203  2.5327  0.8522
19115TIP3    H278761   5.086   4.409   0.703  0.8186  0.3624 -1.4298
19116TIP3   OH278762   1.390   0.818   3.775  0.1084 -0.2067  0.4377
19116TIP3    H178763   1.408   0.877   3.848 -2.4307 -0.3860  1.2487
19116TIP3    H278764   1.298   0.793   3.786  0.2864 -1.9106 -1.6208
19117TIP3   OH278765   4.592   4.247  16.097 -0.7047  0.0854  0.2993
19117TIP3    H178766   4.589   4.251  16.001 -0.2878 -1.4245  0.2188
19117TIP3    H278767   4.646   4.171  16.117 -0.4559  0.6146  1.7498
19118TIP3   OH278768   6.191   1.793   1.095 -0.1948 -0.1783  0.4531
19118TIP3    H178769   6.204   1.845   1.174  1.6282  0.1316 -0.0189
19118TIP3    H278770   6.202   1.703   1.123  0.9064 -0.0414  0.4819
19119TIP3   OH278771   3.499   2.368  14.995  0.2593  0.5176  0.2604
19119TIP3    H178772   3.543   2.355  14.911 -0.4024 -0.2475  0.0269
19119TIP3    H278773   3.416   2.411  14.971  0.6995  1.5896  0.6554
19120TIP3   OH278774   4.452   4.526   5.256  0.5635 -0.6884 -0.0187
19120TIP3    H178775   4.411   4.590   5.316  2.5072  0.1409  0.4542
19120TIP3    H278776   4.391   4.452   5.255 -1.0670  0.6149  0.4875
19121TIP3   OH278777   4.601   0.612  15.233 -0.0669 -0.7046  0.5243
19121TIP3    H178778   4.638   0.696  15.261 -0.6117  0.1367 -1.1653
19121TIP3    H278779   4.621   0.551  15.304  0.3114  0.8685  1.7913
19122TIP3   OH278780   3.884   0.286  11.432 -0.1244 -0.6885 -0.4568
19122TIP3    H178781   3.830   0.289  11.353  0.7424  0.0634 -1.0359
19122TIP3    H278782   3.896   0.193  11.449 -0.4028 -0.8580 -1.1698
19123TIP3   OH278783   2.851   2.483  11.090  0.0145 -0.5075 -0.2533
19123TIP3    H178784   2.909   2.424  11.042 -0.7288 -1.0527 -0.4814
19123TIP3    H278785   2.881   2.571  11.064  0.2439 -0.7878 -0.9668
19124TIP3   OH278786   2.702   2.101   2.020 -0.3208  0.1671 -0.0703
19124TIP3    H178787   2.778   2.143   1.980  1.0546 -1.9111  0.2644
19124TIP3    H278788   2.662   2.051   1.949 -0.6869  0.3325  0.0216
19125TIP3   OH278789   5.292   1.237   3.655  0.1631  0.2804  0.1207
19125TIP3    H178790   5.338   1.186   3.589  0.5855  0.2034  0.4700
19125TIP3    H278791   5.358   1.254   3.723 -0.9020 -1.8324  1.7391
19126TIP3   OH278792   4.526   6.536   2.864 -0.2978 -0.6149 -0.1010
19126TIP3    H178793   4.574   6.540   2.946 -0.2339  0.1604 -0.1744
19126TIP3    H278794   4.519   6.442   2.845  2.1436 -0.7295 -0.6514
19127TIP3   OH278795   3.261   3.556   3.466  0.1516 -0.4215  0.1287
19127TIP3    H178796   3.168   3.536   3.461 -0.1386  0.4525  1.8257
19127TIP3    H278797   3.268   3.648   3.440  0.2838  0.1076  1.9936
19128TIP3   OH278798   1.133   5.265  11.397 -0.2712 -0.8902  0.4905
19128TIP3    H178799   1.159   5.347  11.356  1.3272 -1.7761 -0.3250
19128TIP3    H278800   1.050   5.241  11.354  0.3688 -0.7973 -0.8116
19129TIP3   OH278801   3.354   3.290   5.333 -0.2084 -0.3145  0.0990
19129TIP3    H178802   3.276   3.321   5.379 -0.5314 -2.1068  0.8170
19129TIP3    H278803   3.423   3.294   5.399 -0.4273 -1.8133  0.4446
19130TIP3   OH278804   1.721   1.075   2.840  0.6681 -0.2694  0.3481
19130TIP3    H178805   1.660   1.082   2.913  3.4183  3.0459  2.4842
19130TIP3    H278806   1.707   1.155   2.789  0.5990 -1.3201 -1.3264
19131TIP3   OH278807   2.682   6.314  13.541  0.4729  0.5651  0.2008
19131TIP3    H178808   2.697   6.300  13.448 -0.2882 -1.3011  0.3319
19131TIP3    H278809   2.679   6.409  13.551  0.1248  0.7764 -1.7472
19132TIP3   OH278810   2.331   5.369  16.482  0.7363  0.4456  0.2031
19132TIP3    H178811   2.333   5.307  16.409  0.4452  0.9946 -0.2768
19132TIP3    H278812   2.241   5.366  16.514  1.2157 -0.8602  1.4761
19133TIP3   OH278813   2.630   6.007   5.068  0.0579  0.4297  0.9930
19133TIP3    H178814   2.649   6.080   5.010 -1.9302 -0.1839 -0.4944
19133TIP3    H278815   2.627   5.930   5.010  0.3686 -0.5486  2.2524
19134TIP3   OH278816   1.057   3.216  14.920  0.2522  0.0379 -0.4340
19134TIP3    H178817   1.089   3.196  15.008  1.5931 -0.4981 -1.0213
19134TIP3    H278818   1.136   3.211  14.865 -0.6137  0.1407 -1.6938
19135TIP3   OH278819   3.829   0.173  11.200  0.6844 -0.0043  0.1711
19135TIP3    H178820   3.824   0.080  11.220 -2.0122 -0.3372 -1.8319
19135TIP3    H278821   3.861   0.177  11.110  0.1362  0.9854  0.0149
19136TIP3   OH278822   2.402   5.937  12.678  0.3672 -0.1558 -0.1045
19136TIP3    H178823   2.391   5.853  12.721  1.0892 -0.0406  0.3149
19136TIP3    H278824   2.412   5.916  12.585 -0.6421 -0.4425 -0.1557
19137TIP3   OH278825   5.689   6.508   3.624  0.3074  0.0449 -0.1247
19137TIP3    H178826   5.688   6.563   3.703 -0.2899  1.6434 -1.2230
19137TIP3    H278827   5.782   6.499   3.602  0.4879 -0.5301  0.8259
19138TIP3   OH278828   3.150   4.267   2.605  0.1241 -0.4385 -0.0610
19138TIP3    H178829   3.201   4.189   2.626 -0.6516 -1.2018 -0.9902
19138TIP3    H278830   3.132   4.308   2.690 -0.6587 -2.0215  0.5456
19139TIP3   OH278831   4.012   5.882  11.185 -0.2271  0.2865 -0.4682
19139TIP3    H178832   3.993   5.963  11.137 -0.3077  0.4145 -0.2233
19139TIP3    H278833   4.070   5.910  11.256  0.6851 -0.0652 -1.0694
19140TIP3   OH278834   1.803   5.481  15.078  0.0431 -0.3395 -0.1759
19140TIP3    H178835   1.792   5.386  15.082 -1.3471 -0.2666 -1.6997
19140TIP3    H278836   1.887   5.498  15.122  0.5154 -2.3074 -0.2876
19141TIP3   OH278837   6.385   4.125   5.963 -0.1304 -0.0527  0.3913
19141TIP3    H178838   6.407   4.213   5.931 -0.3107 -0.2798 -0.3604
19141TIP3    H278839   6.415   4.066   5.894 -3.0292 -0.3708 -0.6181
19142TIP3   OH278840   2.896   4.524  11.560  0.4306  0.2761  0.3395
19142TIP3    H178841   2.960   4.491  11.498  0.2456  0.6364 -0.0481
19142TIP3    H278842   2.947   4.577  11.621  0.2431  2.1884 -1.1234
19143TIP3   OH278843   4.518   4.652  11.475 -0.1145  0.3989  0.2359
19143TIP3    H178844   4.570   4.649  11.395 -0.6270  2.2110 -0.1776
19143TIP3    H278845   4.575   4.692  11.540 -0.0156 -0.2403  0.5487
19144TIP3   OH278846   6.488   4.647   3.921 -0.1829  0.1137 -0.2292
19144TIP3    H178847   6.493   4.733   3.879  2.7873  0.9528  1.6722
19144TIP3    H278848   6.545   4.655   3.998 -1.4004 -2.9632  1.0674
19145TIP3   OH278849   0.470   4.678   5.144  0.4929  0.2828  0.0189
19145TIP3    H178850   0.397   4.730   5.177  0.4870  1.2456 -1.4773
19145TIP3    H278851   0.546   4.738   5.147  0.7975 -0.0850 -0.3260
19146TIP3   OH278852   1.326   6.304  12.457  0.5316 -0.6620 -0.3154
19146TIP3    H178853   1.281   6.366  12.400 -0.0221  0.9893  1.8131
19146TIP3    H278854   1.306   6.218  12.421 -0.1584  0.3146 -2.3150
19147TIP3   OH278855   3.144   0.774  16.536 -0.1896  0.0147  0.4061
19147TIP3    H178856   3.204   0.706  16.505 -0.2088 -0.1550  0.7335
19147TIP3    H278857   3.057   0.745  16.510 -0.0870  0.5090 -0.5135
19148TIP3   OH278858   1.564   2.187  16.475  0.0467 -0.2567 -0.4726
19148TIP3    H178859   1.646   2.154  16.512  0.5473 -1.6063 -2.7553
19148TIP3    H278860   1.498   2.166  16.541  1.2323 -0.8671  0.5360
19149TIP3   OH278861   6.446   2.054   4.999  0.2987  0.2318 -0.0709
19149TIP3    H178862   6.473   2.138   5.036  0.2335  0.2618 -0.0907
19149TIP3    H278863   6.353   2.048   5.021 -0.1368  0.9899 -1.6378
19150TIP3   OH278864   6.686   4.495   6.132  0.4683 -0.0848 -0.9356
19150TIP3    H178865   6.630   4.432   6.176 -0.6155  0.0245 -2.1513
19150TIP3    H278866   6.758   4.443   6.097 -0.1546 -0.5597 -1.4954
19151TIP3   OH278867   0.180   2.446   2.904 -0.2313  0.2043  0.0292
19151TIP3    H178868   0.109   2.482   2.851 -0.6682  0.2582  0.6365
19151TIP3    H278869   0.253   2.437   2.844 -0.5515  0.7795 -0.4536
19152TIP3   OH278870   6.282   2.092  12.775 -0.0969 -0.5415  0.2396
19152TIP3    H178871   6.286   2.069  12.868  1.4228 -0.0285  0.3084
19152TIP3    H278872   6.354   2.043  12.735 -0.6675 -0.6579 -0.6521
19153TIP3   OH278873   3.592   0.281  14.235  0.2750 -0.7722 -0.5036
19153TIP3    H178874   3.687   0.280  14.248  0.4242 -1.6019 -1.6081
19153TIP3    H278875   3.567   0.189  14.238 -0.4573 -0.5710 -0.4974
19154TIP3   OH278876   0.135   2.953   6.202  0.3314  0.6283  0.4025
19154TIP3    H178877   0.063   2.948   6.265 -1.2203 -0.4498 -1.4139
19154TIP3    H278878   0.157   3.046   6.198  0.0657  0.7883  2.0734
19155TIP3   OH278879   4.898   6.300  15.633 -0.6942  0.2427 -0.3621
19155TIP3    H178880   4.902   6.205  15.641  0.3497  0.4359  1.5408
19155TIP3    H278881   4.832   6.327  15.697  1.1906  1.0348  1.2942
19156TIP3   OH278882   5.508   2.487  11.665  0.1244 -0.4280  0.2746
19156TIP3    H178883   5.530   2.542  11.589  0.8438 -1.0127  0.0509
19156TIP3    H278884   5.440   2.428  11.633 -0.1121 -0.1688  0.2987
19157TIP3   OH278885   3.630   6.468  14.265 -0.1461  0.1452 -0.9042
19157TIP3    H178886   3.690   6.442  14.334  0.9028  2.7186 -0.8042
19157TIP3    H278887   3.678   6.451  14.184  1.3492  3.5331 -0.7930
19158TIP3   OH278888   4.508   0.624  10.683  0.0522 -0.6590  0.0368
19158TIP3    H178889   4.450   0.548  10.677  0.0903 -0.5813 -1.7093
19158TIP3    H278890   4.585   0.599  10.631 -1.3424  1.8087 -3.3596
19159TIP3   OH278891   1.499   0.462  12.725 -0.0008  0.6586  0.0548
19159TIP3    H178892   1.524   0.453  12.633  0.6803 -2.1516  0.4704
19159TIP3    H278893   1.576   0.498  12.768 -0.7141  3.0952 -0.6423
19160TIP3   OH278894   5.994   4.975   4.500  1.0753  0.3696 -0.2043
19160TIP3    H178895   6.083   4.946   4.478  1.4327  2.1447 -1.2051
19160TIP3    H278896   5.942   4.952   4.423  0.8429  0.1460  0.0186
19161TIP3   OH278897   4.298   3.367  14.918 -0.5596 -0.0207 -0.2429
19161TIP3    H178898   4.342   3.442  14.878 -0.6800 -1.1163 -2.5048
19161TIP3    H278899   4.208   3.373  14.886  0.1612 -2.8436 -3.0233
19162TIP3   OH278900   2.915   4.180   1.140  0.3560 -0.2138  0.1138
19162TIP3    H178901   2.823   4.167   1.115  0.7670  1.8195 -2.7072
19162TIP3    H278902   2.959   4.099   1.112 -0.5689 -1.2671  1.6262
19163TIP3   OH278903   1.366   6.779  14.844 -0.0647  0.0581  0.0795
19163TIP3    H178904   1.318   6.722  14.904 -1.9585  0.3688 -1.1155
19163TIP3    H278905   1.449   6.795  14.889 -1.2975  0.0089  2.5011
19164TIP3   OH278906   5.411   0.831   4.742  0.2081 -0.1908  0.1390
19164TIP3    H178907   5.404   0.863   4.832 -0.7490 -3.1152  1.1536
19164TIP3    H278908   5.506   0.821   4.727  0.3369 -0.3871  1.0773
19165TIP3   OH278909   2.210   2.889  16.458  0.5040 -0.5373  0.2353
19165TIP3    H178910   2.127   2.875  16.414 -1.1127 -0.6496  3.2001
19165TIP3    H278911   2.255   2.804  16.454 -0.8074 -1.2875  1.1405
19166TIP3   OH278912   0.624   1.571  15.156  0.0122  0.2305  0.0327
19166TIP3    H178913   0.681   1.495  15.141 -0.4363 -0.1751  0.3844
19166TIP3    H278914   0.637   1.625  15.078  1.2466  0.3839  0.3303
19167TIP3   OH278915   5.101   2.949   0.584 -0.3299 -0.2865 -0.0778
19167TIP3    H178916   5.194   2.967   0.573 -0.3061  0.4341  1.2411
19167TIP3    H278917   5.057   3.023   0.542 -0.2848  0.2962  0.8932
19168TIP3   OH278918   4.349   2.823   0.320  0.5611  0.4894 -0.1634
19168TIP3    H178919   4.427   2.828   0.375 -0.1955 -0.2409  1.0180
19168TIP3    H278920   4.311   2.737   0.341 -0.3799  0.7047 -0.9574
19169TIP3   OH278921   6.451   5.169  10.655 -0.0211  0.0490  0.0706
19169TIP3    H178922   6.462   5.109  10.581 -0.4426  0.9861 -0.7621
19169TIP3    H278923   6.518   5.143  10.717 -0.2991 -1.3900 -0.2142
19170TIP3   OH278924   3.740   2.165  12.087 -0.6379  0.3076 -0.6526
19170TIP3    H178925   3.751   2.120  12.170 -1.9481 -0.5361 -0.9227
19170TIP3    H278926   3.723   2.257  12.111 -1.3438  0.0046  0.0152
19171TIP3   OH278927   2.885   2.357  13.420  0.3401 -0.3716  0.3181
19171TIP3    H178928   2.949   2.367  13.349 -0.0837 -0.9982 -0.1559
19171TIP3    H278929   2.935   2.374  13.499  0.4918  1.7464 -0.2136
19172TIP3   OH278930   1.609   3.168   5.436 -0.0848 -0.2228  0.2639
19172TIP3    H178931   1.682   3.123   5.478 -0.3365  0.9956  2.0737
19172TIP3    H278932   1.538   3.165   5.500 -1.3521 -0.5993 -1.1113
19173TIP3   OH278933   6.428   6.263  12.351  0.3093  0.0705 -0.4803
19173TIP3    H178934   6.368   6.337  12.357  0.1658 -0.2001  1.5096
19173TIP3    H278935   6.382   6.199  12.296 -1.4569 -0.3442  1.4492
19174TIP3   OH278936   5.758   1.055  15.525 -0.0642 -0.1444  0.4649
19174TIP3    H178937   5.664   1.047  15.536 -0.0304 -0.0199  0.8841
19174TIP3    H278938   5.795   0.998  15.593  0.1675  1.0237  1.3398
19175TIP3   OH278939   2.413   4.475  17.111  0.5900  0.4047  0.3466
19175TIP3    H178940   2.418   4.448  17.203  0.7029  0.5613  0.3889
19175TIP3    H278941   2.411   4.571  17.115  1.3091  0.4329  0.1582
19176TIP3   OH278942   3.021   4.387  16.992  0.6212  0.0896 -0.4208
19176TIP3    H178943   3.039   4.312  17.048  1.9530  1.2193  0.7244
19176TIP3    H278944   3.098   4.393  16.935  0.3247  0.3160 -0.7995
19177TIP3   OH278945   2.052   5.576   6.100 -0.1939 -0.1924 -0.4209
19177TIP3    H178946   2.014   5.489   6.100 -0.2801 -0.1660  0.9001
19177TIP3    H278947   2.140   5.564   6.136  0.3781  0.0311 -1.7035
19178TIP3   OH278948   3.814   3.298  16.462 -0.2114  0.1337 -0.6569
19178TIP3    H178949   3.848   3.262  16.544  0.6784 -1.2470 -1.6030
19178TIP3    H278950   3.843   3.389  16.462 -0.9945  0.3946  0.9735
19179TIP3   OH278951   3.330   2.992   3.834 -0.5159 -0.1957 -0.0294
19179TIP3    H178952   3.336   2.899   3.858 -0.7610 -0.3764 -0.6468
19179TIP3    H278953   3.388   3.036   3.895 -2.0427 -0.4876  1.6981
19180TIP3   OH278954   3.961   5.415   1.080 -0.2000  0.4381  0.1305
19180TIP3    H178955   3.900   5.481   1.046 -0.4322 -0.5271 -1.4079
19180TIP3    H278956   4.034   5.465   1.116 -0.4209  1.5313 -0.9216
19181TIP3   OH278957   2.712   6.011   5.891 -0.2090  0.7060  0.0741
19181TIP3    H178958   2.765   6.020   5.811 -0.8361  1.8295 -0.2217
19181TIP3    H278959   2.777   6.009   5.962  0.3417 -0.1113 -0.4445
19182TIP3   OH278960   0.725   5.547  11.740 -0.4002 -0.2009 -0.7296
19182TIP3    H178961   0.818   5.552  11.760 -0.6625 -0.4660  0.5644
19182TIP3    H278962   0.681   5.564  11.823 -1.4834 -3.4757 -0.5410
19183TIP3   OH278963   4.515   4.732   5.063 -0.0110  0.3856 -0.1108
19183TIP3    H178964   4.522   4.637   5.057  1.9077  0.3835  1.7973
19183TIP3    H278965   4.540   4.763   4.976  0.9687 -0.7754 -0.2501
19184TIP3   OH278966   2.221   2.268  16.978 -0.1267  0.0596 -0.1187
19184TIP3    H178967   2.210   2.244  16.886  2.7111  0.7089 -0.6845
19184TIP3    H278968   2.300   2.221  17.006 -1.6113 -1.0958  2.3712
19185TIP3   OH278969   5.934   5.489  15.797  0.2136  0.1871 -0.0949
19185TIP3    H178970   5.860   5.543  15.827 -0.2754 -0.6091  0.1568
19185TIP3    H278971   5.911   5.465  15.707 -0.0178 -0.3706  0.1106
19186TIP3   OH278972   6.605   6.257  13.631  0.0191 -0.4294  0.2054
19186TIP3    H178973   6.554   6.205  13.568  0.7014  1.2382 -1.7826
19186TIP3    H278974   6.556   6.338  13.641  2.3323  1.3035 -1.9272
19187TIP3   OH278975   3.962   1.426  12.026  0.2993  0.5039 -0.2563
19187TIP3    H178976   3.898   1.493  12.004 -1.0073 -0.6983 -0.2003
19187TIP3    H278977   3.921   1.374  12.095  0.4627 -1.5072 -1.5951
19188TIP3   OH278978   6.049   4.617  15.722 -0.3101  0.5668 -0.3116
19188TIP3    H178979   5.985   4.610  15.652  0.4110  2.7605 -1.2402
19188TIP3    H278980   6.001   4.593  15.801 -2.2632  2.0601 -0.9965
19189TIP3   OH278981   5.671   5.694  15.166  0.4226 -0.4229  0.9836
19189TIP3    H178982   5.602   5.647  15.119  1.8840 -1.5438 -0.1131
19189TIP3    H278983   5.747   5.636  15.159  2.5046  2.4144 -1.0548
19190TIP3   OH278984   0.568   6.524  15.909  0.3312  0.4261 -0.7535
19190TIP3    H178985   0.543   6.432  15.912  1.9851 -0.0167 -0.5611
19190TIP3    H278986   0.490   6.568  15.873  0.2629 -1.2903 -2.8347
19191TIP3   OH278987   2.106   4.285   4.781  0.5970  0.6497  0.2275
19191TIP3    H178988   2.033   4.263   4.839  0.2216 -0.3059 -0.6036
19191TIP3    H278989   2.127   4.376   4.803  1.9223 -0.3408  3.4461
19192TIP3   OH278990   4.046   5.621  12.471  0.3170  0.6560  0.3045
19192TIP3    H178991   4.134   5.595  12.445 -1.0048 -1.7365 -2.1257
19192TIP3    H278992   4.017   5.680  12.401 -0.4909  0.2866  0.3130
19193TIP3   OH278993   3.114   3.669   4.753 -0.2863 -0.0544 -0.3116
19193TIP3    H178994   3.190   3.715   4.789 -1.0738  1.7334 -0.8599
19193TIP3    H278995   3.041   3.729   4.767 -0.9168 -0.0603 -3.2330
19194TIP3   OH278996   6.461   0.343  14.562  0.2519 -0.3680  0.7392
19194TIP3    H178997   6.458   0.432  14.596  1.0688 -0.5394  1.2740
19194TIP3    H278998   6.379   0.333  14.514 -1.8321 -0.7249  4.1687
19195TIP3   OH278999   5.928   0.576   0.334 -0.3889  0.1116 -0.1391
19195TIP3    H179000   6.007   0.531   0.304 -0.4253 -1.1299  1.5034
19195TIP3    H279001   5.961   0.646   0.391 -0.4591 -0.3349  0.4551
19196TIP3   OH279002   2.233   5.458  16.140 -0.0634  0.1955  0.3353
19196TIP3    H179003   2.307   5.518  16.147  0.8756 -0.8965  0.0152
19196TIP3    H279004   2.156   5.514  16.145  0.7832  1.7484 -2.5745
19197TIP3   OH279005   4.874   0.316   2.860 -0.1881  0.0766 -0.3427
19197TIP3    H179006   4.824   0.262   2.798 -1.7582  0.9499  0.1313
19197TIP3    H279007   4.809   0.343   2.925  1.1299  0.4367  0.8300
19198TIP3   OH279008   0.469   4.715   2.565 -0.0108 -0.5917  0.5686
19198TIP3    H179009   0.452   4.803   2.598  0.4444 -1.3370  2.8457
19198TIP3    H279010   0.564   4.713   2.550 -0.2874 -0.0489 -1.5251
19199TIP3   OH279011   4.379   2.429  11.448  0.4030 -0.2117 -0.2794
19199TIP3    H179012   4.409   2.347  11.487  0.2330 -0.1916 -0.1000
19199TIP3    H279013   4.390   2.494  11.518 -0.5575 -0.3074 -0.0174
19200TIP3   OH279014   2.432   0.749  11.476 -0.3480 -0.4363  0.0431
19200TIP3    H179015   2.430   0.830  11.528  0.0482 -0.4612  0.0982
19200TIP3    H279016   2.504   0.699  11.513 -0.0438 -0.4406 -0.5536
19201TIP3   OH279017   0.521   5.580   4.180  0.0055 -0.3347  0.4133
19201TIP3    H179018   0.525   5.517   4.252 -0.0203 -0.4574  0.3059
19201TIP3    H279019   0.605   5.572   4.136  0.4219  0.4677  1.0475
19202TIP3   OH279020   5.930   0.550   2.328 -0.1756 -0.4596  0.0907
19202TIP3    H179021   5.933   0.551   2.424 -1.9519 -2.1410  0.1828
19202TIP3    H279022   5.911   0.459   2.305 -0.4844  0.0635 -1.8429
19203TIP3   OH279023   5.223   6.319  12.307  0.0808 -0.1635 -0.3450
19203TIP3    H179024   5.214   6.343  12.215 -0.4084 -0.5457 -0.3945
19203TIP3    H279025   5.195   6.398  12.355 -0.3712 -0.2219 -0.5153
19204TIP3   OH279026   2.965   4.800   4.923  0.1982 -0.0666  0.2330
19204TIP3    H179027   3.057   4.788   4.944  0.2643  0.4562  0.2501
19204TIP3    H279028   2.936   4.715   4.890  0.5179 -0.4170  0.8491
19205TIP3   OH279029   6.095   4.297   2.325 -0.6161  0.5004  0.0943
19205TIP3    H179030   6.027   4.347   2.369 -0.9726  0.7455 -0.7289
19205TIP3    H279031   6.175   4.348   2.337 -1.1945  1.9031 -1.7777
19206TIP3   OH279032   2.374   5.007   0.492  0.0981  0.1508  0.2384
19206TIP3    H179033   2.438   5.043   0.431 -1.7563 -0.9267 -2.3942
19206TIP3    H279034   2.414   4.926   0.523  0.2416 -0.2432 -0.9687
19207TIP3   OH279035   3.832   3.240   6.249 -0.2431 -0.4206  0.1987
19207TIP3    H179036   3.883   3.205   6.322 -0.2796 -0.3151  0.2735
19207TIP3    H279037   3.758   3.180   6.241 -1.5911  0.9888  1.8568
19208TIP3   OH279038   3.080   0.666   1.648 -0.6134  0.7465  0.2208
19208TIP3    H179039   3.056   0.694   1.737 -0.7864 -1.5084  0.8990
19208TIP3    H279040   3.003   0.620   1.616  0.2168 -0.2753 -0.3168
19209TIP3   OH279041   1.566   0.584   3.896  0.0805  0.2096  0.3590
19209TIP3    H179042   1.491   0.552   3.946 -1.7707 -0.3165 -2.5838
19209TIP3    H279043   1.546   0.676   3.878  1.0190  0.5611  1.0675
19210TIP3   OH279044   2.619   6.672  11.273  0.5126  0.0464 -0.4701
19210TIP3    H179045   2.538   6.634  11.307  0.2700  0.0261 -1.0656
19210TIP3    H279046   2.685   6.652  11.340  0.1291 -0.3562 -0.2105
19211TIP3   OH279047   4.638   2.695   1.789 -0.1875  0.3149  0.1942
19211TIP3    H179048   4.672   2.723   1.704 -1.0305  2.8713  0.6518
19211TIP3    H279049   4.699   2.732   1.853  0.3851 -1.5047  0.7323
19212TIP3   OH279050   6.781   1.448  17.059 -0.2814 -1.1838 -0.2403
19212TIP3    H179051   6.718   1.386  17.021 -0.0211 -2.0115  0.6650
19212TIP3    H279052   6.860   1.396  17.074 -0.5232 -0.9880  1.8477
19213TIP3   OH279053   1.511   1.300   1.510 -0.2072 -0.2493 -0.1258
19213TIP3    H179054   1.457   1.222   1.497  0.4550 -0.5678 -1.0271
19213TIP3    H279055   1.528   1.302   1.604  1.6730 -2.4816 -0.3755
19214TIP3   OH279056   6.560   2.751  16.099 -0.1844  0.4728 -0.7472
19214TIP3    H179057   6.582   2.780  16.011 -1.0172 -0.1961 -1.1708
19214TIP3    H279058   6.475   2.791  16.117 -0.5803 -0.3856 -0.7132
19215TIP3   OH279059   2.018   5.981   3.563  0.3472 -0.2843  0.1531
19215TIP3    H179060   1.951   6.040   3.598 -0.6732 -0.6513 -1.1432
19215TIP3    H279061   2.086   6.040   3.530 -0.5070  0.1824 -0.8154
19216TIP3   OH279062   5.871   3.962  16.811 -0.2978  0.1727 -0.2300
19216TIP3    H179063   5.877   4.035  16.749 -2.0733  0.9947  0.5133
19216TIP3    H279064   5.869   3.884  16.756  1.5743  0.6687 -1.0360
19217TIP3   OH279065   6.406   5.870   5.534  0.1730  0.2546  0.5265
19217TIP3    H179066   6.381   5.922   5.611 -1.2874  1.2244 -0.5685
19217TIP3    H279067   6.358   5.910   5.461  0.1437 -1.7580 -0.6038
19218TIP3   OH279068   3.540   1.460  14.086  0.0084  0.1240  0.5128
19218TIP3    H179069   3.621   1.410  14.102  0.3880 -0.2508 -2.4495
19218TIP3    H279070   3.470   1.403  14.116  0.6360 -0.9671 -0.0827
19219TIP3   OH279071   1.654   4.367   4.715  0.5624 -0.4584 -0.1336
19219TIP3    H179072   1.747   4.347   4.725  1.1361  2.3059  0.6045
19219TIP3    H279073   1.644   4.393   4.624  0.4996 -0.7604 -0.2140
19220TIP3   OH279074   0.601   2.297   3.336 -0.3054 -0.0152  0.3115
19220TIP3    H179075   0.557   2.294   3.251 -1.2369  0.7209  0.7568
19220TIP3    H279076   0.613   2.391   3.352  2.2962 -0.2263 -0.2420
19221TIP3   OH279077   5.532   1.822  11.808 -0.6457 -0.7134 -0.0680
19221TIP3    H179078   5.496   1.752  11.754 -0.4433 -1.8220  1.2051
19221TIP3    H279079   5.588   1.777  11.872 -0.1819  0.6369  0.5035
19222TIP3   OH279080   3.518   5.149   1.424  0.0675 -0.6059 -0.3540
19222TIP3    H179081   3.458   5.162   1.497  0.7068 -1.5867  0.3466
19222TIP3    H279082   3.605   5.170   1.460  0.2298  0.2596 -1.2075
19223TIP3   OH279083   3.306   1.226   3.230 -1.0100 -0.2878  0.8672
19223TIP3    H179084   3.338   1.157   3.172  1.5517  2.9902 -1.8492
19223TIP3    H279085   3.234   1.266   3.183  0.3304  1.6516  0.4024
19224TIP3   OH279086   6.765   5.111  13.069  0.1045  0.1654 -0.1889
19224TIP3    H179087   6.746   5.166  13.145 -1.1824  0.6148 -0.8170
19224TIP3    H279088   6.771   5.172  12.996  1.4535 -0.2530 -0.4430
19225TIP3   OH279089   5.631   2.717   1.464 -0.6087  0.1052  0.0283
19225TIP3    H179090   5.683   2.796   1.479 -0.2857 -0.3036  1.0847
19225TIP3    H279091   5.569   2.714   1.537 -0.6808 -0.5715 -0.0539
19226TIP3   OH279092   2.277   4.194  12.372  0.3874  0.3241  0.1513
19226TIP3    H179093   2.283   4.099  12.386  1.6090  0.6433  2.0553
19226TIP3    H279094   2.227   4.204  12.291  2.5483 -2.0276 -1.5660
19227TIP3   OH279095   4.733   0.004   6.196  0.6873 -0.6281 -0.2904
19227TIP3    H179096   4.720  -0.071   6.254 -2.6947  1.1642  1.4365
19227TIP3    H279097   4.802   0.056   6.238 -1.2406  0.2880  1.7990
19228TIP3   OH279098   3.917   6.052   1.555 -0.0754 -0.2662  0.2356
19228TIP3    H179099   4.010   6.075   1.552  0.1510 -1.3159 -1.5935
19228TIP3    H279100   3.874   6.122   1.507  0.0612 -1.0820 -1.0879
19229TIP3   OH279101   5.034   3.002   3.211 -0.3305  0.1348 -0.3677
19229TIP3    H179102   5.050   2.914   3.177 -0.1812  0.5311 -1.3425
19229TIP3    H279103   5.052   2.996   3.305 -2.1593 -1.3366 -0.0865
19230TIP3   OH279104   0.586   0.494  15.624 -0.0012 -0.1550 -0.7452
19230TIP3    H179105   0.606   0.400  15.622  0.7517 -0.0722  1.0783
19230TIP3    H279106   0.653   0.531  15.682 -0.9990  1.3204 -0.5024
19231TIP3   OH279107   5.032   4.477  12.016  0.3286  0.2789  0.0349
19231TIP3    H179108   4.988   4.410  11.963 -0.1416  1.1431 -0.6745
19231TIP3    H279109   4.987   4.558  11.994 -0.5260  0.5011  2.5119
19232TIP3   OH279110   3.304   0.902   0.099  0.2513  0.4425 -0.1048
19232TIP3    H179111   3.388   0.942   0.076  0.3178  0.8507  0.8146
19232TIP3    H279112   3.324   0.810   0.116  0.8334  0.9164  1.8616
19233TIP3   OH279113   4.505   5.937  16.362  0.3403 -0.2041 -0.7758
19233TIP3    H179114   4.434   5.885  16.324 -0.3408  0.7699 -0.8363
19233TIP3    H279115   4.472   5.961  16.449  0.1561  1.1187 -1.2011
19234TIP3   OH279116   3.091   2.157   4.292  0.0067  0.1582 -0.5037
19234TIP3    H179117   3.048   2.231   4.336  1.2123  2.0252 -2.3628
19234TIP3    H279118   3.184   2.168   4.313 -0.0149 -1.9928  0.8227
19235TIP3   OH279119   2.581   5.622  16.571  0.3948 -0.0300 -0.1830
19235TIP3    H179120   2.563   5.533  16.541  1.0917 -0.1164 -0.3609
19235TIP3    H279121   2.583   5.616  16.666  1.8541 -0.5041 -0.2215
19236TIP3   OH279122   4.933   2.617  13.404  0.2503 -0.4135  0.9264
19236TIP3    H179123   4.949   2.531  13.366  2.3020  0.3453 -0.0153
19236TIP3    H279124   4.848   2.643  13.370  1.7450 -0.0002 -2.7336
19237TIP3   OH279125   5.040   6.666  12.569 -0.2279 -0.0966  0.3685
19237TIP3    H179126   5.027   6.744  12.515 -0.2064 -1.7645 -2.1375
19237TIP3    H279127   5.109   6.617  12.523 -2.5437 -3.1962  0.0160
19238TIP3   OH279128   6.676   3.261   3.125 -0.1319  0.3482  0.2949
19238TIP3    H179129   6.631   3.311   3.057  1.1499  0.4120 -0.5169
19238TIP3    H279130   6.694   3.325   3.194 -1.8458  0.1869  0.9341
19239TIP3   OH279131   2.503   5.396   6.424 -0.0841  0.0752  0.1041
19239TIP3    H179132   2.444   5.455   6.378 -1.2518  0.6977  2.3151
19239TIP3    H279133   2.591   5.430   6.405 -0.5191  0.1590 -1.8217
19240TIP3   OH279134   1.104   0.143   1.071  0.7532  0.6960  0.8076
19240TIP3    H179135   1.139   0.153   0.983  1.6094 -0.1644  1.0409
19240TIP3    H279136   1.009   0.140   1.060  0.8774  0.1453 -0.1263
19241TIP3   OH279137   6.585   5.604   6.057  0.2651  0.2151  0.0542
19241TIP3    H179138   6.568   5.511   6.071 -0.8037  0.3281 -0.4782
19241TIP3    H279139   6.501   5.640   6.029  0.4047  1.5521  1.3126
19242TIP3   OH279140   2.045   6.776   2.916 -0.1386 -0.2325 -0.2303
19242TIP3    H179141   1.982   6.708   2.939 -0.9947  0.5328 -0.2989
19242TIP3    H279142   2.022   6.851   2.971  0.4926  0.1723 -0.5065
19243TIP3   OH279143   0.010   3.800  14.387  0.3798  0.2247  0.0224
19243TIP3    H179144   0.026   3.880  14.337  1.6591 -0.6088 -0.9497
19243TIP3    H279145  -0.079   3.774  14.364  0.5615  0.4627 -0.9790
19244TIP3   OH279146   2.639   1.326   0.731  0.3806  0.1084  0.2306
19244TIP3    H179147   2.642   1.283   0.817  1.2471  1.7257  1.0256
19244TIP3    H279148   2.627   1.419   0.751 -0.9036  0.3301 -1.4554
19245TIP3   OH279149   2.475   2.036  13.810 -0.2675  0.3153  0.1028
19245TIP3    H179150   2.562   2.008  13.840  0.2012  0.7866 -0.8001
19245TIP3    H279151   2.448   2.101  13.874 -1.1471 -1.7831  1.9432
19246TIP3   OH279152   2.216   1.084  14.771 -0.5168  0.3838 -0.0043
19246TIP3    H179153   2.208   0.989  14.764 -0.2387  0.3119  0.5972
19246TIP3    H279154   2.284   1.097  14.837 -0.6714  1.0022  0.0358
19247TIP3   OH279155   2.764   0.417   5.553  0.1385  0.1577  0.0614
19247TIP3    H179156   2.772   0.327   5.521  3.5776  0.8900 -1.4642
19247TIP3    H279157   2.696   0.456   5.499 -0.3589 -1.1211 -0.2521
19248TIP3   OH279158   3.578   3.917  14.292 -0.2317  0.6735 -0.3451
19248TIP3    H179159   3.663   3.915  14.336 -0.4543 -1.3282  0.0557
19248TIP3    H279160   3.549   4.007  14.302  1.8484  1.3950 -0.5128
19249TIP3   OH279161   1.779   1.353   5.186  0.4007  0.6402 -0.6956
19249TIP3    H179162   1.729   1.272   5.191  0.2628  0.8879  2.4767
19249TIP3    H279163   1.863   1.332   5.226  1.6348  1.1778 -2.9005
19250TIP3   OH279164   6.457   5.229  11.798  0.4518 -0.1965 -0.2059
19250TIP3    H179165   6.451   5.145  11.843 -3.2862 -0.8016 -1.6157
19250TIP3    H279166   6.383   5.280  11.831  1.0959  1.5169 -1.3145
19251TIP3   OH279167   4.116   3.992  13.578 -0.2556  0.0221 -0.6006
19251TIP3    H179168   4.204   4.000  13.615 -0.8527  0.1326  0.8314
19251TIP3    H279169   4.071   4.071  13.606 -0.9255 -0.2146 -1.0075
19252TIP3   OH279170   4.631   6.187  16.283 -0.5530 -0.1431 -0.0330
19252TIP3    H179171   4.590   6.101  16.289 -0.3809 -0.1929  0.5057
19252TIP3    H279172   4.598   6.235  16.359 -0.1947  0.0664 -0.0086
19253TIP3   OH279173   5.632   2.864  13.594 -0.0021 -0.1240  0.4678
19253TIP3    H179174   5.639   2.831  13.505 -0.9471 -0.4340  0.5041
19253TIP3    H279175   5.558   2.817  13.632 -1.6798  2.3282  0.3615
19254TIP3   OH279176   6.272   2.157  11.771  0.7660 -0.2227 -0.3107
19254TIP3    H179177   6.297   2.085  11.714  0.4025 -0.8552  0.3066
19254TIP3    H279178   6.268   2.117  11.858  1.1415  0.6829  0.1238
19255TIP3   OH279179   6.383   5.865  11.612  0.2380  0.0984 -0.2130
19255TIP3    H179180   6.394   5.780  11.655 -1.0416  0.5715  1.0953
19255TIP3    H279181   6.412   5.929  11.678  1.1300  0.6957 -1.1583
19256TIP3   OH279182   0.999   4.121   3.956  0.1823  0.1719  0.3947
19256TIP3    H179183   1.077   4.086   3.913 -0.3795 -0.0793 -0.4284
19256TIP3    H279184   0.977   4.055   4.021  0.3299 -0.0262  0.2478
19257TIP3   OH279185   5.164   0.381  15.722 -0.2660  0.4325  0.2910
19257TIP3    H179186   5.211   0.350  15.644 -1.0711  0.4021 -0.1821
19257TIP3    H279187   5.146   0.302  15.773 -0.4922  0.3573  0.0939
19258TIP3   OH279188   1.907   2.851   1.735  0.0046  0.8849  0.0810
19258TIP3    H179189   1.998   2.826   1.720 -0.0271  0.9701 -0.2492
19258TIP3    H279190   1.856   2.777   1.701 -0.1559  2.2096 -2.6392
19259TIP3   OH279191   1.637   5.961  13.118  0.4225 -0.8262  0.3533
19259TIP3    H179192   1.688   5.926  13.044  1.7088  3.2337 -0.7931
19259TIP3    H279193   1.546   5.955  13.089  0.5771 -3.1642  0.2220
19260TIP3   OH279194   0.997   3.924  12.598  0.5060 -0.5600 -0.2043
19260TIP3    H179195   1.066   3.896  12.658  2.4575 -0.0053 -2.1409
19260TIP3    H279196   1.042   3.973  12.530 -1.9846  0.9860 -0.8032
19261TIP3   OH279197   1.723   3.414   6.416  0.3587 -0.6371  0.2191
19261TIP3    H179198   1.724   3.346   6.483 -0.8415 -0.9214 -0.0334
19261TIP3    H279199   1.653   3.388   6.356  0.5525  0.2903 -0.4322
19262TIP3   OH279200   3.226   2.584   6.254  0.2408  0.1802 -0.4861
19262TIP3    H179201   3.148   2.541   6.220 -0.2858 -1.4797  2.6839
19262TIP3    H279202   3.299   2.529   6.224  0.0421  0.5325 -1.6288
19263TIP3   OH279203   1.288   3.638  16.119 -0.0256  0.3860 -0.0977
19263TIP3    H179204   1.361   3.687  16.083  0.3926 -0.6263 -0.6362
19263TIP3    H279205   1.264   3.575  16.051 -0.2376 -0.4926  0.7660
19264TIP3   OH279206   1.362   2.210   3.953 -0.0144  0.1164 -0.5294
19264TIP3    H179207   1.364   2.126   3.908  1.9216 -0.2250  0.1441
19264TIP3    H279208   1.387   2.190   4.043 -0.2304  1.3197 -0.1887
19265TIP3   OH279209   4.766   2.847   4.563 -0.0318 -0.3818 -0.0080
19265TIP3    H179210   4.709   2.921   4.579 -0.2443 -0.3117 -1.0800
19265TIP3    H279211   4.759   2.830   4.469 -1.4647 -2.9467  0.5022
19266TIP3   OH279212   4.312   3.278  16.146  0.5410  0.1436  0.0305
19266TIP3    H179213   4.303   3.207  16.082  3.9688  1.2791 -1.8407
19266TIP3    H279214   4.312   3.358  16.093  1.6043  1.2349  1.6416
19267TIP3   OH279215   0.574   5.183   4.504  0.2554 -0.3590 -0.3727
19267TIP3    H179216   0.520   5.244   4.454  2.5247  2.2444  0.2269
19267TIP3    H279217   0.649   5.235   4.533  3.3432 -3.9216 -1.5424
19268TIP3   OH279218   5.800   6.205   2.196 -0.2705  0.0260  0.4884
19268TIP3    H179219   5.747   6.135   2.157  0.1828  0.6810 -1.3968
19268TIP3    H279220   5.824   6.261   2.121  2.6949  0.0015  1.3662
19269TIP3   OH279221   0.392   6.171  13.254 -0.0128  0.3543 -0.8031
19269TIP3    H179222   0.450   6.220  13.313 -0.3896 -0.7565  0.5104
19269TIP3    H279223   0.324   6.234  13.230 -1.2657  0.0879  1.9741
19270TIP3   OH279224   2.031   2.229   3.590 -0.3956 -0.1938  0.3753
19270TIP3    H179225   2.048   2.180   3.670  2.0881 -0.0509 -0.0360
19270TIP3    H279226   2.117   2.241   3.550 -1.4921  0.5441 -1.8494
19271TIP3   OH279227   4.007   2.384  16.738 -0.1555  0.0892 -1.1543
19271TIP3    H179228   4.076   2.384  16.671 -0.6749 -5.0123 -1.8479
19271TIP3    H279229   4.046   2.341  16.814 -1.3664  0.6635 -0.1857
19272TIP3   OH279230   0.291   2.087   0.368  0.0867 -0.1472 -0.1870
19272TIP3    H179231   0.323   2.011   0.415  0.8441  0.2828 -0.0027
19272TIP3    H279232   0.195   2.080   0.373  0.1558  0.2458  1.9830
19273TIP3   OH279233   0.713   2.357  10.866 -0.2736 -0.4211  0.0405
19273TIP3    H179234   0.647   2.385  10.929 -0.9673 -1.6952 -0.1146
19273TIP3    H279235   0.794   2.397  10.898 -0.9762  0.5852  0.6126
19274TIP3   OH279236   3.270   5.899  16.578 -0.2807 -0.0294 -0.3989
19274TIP3    H179237   3.304   5.953  16.649  0.2598 -0.0362 -0.6526
19274TIP3    H279238   3.346   5.850  16.546 -0.2785  0.8487 -1.7623
19275TIP3   OH279239   4.822   5.671  15.853 -0.2849  0.7453 -0.0075
19275TIP3    H179240   4.783   5.612  15.788 -1.5684  2.1198 -0.5134
19275TIP3    H279241   4.915   5.646  15.855 -0.5814 -0.5115 -1.0462
19276TIP3   OH279242   1.875   3.887   4.199 -0.7817 -0.0462 -0.4856
19276TIP3    H179243   1.792   3.889   4.246 -0.3479  0.0903  0.2919
19276TIP3    H279244   1.881   3.973   4.158 -1.4420 -0.3815 -1.2884
19277TIP3   OH279245   3.203   2.578  10.855 -0.1694  0.5598  0.1379
19277TIP3    H179246   3.262   2.605  10.926 -1.1163  1.8184  0.4633
19277TIP3    H279247   3.147   2.654  10.841 -1.0005 -0.2430 -0.9192
19278TIP3   OH279248   5.145   2.500  15.746 -0.3244 -0.2772  0.0842
19278TIP3    H179249   5.055   2.477  15.723 -0.2758 -0.5612  0.1735
19278TIP3    H279250   5.199   2.439  15.696 -0.1480  0.5700 -0.7621
19279TIP3   OH279251   4.611   6.126  15.891 -0.5216 -0.1518 -0.5465
19279TIP3    H179252   4.571   6.124  15.804  0.1123  1.7275 -0.9040
19279TIP3    H279253   4.650   6.039  15.902  1.2771  0.2872 -3.0581
19280TIP3   OH279254   4.375   0.948  13.235  0.0781  0.1233 -0.2280
19280TIP3    H179255   4.380   0.916  13.325  2.4303  1.3567  0.1269
19280TIP3    H279256   4.388   1.042  13.242 -3.1191  0.7500 -1.5917
19281TIP3   OH279257   4.331   6.189   3.395  0.4316 -0.1377 -0.5142
19281TIP3    H179258   4.426   6.197   3.402  0.3263  0.3186  0.4545
19281TIP3    H279259   4.315   6.095   3.400  0.7116 -0.1173  1.1026
19282TIP3   OH279260   1.429   4.834   3.685 -0.4703  0.2296 -0.0260
19282TIP3    H179261   1.409   4.918   3.642  0.6709  1.3499  1.5674
19282TIP3    H279262   1.353   4.818   3.741 -0.2472  0.7333  0.4320
19283TIP3   OH279263   2.526   1.895   5.663 -0.4269  0.3263  0.3039
19283TIP3    H179264   2.449   1.927   5.708 -1.7589 -0.8890 -1.0535
19283TIP3    H279265   2.525   1.939   5.578  0.2313  0.1052  0.1738
19284TIP3   OH279266   2.388   5.453   2.000  0.1743  0.2737 -0.2690
19284TIP3    H179267   2.471   5.405   1.997 -0.3673 -0.7301  0.4893
19284TIP3    H279268   2.321   5.386   1.984 -0.5527  0.9010  0.1252
19285TIP3   OH279269   2.497   6.312  14.975 -0.6380 -0.0077  0.1196
19285TIP3    H179270   2.490   6.282  14.884 -0.4740 -2.2049  0.7894
19285TIP3    H279271   2.406   6.314  15.006 -0.6907  0.6975 -0.0877
19286TIP3   OH279272   3.380   0.576  12.010 -0.2951 -0.0729 -0.2426
19286TIP3    H179273   3.325   0.499  12.024 -2.2131  1.2290 -0.3764
19286TIP3    H279274   3.353   0.637  12.080  2.1569 -0.0180  0.7155
19287TIP3   OH279275   2.165   6.475  12.743 -0.4669  0.1626 -0.5123
19287TIP3    H179276   2.072   6.451  12.734 -0.5392 -0.1986  1.0924
19287TIP3    H279277   2.212   6.395  12.720 -0.5548  0.2681 -1.0695
19288TIP3   OH279278   0.144   1.372  14.990 -0.2079 -0.0414 -0.3538
19288TIP3    H179279   0.220   1.367  14.931 -0.3032 -0.0978 -0.4702
19288TIP3    H279280   0.152   1.457  15.032 -0.0459 -0.0710 -0.3232
19289TIP3   OH279281   3.201   5.018  16.466 -0.3673 -0.3233  0.3482
19289TIP3    H179282   3.153   4.973  16.396 -1.1194  0.4062  0.3855
19289TIP3    H279283   3.170   4.977  16.547 -0.0878 -0.6234  0.3040
19290TIP3   OH279284   2.424   6.292   4.993 -0.2721 -0.1336  0.0442
19290TIP3    H179285   2.335   6.260   5.006 -0.1290  0.0677  1.6830
19290TIP3    H279286   2.469   6.220   4.948 -0.9485 -0.7072  0.2828
19291TIP3   OH279287   2.989   0.169   4.691 -0.6526 -0.3228 -0.0024
19291TIP3    H179288   3.014   0.107   4.623  0.2216  0.9895 -0.9174
19291TIP3    H279289   2.897   0.189   4.672 -0.7076 -0.7331 -0.1716
19292TIP3   OH279290   0.441   6.223   4.651 -0.2757  0.3266  0.6104
19292TIP3    H179291   0.520   6.275   4.635 -0.4587  0.3973 -0.0759
19292TIP3    H279292   0.441   6.208   4.746 -0.3244  1.7421  0.8492
19293TIP3   OH279293   3.946   2.036  11.929  0.1008  0.2584  0.5415
19293TIP3    H179294   3.881   2.060  11.995 -0.6484 -1.4593  0.4434
19293TIP3    H279295   4.024   2.013  11.980  0.0788  0.5873  0.7298
19294TIP3   OH279296   2.470   2.756  14.919 -0.2731  0.1873 -0.1644
19294TIP3    H179297   2.565   2.756  14.929 -0.2333 -0.0791 -0.5445
19294TIP3    H279298   2.442   2.841  14.953  0.0362 -0.0055  0.5877
19295TIP3   OH279299   4.214   3.144  14.155 -0.5080 -0.2561  0.0960
19295TIP3    H179300   4.291   3.145  14.212 -1.0040 -0.0132  0.7670
19295TIP3    H279301   4.139   3.150  14.215 -1.1561 -2.9316 -0.3611
19296TIP3   OH279302   5.605   4.679   3.983 -0.3289  0.1195 -0.2962
19296TIP3    H179303   5.521   4.646   3.950 -0.6550  1.4292 -0.8098
19296TIP3    H279304   5.671   4.631   3.933 -0.8073  1.3487 -2.1724
19297TIP3   OH279305   4.377   4.569   0.321 -0.5184 -0.3926 -0.3172
19297TIP3    H179306   4.338   4.656   0.315 -2.2502 -1.1395 -0.1628
19297TIP3    H279307   4.355   4.539   0.409 -0.8201 -1.4047 -0.7359
19298TIP3   OH279308   0.152   0.796   0.103 -0.4180  0.2297 -0.1038
19298TIP3    H179309   0.248   0.803   0.101 -0.4652  0.5238 -1.4697
19298TIP3    H279310   0.134   0.749   0.185  0.8192  1.3655  0.8666
19299TIP3   OH279311   3.347   1.441  13.509  0.3585  0.1599  0.3453
19299TIP3    H179312   3.430   1.393  13.510 -0.2369 -0.8803  0.4006
19299TIP3    H279313   3.297   1.404  13.582 -1.3871 -1.4501 -1.6213
19300TIP3   OH279314   3.548   0.522  16.203  0.6432 -0.1784 -0.8593
19300TIP3    H179315   3.602   0.459  16.252 -0.2162  0.4953  1.0226
19300TIP3    H279316   3.601   0.602  16.203 -1.3646  1.3300  3.4018
19301TIP3   OH279317   1.665   4.054  16.421  0.3404  0.9151 -0.4622
19301TIP3    H179318   1.715   4.020  16.495 -0.7105  0.5531  0.0904
19301TIP3    H279319   1.704   4.139  16.403  1.2398  0.5757 -0.1203
19302TIP3   OH279320   3.671   0.272  12.421 -0.7823 -0.0327 -0.2138
19302TIP3    H179321   3.620   0.192  12.409  1.1196 -1.4810  1.0826
19302TIP3    H279322   3.759   0.249  12.393  0.1526  1.0948  1.6894
19303TIP3   OH279323   1.236   5.081   1.316  0.7026  0.1749 -0.1121
19303TIP3    H179324   1.153   5.034   1.325  1.0075 -0.8626 -2.3924
19303TIP3    H279325   1.211   5.168   1.285  0.3291  0.7116  1.6044
19304TIP3   OH279326   3.976   5.678  12.853  0.4583 -0.1007 -0.1198
19304TIP3    H179327   3.981   5.772  12.874 -1.7438  0.0461 -0.1387
19304TIP3    H279328   4.049   5.663  12.794 -0.1070  1.9688 -1.4175
19305TIP3   OH279329   1.356   6.187   5.842  0.2441 -0.3420 -0.0178
19305TIP3    H179330   1.404   6.106   5.857  0.3017 -0.2745  0.1664
19305TIP3    H279331   1.266   6.167   5.866 -0.1762 -0.9777 -2.0140
19306TIP3   OH279332   2.541   6.507   5.152 -0.3628  0.9347  0.1118
19306TIP3    H179333   2.596   6.484   5.227  0.7932  1.4708 -0.5567
19306TIP3    H279334   2.514   6.423   5.114 -0.5645  0.6697  0.8410
19307TIP3   OH279335   5.660   2.272   2.441 -0.0019 -0.0427  0.0433
19307TIP3    H179336   5.682   2.211   2.511  1.7744  0.9483  0.3848
19307TIP3    H279337   5.692   2.230   2.361 -0.2216 -0.2781  0.0808
19308TIP3   OH279338   1.976   5.548   3.437  0.2643  0.4884  0.8231
19308TIP3    H179339   2.003   5.488   3.367  0.3344 -0.2192  1.4540
19308TIP3    H279340   1.955   5.629   3.391 -1.0380 -0.3853 -0.2017
19309TIP3   OH279341   1.079   1.997  12.496  0.3216  0.5944  0.2302
19309TIP3    H179342   1.105   2.089  12.500  0.7457  0.4509  0.7702
19309TIP3    H279343   1.120   1.957  12.573  0.4090 -0.1132 -0.1856
19310TIP3   OH279344   1.853   3.941  15.604  0.9019 -0.1934 -0.2759
19310TIP3    H179345   1.934   3.910  15.645  0.2199  0.0789  1.2890
19310TIP3    H279346   1.830   3.871  15.542  1.8632 -0.6587 -0.1298
19311TIP3   OH279347   6.084   5.411  14.894  0.0874 -0.5145 -0.2347
19311TIP3    H179348   6.041   5.472  14.954  0.5737  0.6358 -1.0471
19311TIP3    H279349   6.017   5.346  14.873 -1.1363  1.0047 -1.1426
19312TIP3   OH279350   5.931   5.754   1.311  0.3294 -0.3775 -0.2073
19312TIP3    H179351   5.906   5.799   1.391 -0.3907 -2.8162  0.9806
19312TIP3    H279352   6.023   5.778   1.298 -0.3757  2.4555 -0.3763
19313TIP3   OH279353   6.058   5.775  16.236 -0.1553  0.0302 -0.5760
19313TIP3    H179354   6.129   5.834  16.211 -0.6048  0.5927 -0.5317
19313TIP3    H279355   6.049   5.716  16.161  2.1125 -1.7500  0.4746
19314TIP3   OH279356   5.878   6.375  11.005 -0.1745 -0.5582 -0.2487
19314TIP3    H179357   5.891   6.345  10.915  1.2392  1.0024 -0.6105
19314TIP3    H279358   5.784   6.376  11.017 -0.4345  0.2533 -2.1183
19315TIP3   OH279359   1.704   0.728  12.170  0.3383 -0.5484  1.1358
19315TIP3    H179360   1.772   0.782  12.129 -0.6848 -1.3104 -1.6666
19315TIP3    H279361   1.625   0.781  12.162  0.0615 -0.8428  1.9146
19316TIP3   OH279362   5.378   0.862   3.999  0.3119 -0.0178  0.4756
19316TIP3    H179363   5.328   0.824   3.927 -0.4599 -0.4694  1.2336
19316TIP3    H279364   5.448   0.798   4.015 -0.5656 -0.8025  1.2801
19317TIP3   OH279365   4.607   3.450   5.641  0.2502  0.0609 -0.0846
19317TIP3    H179366   4.601   3.489   5.554 -2.0163 -1.4151 -0.6218
19317TIP3    H279367   4.519   3.417   5.659  0.7654  0.0550  2.6358
19318TIP3   OH279368   1.941   2.768  15.983 -0.3738 -0.4167  0.2918
19318TIP3    H179369   1.896   2.837  16.032 -0.1855 -0.8979  1.1674
19318TIP3    H279370   2.024   2.809  15.955  1.1904 -1.1978  3.5393
19319TIP3   OH279371   5.474   5.305  13.653  0.7559  0.7997  0.4528
19319TIP3    H179372   5.505   5.337  13.568 -0.1387  2.7261  0.8223
19319TIP3    H279373   5.546   5.323  13.713 -0.2869  3.5853  0.9490
19320TIP3   OH279374   4.448   4.246  15.609 -0.1190  0.3537 -0.3166
19320TIP3    H179375   4.462   4.326  15.559 -3.2825  0.5232 -1.0218
19320TIP3    H279376   4.439   4.178  15.544 -2.3736  0.2611  0.0669
19321TIP3   OH279377   2.414   4.758   3.628  0.1528  0.4798  0.0969
19321TIP3    H179378   2.482   4.698   3.657 -0.1841 -0.0614 -0.2166
19321TIP3    H279379   2.456   4.844   3.626  0.8384  0.1418 -0.1425
19322TIP3   OH279380   0.102   4.926  14.246  0.2935 -0.6502 -0.1714
19322TIP3    H179381   0.016   4.954  14.278  0.0789 -0.9984 -0.4427
19322TIP3    H279382   0.105   4.832  14.265 -0.6914 -1.3079 -3.0520
19323TIP3   OH279383   1.497   2.356  11.826  0.4029  0.2978  0.2660
19323TIP3    H179384   1.452   2.440  11.837  0.9074  0.6520 -0.2787
19323TIP3    H279385   1.563   2.374  11.758 -0.7523 -1.0345 -1.2403
19324TIP3   OH279386   4.793   5.076  17.170 -0.1035  0.3861  0.2329
19324TIP3    H179387   4.879   5.106  17.143 -0.5858  2.2284  0.6742
19324TIP3    H279388   4.784   5.104  17.261 -0.3826 -1.5651  0.8344
19325TIP3   OH279389   0.412   0.748  16.044 -0.0394  0.0596 -0.2354
19325TIP3    H179390   0.442   0.766  15.955 -0.1970  0.5512 -0.1928
19325TIP3    H279391   0.336   0.691  16.033  0.7449 -0.9794 -0.3534
19326TIP3   OH279392   6.237   5.651   4.611  0.1379 -0.3236  0.4111
19326TIP3    H179393   6.167   5.688   4.665 -0.9871  0.9148 -1.8063
19326TIP3    H279394   6.301   5.722   4.603  0.7871 -0.8454  0.9587
19327TIP3   OH279395   3.568   0.075   4.782  0.0065 -0.0390 -0.1425
19327TIP3    H179396   3.493   0.127   4.753  0.1010 -0.5540 -1.3095
19327TIP3    H279397   3.597   0.027   4.704  0.8635 -0.6921  0.5605
19328TIP3   OH279398   2.786   0.962  16.581 -0.5512  0.0989  0.1943
19328TIP3    H179399   2.752   0.879  16.548  0.2890 -0.0765 -0.2578
19328TIP3    H279400   2.867   0.937  16.627  0.3616  0.7929 -0.9914
19329TIP3   OH279401   5.182   5.832  14.644 -0.3889 -0.7068 -0.2842
19329TIP3    H179402   5.219   5.853  14.730 -0.8296 -0.3391 -0.1846
19329TIP3    H279403   5.258   5.827  14.586 -0.1970  0.2952 -0.1328
19330TIP3   OH279404   2.909   4.695   0.371 -0.2916  0.6237 -0.2765
19330TIP3    H179405   2.905   4.761   0.302  0.4698  0.8815 -0.0795
19330TIP3    H279406   2.973   4.730   0.434  1.2542 -1.0085 -0.9091
19331TIP3   OH279407   1.762   0.673   5.861 -0.4040  0.3442 -0.7320
19331TIP3    H179408   1.847   0.716   5.864 -0.9744  1.4097  2.4097
19331TIP3    H279409   1.706   0.734   5.813 -0.2200  1.2837  0.2246
19332TIP3   OH279410   3.119   5.736   2.420  0.0310 -0.1058 -0.3183
19332TIP3    H179411   3.161   5.655   2.448 -0.1371 -0.1179 -0.0980
19332TIP3    H279412   3.169   5.764   2.343 -0.3760 -0.8161 -0.8504
19333TIP3   OH279413   4.724   0.129   5.209 -0.0221  0.3398 -0.1548
19333TIP3    H179414   4.672   0.052   5.231 -1.0984  0.9501 -0.4888
19333TIP3    H279415   4.713   0.188   5.284  0.6482  0.2439  0.0210
19334TIP3   OH279416   1.528   1.153   2.643  0.0356  0.7010 -0.1148
19334TIP3    H179417   1.514   1.200   2.560 -1.6515 -0.1224 -0.3235
19334TIP3    H279418   1.462   1.189   2.702  2.2999  2.4729  1.4372
19335TIP3   OH279419   5.408   3.210   1.504  0.2717 -0.3871 -0.5154
19335TIP3    H179420   5.350   3.269   1.456 -1.5843 -2.0859 -0.4461
19335TIP3    H279421   5.496   3.232   1.473 -0.6597  0.2937 -2.7981
19336TIP3   OH279422   0.806   1.927  15.567 -0.2039 -0.1190 -0.0280
19336TIP3    H179423   0.825   1.869  15.641 -3.7449 -0.9368  0.3362
19336TIP3    H279424   0.786   1.868  15.495 -0.0590  0.6841 -0.7295
19337TIP3   OH279425   2.415   5.670  13.519  0.3563 -0.2398 -0.3866
19337TIP3    H179426   2.342   5.609  13.510 -1.7315  1.4633  3.8535
19337TIP3    H279427   2.468   5.635  13.590  0.8011  1.2278  0.0323
19338TIP3   OH279428   3.656   0.425   2.212 -0.3262  0.0410 -0.3196
19338TIP3    H179429   3.675   0.374   2.133 -2.5625 -1.7384  0.2169
19338TIP3    H279430   3.568   0.397   2.237 -0.4989  2.1708  1.6039
19339TIP3   OH279431   5.139   2.753  12.018 -0.2656 -0.3211  0.0538
19339TIP3    H179432   5.146   2.834  11.967  0.2558 -1.3894 -1.6389
19339TIP3    H279433   5.200   2.693  11.975  0.3620 -1.2013  2.1109
19340TIP3   OH279434   1.138   5.672  11.920  0.4385  0.0813 -0.2060
19340TIP3    H179435   1.094   5.607  11.866 -1.7642  2.5466 -1.4781
19340TIP3    H279436   1.206   5.708  11.863  0.0236  0.6290 -0.3610
19341TIP3   OH279437   1.394   5.161  15.642 -0.1801 -0.4007  0.2970
19341TIP3    H179438   1.374   5.158  15.548  0.0858  0.5176  0.2028
19341TIP3    H279439   1.324   5.214  15.679 -1.5216 -2.5969  0.9679
19342TIP3   OH279440   2.435   5.469   5.441 -0.2496 -0.3833 -0.1613
19342TIP3    H179441   2.411   5.384   5.404 -0.9449  0.2463 -1.1394
19342TIP3    H279442   2.442   5.528   5.366 -1.0704  0.7508  0.6410
19343TIP3   OH279443   5.314   1.123  12.810  0.5966 -0.0336 -0.2557
19343TIP3    H179444   5.379   1.191  12.829 -1.0779  1.3708  0.6117
19343TIP3    H279445   5.235   1.172  12.787 -0.4165 -1.7097 -0.3927
19344TIP3   OH279446   3.838   4.076  13.761  0.1196 -0.1462  0.4254
19344TIP3    H179447   3.779   4.064  13.686 -0.7195  0.6188  0.9456
19344TIP3    H279448   3.841   3.991  13.804  0.6564 -0.6098 -0.5095
19345TIP3   OH279449   0.523   2.496  13.010  0.0520  0.5493 -0.2020
19345TIP3    H179450   0.580   2.513  13.085 -0.1513 -0.0214  0.0827
19345TIP3    H279451   0.525   2.578  12.960 -0.9940  1.4458  1.2023
19346TIP3   OH279452   4.791   2.990   6.265  0.2713  0.1802 -0.7646
19346TIP3    H179453   4.790   2.940   6.347 -1.8921  0.1735 -0.7690
19346TIP3    H279454   4.709   2.966   6.222  0.4974  1.6645 -2.0411
19347TIP3   OH279455   0.237   3.177   0.016 -0.1244 -0.9869 -0.0703
19347TIP3    H179456   0.265   3.268   0.023 -1.0974 -0.8458  2.7055
19347TIP3    H279457   0.198   3.169  -0.071  1.2240  0.8597 -0.8624
19348TIP3   OH279458   5.465   0.707   0.405 -0.2876  0.3618  0.2822
19348TIP3    H179459   5.497   0.661   0.483  1.9547  2.1971  0.5098
19348TIP3    H279460   5.531   0.689   0.338 -0.3557  1.6846 -0.1591
19349TIP3   OH279461   1.891   3.686   6.161 -0.3056 -0.3228  0.1992
19349TIP3    H179462   1.870   3.670   6.253 -0.2978 -0.7481  0.1294
19349TIP3    H279463   1.965   3.747   6.164 -0.6329  0.0620  0.4663
19350TIP3   OH279464   0.881   4.815  16.801  0.0507  0.1569  0.9546
19350TIP3    H179465   0.923   4.788  16.719  2.5366 -0.0920  2.2754
19350TIP3    H279466   0.876   4.910  16.796  1.6677  0.2542  1.2115
19351TIP3   OH279467   0.928   0.074   3.378  0.3354 -0.4355  0.0787
19351TIP3    H179468   0.847   0.034   3.408 -0.1953  0.3778 -0.2349
19351TIP3    H279469   0.902   0.161   3.348  1.3833 -0.0290  0.3096
19352TIP3   OH279470   1.825   3.129  13.873 -0.3867  0.4509 -0.2372
19352TIP3    H179471   1.771   3.083  13.938 -1.5011  2.0194 -0.0333
19352TIP3    H279472   1.796   3.093  13.789 -0.0750 -0.4110  0.0112
19353TIP3   OH279473   1.994   5.227   4.985  0.1519 -0.0281  0.7535
19353TIP3    H179474   2.033   5.241   5.072  0.1971  1.0359  0.5655
19353TIP3    H279475   2.052   5.274   4.925  1.9970 -3.4575 -0.2760
19354TIP3   OH279476   1.471   3.664   2.768 -0.2324 -0.0353  0.0634
19354TIP3    H179477   1.397   3.704   2.813 -1.0163 -0.4482 -0.8287
19354TIP3    H279478   1.534   3.736   2.756 -1.0972  0.6501 -0.4365
19355TIP3   OH279479   6.377   1.945  14.545 -0.1531  0.1177  0.0574
19355TIP3    H179480   6.377   1.901  14.460  1.4024  1.0599 -0.4511
19355TIP3    H279481   6.405   1.877  14.607  1.4951  0.1602 -0.6139
19356TIP3   OH279482   4.999   5.350  16.550 -0.1894 -0.4468 -0.1185
19356TIP3    H179483   5.019   5.386  16.636  0.1393  1.1880 -0.8602
19356TIP3    H279484   4.982   5.257  16.566 -1.0210  0.0172  1.8300
19357TIP3   OH279485   5.916   5.644   0.892  0.2199  0.1888 -0.3679
19357TIP3    H179486   5.838   5.644   0.836  0.1930 -1.5964 -0.3520
19357TIP3    H279487   5.900   5.714   0.956 -0.3005  1.4248 -1.8140
19358TIP3   OH279488   6.437   1.586  13.299 -0.3124  0.0836 -0.1842
19358TIP3    H179489   6.397   1.520  13.243 -1.0915  0.1568  0.2746
19358TIP3    H279490   6.510   1.621  13.247  0.4730 -1.5397 -0.1983
19359TIP3   OH279491   5.291   4.722   1.310  0.7089  0.6934  0.2496
19359TIP3    H179492   5.248   4.762   1.235  0.4212 -1.0088 -0.5057
19359TIP3    H279493   5.336   4.795   1.353 -1.9079  2.2944  0.3843
19360TIP3   OH279494   1.966   1.877   2.031  0.0715  0.1752 -0.6517
19360TIP3    H179495   1.877   1.899   2.004  0.1937  0.4037 -0.8717
19360TIP3    H279496   1.970   1.904   2.123 -0.0461  0.2795 -0.6774
19361TIP3   OH279497   2.657   0.753  11.970  0.3030  0.2409 -0.0036
19361TIP3    H179498   2.660   0.658  11.973  2.0393  0.2864  0.1471
19361TIP3    H279499   2.580   0.777  12.022  0.4923 -1.0342  0.8790
19362TIP3   OH279500   2.846   5.753  15.784 -0.7257 -0.3096 -0.5770
19362TIP3    H179501   2.897   5.801  15.850 -1.0063 -2.1697  1.0154
19362TIP3    H279502   2.827   5.819  15.717  1.5110  1.0628  0.0792
19363TIP3   OH279503   0.476   1.101  15.636  0.5427 -0.1010 -0.4080
19363TIP3    H179504   0.392   1.146  15.645  0.4479 -0.3147 -0.2349
19363TIP3    H279505   0.516   1.108  15.723  0.3244 -0.7689 -0.2579
19364TIP3   OH279506   5.025   5.007   1.101 -0.2200  0.2171 -0.5387
19364TIP3    H179507   5.098   5.069   1.105  0.4541 -0.6381  1.0337
19364TIP3    H279508   4.984   5.013   1.188  0.4157 -2.1629 -0.0463
19365TIP3   OH279509   1.504   3.643  10.891  0.4085  0.3045  0.4155
19365TIP3    H179510   1.517   3.673  10.801  1.9984  1.4035  0.9966
19365TIP3    H279511   1.518   3.720  10.945  0.6493 -0.6051  1.6858
19366TIP3   OH279512   3.607   6.559   0.194  0.0479  0.3496 -0.0724
19366TIP3    H179513   3.616   6.654   0.203  0.7376  0.1876  0.9158
19366TIP3    H279514   3.642   6.523   0.275 -0.9754 -0.7185 -0.0821
19367TIP3   OH279515   3.631   5.974  15.978 -0.1783 -0.1987  0.8770
19367TIP3    H179516   3.695   5.948  15.912  1.3731 -1.2541  2.7747
19367TIP3    H279517   3.677   5.967  16.061 -2.5380 -0.2902  2.2212
19368TIP3   OH279518   5.359   5.628   5.166  0.2244  0.2591 -0.2731
19368TIP3    H179519   5.369   5.714   5.205  2.1148 -0.4723  0.9566
19368TIP3    H279520   5.419   5.572   5.215 -1.6709 -1.9844 -0.3993
19369TIP3   OH279521   5.714   6.160  15.689 -0.3812  0.0091  0.0386
19369TIP3    H179522   5.776   6.088  15.695 -1.3492 -0.9010 -0.5724
19369TIP3    H279523   5.693   6.166  15.596  0.6087  1.8831 -0.0812
19370TIP3   OH279524   3.517   3.839   1.526  0.5908 -0.0691 -0.4508
19370TIP3    H179525   3.609   3.841   1.500  0.6567 -1.0937 -0.3108
19370TIP3    H279526   3.511   3.766   1.589 -0.3678 -0.1897 -0.6717
19371TIP3   OH279527   3.829   2.912  13.673  0.5479 -0.0824  0.2035
19371TIP3    H179528   3.804   2.897  13.581  1.3764  0.9017 -0.1881
19371TIP3    H279529   3.747   2.902  13.721  0.0964 -0.6000 -0.6439
19372TIP3   OH279530   4.644   0.441  16.067  0.2673  0.4096 -0.3509
19372TIP3    H179531   4.619   0.509  16.130  0.5580  1.7140 -1.6492
19372TIP3    H279532   4.561   0.413  16.029  0.1818  0.2829 -0.0746
19373TIP3   OH279533   0.333   4.459   5.075 -0.0695 -0.0420 -0.3717
19373TIP3    H179534   0.276   4.448   5.151 -1.0467 -0.5360 -1.1439
19373TIP3    H279535   0.389   4.533   5.096 -0.7054  0.1690  0.5982
19374TIP3   OH279536   5.514   1.227   0.839  0.2238 -0.0119  0.4404
19374TIP3    H179537   5.453   1.253   0.770 -0.4180 -0.1006  0.9711
19374TIP3    H279538   5.471   1.253   0.921  1.5446  1.2566  0.7567
19375TIP3   OH279539   2.647   3.060  12.282  0.2830 -0.3055 -0.2119
19375TIP3    H179540   2.665   3.124  12.213  0.2583  0.2740  0.3157
19375TIP3    H279541   2.560   3.025  12.259 -1.1411  2.1839  1.2442
19376TIP3   OH279542   6.335   2.444   2.963 -0.4726 -0.2555 -0.9871
19376TIP3    H179543   6.257   2.392   2.984  0.7372 -1.8284 -0.2501
19376TIP3    H279544   6.378   2.457   3.048 -0.6524  1.7938 -1.1964
19377TIP3   OH279545   0.936   3.016  16.392 -0.6142 -0.0742  0.2073
19377TIP3    H179546   1.025   3.041  16.366 -0.6334  1.7017  1.8110
19377TIP3    H279547   0.886   3.021  16.310  0.1422  1.7006 -0.1698
19378TIP3   OH279548   1.516   4.118   5.387 -0.2785  0.0070  0.0216
19378TIP3    H179549   1.577   4.051   5.416 -1.6879 -2.2796 -2.1808
19378TIP3    H279550   1.430   4.078   5.397 -1.1095  1.2764 -1.8242
19379TIP3   OH279551   0.461   0.064   3.375  0.9291 -0.3440  0.0356
19379TIP3    H179552   0.422   0.038   3.459 -1.3429  0.3891 -0.7613
19379TIP3    H279553   0.439   0.156   3.366  2.0595 -0.1532 -0.8954
19380TIP3   OH279554   1.850   6.147   2.252 -0.3108 -0.3149 -0.5583
19380TIP3    H179555   1.871   6.210   2.320  0.2493 -0.7106 -0.3588
19380TIP3    H279556   1.930   6.095   2.241 -0.5294 -0.5270 -1.2192
19381TIP3   OH279557   1.922   0.407  15.490  0.2990 -0.3984  0.3535
19381TIP3    H179558   1.836   0.420  15.450  0.3130  0.2188  0.5236
19381TIP3    H279559   1.982   0.399  15.416  0.0383 -1.2848  0.2234
19382TIP3   OH279560   2.194   0.641  11.457  0.2431  0.5309  0.8636
19382TIP3    H179561   2.144   0.722  11.443 -0.7175 -0.2672 -0.4018
19382TIP3    H279562   2.286   0.669  11.453 -0.0567  1.3719 -0.8541
19383TIP3   OH279563   3.452   2.459   6.149  0.5215  0.5892 -0.1614
19383TIP3    H179564   3.435   2.448   6.055 -0.7018 -0.5216  0.1861
19383TIP3    H279565   3.471   2.371   6.181  0.9380  0.9674  0.6548
19384TIP3   OH279566   1.391   1.088  12.487 -0.0865  0.3079  0.2834
19384TIP3    H179567   1.355   1.016  12.539  1.3688 -0.4152  0.3256
19384TIP3    H279568   1.352   1.167  12.524 -3.0330 -0.5682 -0.8763
19385TIP3   OH279569   1.541   3.002  13.439 -0.3626  0.0451  0.0771
19385TIP3    H179570   1.512   3.038  13.522 -0.4945  0.7715 -0.2756
19385TIP3    H279571   1.465   2.955  13.405 -0.2499 -0.4072  0.4527
19386TIP3   OH279572   3.502   0.462  13.208  0.5821 -0.3743 -0.0181
19386TIP3    H179573   3.579   0.516  13.193  0.4352  0.0257  0.6594
19386TIP3    H279574   3.535   0.372  13.204  1.1719 -0.1990  0.7253
19387TIP3   OH279575   6.565   2.242  15.061 -0.0274 -0.4067 -0.0178
19387TIP3    H179576   6.541   2.209  15.148  0.9054  1.8447  1.1409
19387TIP3    H279577   6.656   2.213  15.049 -0.0691 -0.4927 -0.1268
19388TIP3   OH279578   0.755   2.755   1.114 -0.3001  0.0929  0.8426
19388TIP3    H179579   0.704   2.756   1.195 -0.1576  0.9365  0.9321
19388TIP3    H279580   0.736   2.670   1.074 -1.4819  0.2467  1.0593
19389TIP3   OH279581   2.947   5.123  15.214 -0.4003 -0.0174  0.0880
19389TIP3    H179582   3.008   5.104  15.142 -1.6236 -1.1968 -0.6581
19389TIP3    H279583   2.977   5.208  15.249  0.2370  0.5533 -1.7820
19390TIP3   OH279584   5.843   6.659  11.590  0.4949 -0.0948 -0.4061
19390TIP3    H179585   5.875   6.583  11.542  0.5203 -1.5195  1.8099
19390TIP3    H279586   5.922   6.696  11.631  0.5875  1.5300 -1.9604
19391TIP3   OH279587   6.209   5.087   4.900  0.7917 -0.3735 -0.1082
19391TIP3    H179588   6.234   4.997   4.919  0.7282 -0.6043 -1.0864
19391TIP3    H279589   6.129   5.079   4.848  0.6137  0.2592  0.0656
19392TIP3   OH279590   6.630   5.404  15.815  0.4418 -0.2159 -0.0463
19392TIP3    H179591   6.572   5.364  15.880 -0.2936  0.5502 -0.2139
19392TIP3    H279592   6.571   5.451  15.756  1.3081  1.5103  0.4248
19393TIP3   OH279593   4.240   0.891   4.197  0.1497 -0.2657  0.5049
19393TIP3    H179594   4.271   0.935   4.118  0.1837  1.7229  1.5973
19393TIP3    H279595   4.318   0.877   4.250 -0.0335 -0.4698  0.7261
19394TIP3   OH279596   1.904   5.410  15.390 -0.0986 -0.4080 -0.0728
19394TIP3    H179597   1.981   5.394  15.335 -0.4622  1.7537 -1.2593
19394TIP3    H279598   1.930   5.481  15.448 -0.8138 -0.4749  0.3416
19395TIP3   OH279599   3.183   5.879   6.476 -0.1433  0.3349 -0.5017
19395TIP3    H179600   3.259   5.884   6.534 -1.0327 -0.1963  0.7172
19395TIP3    H279601   3.216   5.835   6.397  0.4255 -1.4026  0.6785
19396TIP3   OH279602   4.746   3.681  16.399 -0.2887  0.0712  0.6112
19396TIP3    H179603   4.823   3.721  16.358  0.4999 -0.7190  1.2895
19396TIP3    H279604   4.704   3.753  16.446  0.6408  0.2951  1.1141
19397TIP3   OH279605   2.653   1.596  12.564  0.5461 -0.2670 -0.2950
19397TIP3    H179606   2.589   1.525  12.566  1.6775 -1.3014  0.3018
19397TIP3    H279607   2.728   1.558  12.517  1.9117 -0.1234  1.7111
19398TIP3   OH279608   0.066   4.289   6.011 -0.0805  0.3500 -0.2820
19398TIP3    H179609   0.129   4.361   6.006  0.8839 -0.4274  0.6074
19398TIP3    H279610   0.073   4.246   5.925 -0.9574  1.5463 -0.9689
19399TIP3   OH279611   5.155   3.428   4.093  0.0789  0.2397  0.4394
19399TIP3    H179612   5.163   3.354   4.153 -0.2165 -1.3367 -1.4508
19399TIP3    H279613   5.241   3.437   4.053 -0.5171 -0.5933 -1.0698
19400TIP3   OH279614   1.940   1.179   4.814  0.0597 -0.0785  0.1443
19400TIP3    H179615   2.013   1.230   4.781 -0.6123  0.9673  0.2254
19400TIP3    H279616   1.862   1.222   4.777 -0.4091 -2.9094 -2.3140
19401TIP3   OH279617   0.537   1.047   5.909  0.2326 -0.3069  0.3856
19401TIP3    H179618   0.571   0.960   5.925  1.0038  0.3048  2.1771
19401TIP3    H279619   0.519   1.082   5.996 -1.6476  0.7012 -0.3806
19402TIP3   OH279620   2.965   4.810  12.809 -0.5238 -0.0378 -0.2690
19402TIP3    H179621   3.049   4.766  12.822  0.0412  1.2663  0.6095
19402TIP3    H279622   2.914   4.788  12.887 -0.8764 -0.5544 -0.6448
19403TIP3   OH279623   3.266   1.585   4.716 -0.3927  0.8564 -0.6277
19403TIP3    H179624   3.352   1.581   4.675 -0.4884 -0.5626 -0.7113
19403TIP3    H279625   3.280   1.634   4.797  0.5077  0.5544 -0.5978
19404TIP3   OH279626   5.089   0.386  12.059 -0.0112 -0.2562 -0.6237
19404TIP3    H179627   5.124   0.336  12.133 -2.2060 -0.9812 -0.0410
19404TIP3    H279628   5.069   0.472  12.096 -0.7705 -0.5035 -0.4535
19405TIP3   OH279629   6.426   4.996  16.329  0.2425 -0.4954  0.0220
19405TIP3    H179630   6.410   5.061  16.397  0.0778 -1.8973  1.3480
19405TIP3    H279631   6.372   5.024  16.255 -0.4607  0.4069  0.8744
19406TIP3   OH279632   4.039   6.633  13.864 -0.4190 -0.7164 -0.2180
19406TIP3    H179633   4.101   6.626  13.791 -0.3661  2.2613 -0.5459
19406TIP3    H279634   3.999   6.719  13.852 -2.0846 -1.1505  1.9883
19407TIP3   OH279635   2.751   0.371   5.215  0.0097 -0.1896 -0.0942
19407TIP3    H179636   2.732   0.464   5.200  2.0125  0.5216  1.4102
19407TIP3    H279637   2.666   0.329   5.219 -0.9029  1.4459 -1.6837
19408TIP3   OH279638   6.139   2.022  16.628 -0.6928  0.7245  0.1245
19408TIP3    H179639   6.047   2.002  16.643 -0.8718  0.1348 -1.6201
19408TIP3    H279640   6.167   2.068  16.707 -1.9893 -0.7189  1.4646
19409TIP3   OH279641   5.091   5.953   0.443 -0.3710  0.2479  0.0020
19409TIP3    H179642   5.161   5.992   0.496  0.9462 -0.7559 -0.9603
19409TIP3    H279643   5.134   5.881   0.397 -2.3882 -1.3636  0.5581
19410TIP3   OH279644   0.794   5.828  16.286  0.3157  0.5054 -0.7060
19410TIP3    H179645   0.855   5.877  16.231  1.2783 -0.5024 -0.5391
19410TIP3    H279646   0.794   5.875  16.369 -1.9076  2.6397 -1.8096
19411TIP3   OH279647   3.210   6.629  14.629  0.2599  0.0204  0.2933
19411TIP3    H179648   3.280   6.676  14.583  0.2079  0.1011  0.2962
19411TIP3    H279649   3.211   6.665  14.718 -0.0266  0.2813  0.1912
19412TIP3   OH279650   1.411   0.665  16.549  0.1153  0.2351 -0.2236
19412TIP3    H179651   1.317   0.681  16.560  0.4116  2.0767 -0.2995
19412TIP3    H279652   1.451   0.752  16.552  2.0003 -0.6645  1.4911
19413TIP3   OH279653   2.968   6.646  16.314 -0.1401 -0.6045  0.2589
19413TIP3    H179654   2.987   6.569  16.260 -0.8650  1.1482 -2.6087
19413TIP3    H279655   2.888   6.682  16.277  1.0758  2.4644  0.4650
19414TIP3   OH279656   3.840   3.800  14.926  0.1688 -0.1877 -0.2445
19414TIP3    H179657   3.805   3.713  14.948  1.6595 -0.4584  1.1867
19414TIP3    H279658   3.903   3.783  14.857  0.6403 -0.2816  0.2065
19415TIP3   OH279659   5.412   3.256  14.417  0.1753 -0.6596 -0.4464
19415TIP3    H179660   5.488   3.303  14.383  0.8883 -0.5731  1.2059
19415TIP3    H279661   5.449   3.189  14.475 -0.8866 -2.4518 -1.7622
19416TIP3   OH279662   5.771   0.193  15.594  0.0048 -0.6376 -0.2293
19416TIP3    H179663   5.747   0.266  15.652  0.1565 -0.3219 -0.5616
19416TIP3    H279664   5.824   0.135  15.648  1.5579  0.4952 -0.5279
19417TIP3   OH279665   0.546   0.436   4.810 -0.5328  0.0135 -0.4818
19417TIP3    H179666   0.612   0.501   4.785  0.2195 -0.7912 -0.6003
19417TIP3    H279667   0.562   0.421   4.903  0.7705 -1.6694 -0.9549
19418TIP3   OH279668   1.677   5.084  16.166  0.0541 -0.1979 -0.1352
19418TIP3    H179669   1.729   5.016  16.122 -0.6839 -0.8589  0.0077
19418TIP3    H279670   1.612   5.035  16.217  0.6573  0.5594  1.4055
19419TIP3   OH279671   2.253   6.097   5.345 -0.2770  0.0127 -0.5338
19419TIP3    H179672   2.252   6.072   5.253 -0.4625  1.7578 -1.0291
19419TIP3    H279673   2.271   6.191   5.344 -1.0993  0.2129  1.1800
19420TIP3   OH279674   6.436   1.306  16.043  0.2796  0.1560 -0.3143
19420TIP3    H179675   6.451   1.239  16.109  0.2863 -0.1925 -0.6704
19420TIP3    H279676   6.468   1.267  15.962  0.2237  0.5630 -0.5319
19421TIP3   OH279677   1.069   4.890  17.020  0.4536  0.3131 -0.3119
19421TIP3    H179678   1.107   4.849  16.942  0.5294 -0.8137  0.3107
19421TIP3    H279679   1.047   4.816  17.077 -0.9539  1.0592  0.1177
19422TIP3   OH279680   0.856   3.249  16.743  0.3573 -0.1019 -0.5379
19422TIP3    H179681   0.768   3.213  16.756  0.4483 -0.3606 -0.6406
19422TIP3    H279682   0.848   3.304  16.665  0.0772  0.5693 -0.0390
19423TIP3   OH279683   1.402   3.960   0.403 -0.8799 -0.0777  0.4057
19423TIP3    H179684   1.489   3.972   0.443 -1.1566 -0.6951  1.1977
19423TIP3    H279685   1.340   3.985   0.472 -1.3565 -1.1002  0.3525
19424TIP3   OH279686   1.006   1.657  12.951 -0.3164 -0.2656 -0.6055
19424TIP3    H179687   0.940   1.590  12.934 -0.4053  0.0126 -1.3572
19424TIP3    H279688   1.089   1.610  12.950 -0.4426 -0.4938 -0.3640
19425TIP3   OH279689   4.970   3.064   1.757 -0.4151 -0.0917 -0.0897
19425TIP3    H179690   4.908   3.038   1.690  0.6377 -1.9214 -0.3758
19425TIP3    H279691   4.956   3.159   1.767 -2.8981 -0.3939 -0.4631
19426TIP3   OH279692   2.170   5.323  11.383 -0.3368  0.5038 -0.1843
19426TIP3    H179693   2.147   5.411  11.351 -1.2555 -0.5260 -2.4615
19426TIP3    H279694   2.260   5.310  11.355 -0.4353  0.4426 -0.4735
19427TIP3   OH279695   0.135   5.082  11.194  0.5998 -0.6338  0.3816
19427TIP3    H179696   0.066   5.058  11.131 -0.1155 -0.7802  1.2233
19427TIP3    H279697   0.156   4.999  11.238  0.6933 -0.4103  0.7530
19428TIP3   OH279698   4.130   5.778  10.512 -0.2350  0.3645  0.0963
19428TIP3    H179699   4.215   5.737  10.491 -0.8969  0.1131 -2.3347
19428TIP3    H279700   4.132   5.791  10.606  2.4066  0.1030  0.1175
19429TIP3   OH279701   0.609   2.478   5.861 -0.6240 -0.1416 -0.4297
19429TIP3    H179702   0.524   2.481   5.902 -0.0100  0.6506  0.7946
19429TIP3    H279703   0.629   2.385   5.854 -1.2385 -0.3057  0.0026
19430TIP3   OH279704   3.386   5.990  10.835  0.3715  0.0607  0.1654
19430TIP3    H179705   3.312   6.046  10.810  0.8766  1.7161  2.2231
19430TIP3    H279706   3.463   6.035  10.801  0.6722 -0.1119  0.6100
19431TIP3   OH279707   2.599   5.972   3.390 -0.1688  0.2403 -0.4133
19431TIP3    H179708   2.517   5.967   3.341 -1.0501 -0.3659  1.1063
19431TIP3    H279709   2.661   5.920   3.339 -1.1338 -0.5707 -0.7579
19432TIP3   OH279710   6.690   3.932  16.388 -0.1779  0.1704 -0.1227
19432TIP3    H179711   6.656   3.910  16.302  0.7182 -0.6379 -0.2810
19432TIP3    H279712   6.784   3.915  16.382  0.3234  2.6324  0.2340
19433TIP3   OH279713   0.641   0.774  16.774  0.5370 -0.5909  0.3138
19433TIP3    H179714   0.667   0.866  16.771 -1.8197  0.0816 -0.1859
19433TIP3    H279715   0.610   0.760  16.864 -0.8678 -0.3924 -0.1371
19434TIP3   OH279716   3.159   0.250  15.317  0.0777 -0.0764 -0.3366
19434TIP3    H179717   3.250   0.270  15.341  0.1865  1.2467 -1.7495
19434TIP3    H279718   3.107   0.317  15.362  0.2103  1.8713 -2.9586
19435TIP3   OH279719   5.731   1.845  14.150 -0.0277 -0.0851 -0.5158
19435TIP3    H179720   5.767   1.905  14.084  1.3600 -0.0586  0.2396
19435TIP3    H279721   5.720   1.762  14.104 -0.1758  0.2490 -1.0818
19436TIP3   OH279722   2.981   2.037   5.201 -0.2110  0.3838 -0.3709
19436TIP3    H179723   2.893   2.030   5.240  1.6376 -2.3746  3.7264
19436TIP3    H279724   3.018   2.117   5.239  0.4750 -0.6684  1.2505
19437TIP3   OH279725   6.678   0.823  15.734 -0.1108  0.2676 -0.9369
19437TIP3    H179726   6.761   0.821  15.685  1.6198 -1.0927  1.9351
19437TIP3    H279727   6.669   0.915  15.761  0.3594  0.4567 -1.3975
19438TIP3   OH279728   3.260   4.561   0.530 -0.1772  0.0691  0.1833
19438TIP3    H179729   3.308   4.487   0.566 -1.3590 -1.9547 -2.2736
19438TIP3    H279730   3.323   4.605   0.473  1.1305  2.2036  3.1351
19439TIP3   OH279731   4.061   6.767  12.436 -0.1701 -0.4977 -0.8947
19439TIP3    H179732   4.113   6.790  12.359  2.8266 -2.4261  0.4189
19439TIP3    H279733   4.052   6.849  12.485  2.1316 -0.1613 -0.9502
19440TIP3   OH279734   4.115   5.340   2.524 -0.2341 -0.9008  0.0032
19440TIP3    H179735   4.199   5.329   2.568  1.2404  1.1955 -2.1521
19440TIP3    H279736   4.121   5.285   2.446 -1.0627 -1.1256  0.0903
19441TIP3   OH279737   4.238   0.958   5.976 -0.4154 -0.0660 -0.1453
19441TIP3    H179738   4.213   1.033   6.030  0.6775  0.0645  0.1887
19441TIP3    H279739   4.180   0.887   6.006 -0.3568  0.2117  0.6453
19442TIP3   OH279740   0.361   2.880  15.556  0.2640 -0.3263  0.2222
19442TIP3    H179741   0.453   2.889  15.580 -0.4539  0.2727  2.9117
19442TIP3    H279742   0.329   2.970  15.551 -0.1686 -0.5312 -0.7900
19443TIP3   OH279743   5.853   1.090  12.840  0.2290  0.1119  0.2814
19443TIP3    H179744   5.922   1.023  12.831  0.7531  0.6678  0.1585
19443TIP3    H279745   5.843   1.126  12.752 -1.2055 -0.9255 -0.0033
19444TIP3   OH279746   1.552   6.458   0.915 -0.4027  0.2303  0.1014
19444TIP3    H179747   1.609   6.457   0.838 -0.1839 -0.3977  0.2648
19444TIP3    H279748   1.483   6.394   0.896 -0.4147  0.1568  0.3754
19445TIP3   OH279749   5.038   3.123  12.001  0.3091  0.9560 -0.4549
19445TIP3    H179750   4.988   3.164  11.930 -0.2131  1.4669  0.1952
19445TIP3    H279751   5.008   3.032  12.001 -0.0355  1.0654 -0.5945
19446TIP3   OH279752   6.133   5.028  12.355 -0.3936 -0.1707 -0.5824
19446TIP3    H179753   6.205   5.086  12.329  0.2690 -1.3847 -1.4884
19446TIP3    H279754   6.148   4.947  12.307 -3.2163  0.0608 -1.9787
19447TIP3   OH279755   5.382   3.558  14.566 -0.2726 -0.5978  0.5916
19447TIP3    H179756   5.460   3.611  14.584  0.6099 -2.0231  1.0086
19447TIP3    H279757   5.400   3.474  14.607 -0.4535 -2.1742 -2.4124
19448TIP3   OH279758   0.547   6.339   1.593 -0.0256 -0.0738 -0.3598
19448TIP3    H179759   0.512   6.252   1.614 -1.0496  0.9594  2.4817
19448TIP3    H279760   0.479   6.380   1.540 -0.2443 -0.4373 -0.3657
19449TIP3   OH279761   5.206   6.738  16.956  0.4981  0.2013  0.2190
19449TIP3    H179762   5.122   6.770  16.987  0.7784  1.3774 -0.2098
19449TIP3    H279763   5.204   6.644  16.973 -0.6040  0.3395  0.8796
19450TIP3   OH279764   1.344   6.173  14.835 -0.0988  0.0560  0.0673
19450TIP3    H179765   1.385   6.233  14.771 -0.3274  0.0315 -0.1011
19450TIP3    H279766   1.344   6.222  14.917  0.6744 -0.1046  0.1725
19451TIP3   OH279767   1.372   2.107  12.909 -0.5709 -0.6032  0.3654
19451TIP3    H179768   1.366   2.097  12.814 -1.1596 -1.1575  0.4588
19451TIP3    H279769   1.302   2.052  12.943  0.6792 -1.7140  1.1926
19452TIP3   OH279770   0.076   6.425   6.663  0.2282  0.4692 -0.0931
19452TIP3    H179771   0.091   6.372   6.741  0.2580  0.5747 -0.0291
19452TIP3    H279772   0.021   6.369   6.607 -1.4822  1.1745  0.8583
19453TIP3   OH279773   1.871   4.100  14.265  0.5454 -0.5338  0.4499
19453TIP3    H179774   1.957   4.069  14.293  0.7755  0.6813  1.1277
19453TIP3    H279775   1.881   4.195  14.257 -0.7282 -0.3891  0.5157
19454TIP3   OH279776   4.447   0.345   4.363 -0.4518  0.1208 -0.2087
19454TIP3    H179777   4.470   0.311   4.276 -1.7312 -2.8218  0.5609
19454TIP3    H279778   4.382   0.413   4.345  1.4726  1.6520 -1.7060
19455TIP3   OH279779   5.976   0.908   2.233  0.0754 -0.0211  0.0035
19455TIP3    H179780   5.899   0.876   2.187 -1.1490  2.3668  0.2848
19455TIP3    H279781   6.037   0.835   2.233 -1.5390 -1.4041 -1.7203
19456TIP3   OH279782   0.733   2.034   0.863 -0.4729  0.6994  0.4143
19456TIP3    H179783   0.696   1.987   0.788 -1.4169  1.3241  0.4791
19456TIP3    H279784   0.801   1.976   0.896 -0.3450  0.2195 -0.6567
19457TIP3   OH279785   0.144   1.786  12.334  0.1162  0.1671 -0.5082
19457TIP3    H179786   0.144   1.830  12.419 -2.4801 -2.2528  0.8323
19457TIP3    H279787   0.066   1.820  12.289  0.3777 -0.0268 -1.1107
19458TIP3   OH279788   0.294   3.718  16.748  0.4013 -0.1131 -0.8641
19458TIP3    H179789   0.212   3.731  16.796  1.6848  0.2132  1.2877
19458TIP3    H279790   0.329   3.806  16.737  1.8100 -0.4524  0.6831
19459TIP3   OH279791   2.013   5.769   4.792 -0.2440 -0.5796  0.1116
19459TIP3    H179792   1.971   5.855   4.794  2.7871  1.0335 -1.7887
19459TIP3    H279793   2.008   5.742   4.701  2.4946 -0.4576 -0.1108
19460TIP3   OH279794   5.257   5.938  13.335  0.4032 -0.2888 -0.9605
19460TIP3    H179795   5.342   5.969  13.364  0.5872 -0.4746 -1.3046
19460TIP3    H279796   5.276   5.876  13.265 -0.0110 -0.3574 -1.0150
19461TIP3   OH279797   6.628   0.508   2.202 -0.3049  0.1828 -0.4614
19461TIP3    H179798   6.564   0.442   2.229 -0.2254  0.6025  0.8232
19461TIP3    H279799   6.708   0.485   2.249 -0.3016  1.2383  0.0799
19462TIP3   OH279800   4.513   6.253   2.860  0.1642  0.0914 -0.6552
19462TIP3    H179801   4.494   6.228   2.769  2.7513  0.3907 -1.3000
19462TIP3    H279802   4.505   6.171   2.909  0.2207 -0.3613 -1.3942
19463TIP3   OH279803   3.689   2.106   5.291 -0.0327 -0.2915 -0.1053
19463TIP3    H179804   3.645   2.021   5.294 -1.1501  0.2860  0.1134
19463TIP3    H279805   3.649   2.157   5.361 -0.6476  1.0293 -1.3906
19464TIP3   OH279806   5.544   4.240  13.028  0.3153 -0.0548 -0.1799
19464TIP3    H179807   5.539   4.231  13.123 -0.0775  0.2626 -0.1691
19464TIP3    H279808   5.495   4.320  13.008 -0.0800 -0.4175 -0.6961
19465TIP3   OH279809   3.094   1.575  16.173  0.8949 -0.3535 -0.2703
19465TIP3    H179810   3.029   1.510  16.199  0.9013  0.3396  1.5490
19465TIP3    H279811   3.047   1.635  16.115 -0.1090  0.1501  1.0421
19466TIP3   OH279812   1.720   2.439   4.196  0.6235 -0.2984 -0.0860
19466TIP3    H179813   1.808   2.468   4.171  0.4273  0.6544  0.3164
19466TIP3    H279814   1.681   2.515   4.239  0.0011 -1.0631  0.7296
19467TIP3   OH279815   1.210   3.111   0.476  0.0041  0.0991 -0.0929
19467TIP3    H179816   1.249   3.070   0.399 -0.0165  1.7816 -1.0373
19467TIP3    H279817   1.240   3.202   0.472 -0.9386  0.4890  1.2695
19468TIP3   OH279818   5.499   1.591  11.678 -0.2642 -0.8800  0.6461
19468TIP3    H179819   5.409   1.567  11.701 -0.6695 -0.0075  0.0085
19468TIP3    H279820   5.548   1.509  11.685 -1.2771 -1.5511  0.1561
19469TIP3   OH279821   5.098   3.015  15.471  0.8466  0.2771  0.0029
19469TIP3    H179822   5.065   2.998  15.383  1.2363 -0.0299 -0.0859
19469TIP3    H279823   5.049   2.956  15.528 -0.1386  1.2033  0.1321
19470TIP3   OH279824   0.746   3.623   0.204 -0.1183 -0.0387 -0.0111
19470TIP3    H179825   0.664   3.657   0.238  0.7625  0.1251  2.0491
19470TIP3    H279826   0.796   3.701   0.180 -0.3216 -0.1125 -0.6751
19471TIP3   OH279827   2.809   6.638  11.495  0.3160  0.4216  0.1214
19471TIP3    H179828   2.746   6.675  11.556 -2.8507 -2.3102 -1.3485
19471TIP3    H279829   2.844   6.561  11.541  0.1879  0.1037 -0.3110
19472TIP3   OH279830   5.332   6.529   4.055 -0.4850 -0.1878  0.6502
19472TIP3    H179831   5.395   6.543   4.127 -1.3994 -2.4252  1.9482
19472TIP3    H279832   5.299   6.616   4.035  2.2634  0.9091  0.6429
19473TIP3   OH279833   5.507   0.805  11.711  0.4285  0.3082 -0.0404
19473TIP3    H179834   5.518   0.712  11.692 -2.0684 -0.2243  0.9445
19473TIP3    H279835   5.578   0.825  11.773  0.1518 -1.2757  0.8072
19474TIP3   OH279836   4.353   2.529  15.166 -0.1334 -0.0912 -0.6245
19474TIP3    H179837   4.368   2.435  15.155  1.7008  0.1293 -0.0929
19474TIP3    H279838   4.399   2.552  15.247 -1.6239  1.0400 -0.0677
19475TIP3   OH279839   5.411   2.954   5.501  0.2868  0.1750  1.2168
19475TIP3    H179840   5.339   2.994   5.550 -0.6371 -0.2717  0.2562
19475TIP3    H279841   5.462   3.028   5.469 -1.6104  0.6482 -0.8415
19476TIP3   OH279842   4.994   5.710   2.999  0.2073 -0.0656  0.5423
19476TIP3    H179843   4.923   5.729   3.060 -1.0787 -0.4793 -0.7990
19476TIP3    H279844   4.958   5.643   2.940  1.7170 -0.3105 -0.1206
19477TIP3   OH279845   1.797   1.805  16.396  0.0056  0.3036  0.5070
19477TIP3    H179846   1.789   1.784  16.304 -0.0716 -0.6098  0.7223
19477TIP3    H279847   1.745   1.885  16.408 -0.3902  0.1371 -0.1300
19478TIP3   OH279848   0.615   1.365  10.757  0.0235 -0.1223 -0.0242
19478TIP3    H179849   0.629   1.449  10.714 -0.2475  0.3303  0.7555
19478TIP3    H279850   0.694   1.314  10.738  0.7975  0.8085  0.6546
19479TIP3   OH279851   4.714   5.225   6.013 -0.2953  0.2632  0.2789
19479TIP3    H179852   4.748   5.300   6.063  0.7164  0.0578 -0.0738
19479TIP3    H279853   4.764   5.150   6.046  0.5270  0.1527 -1.1529
19480TIP3   OH279854   4.525   5.231   0.136  0.1345 -0.0852  0.3071
19480TIP3    H179855   4.532   5.323   0.163  0.0433  0.1820 -0.5686
19480TIP3    H279856   4.452   5.197   0.188 -1.9578  1.1997 -1.6761
19481TIP3   OH279857   5.464   1.394   1.134 -0.2402 -0.0515  0.1488
19481TIP3    H179858   5.544   1.363   1.091 -1.6801 -0.8895 -2.0234
19481TIP3    H279859   5.460   1.487   1.112  1.2575  0.4862  2.0971
19482TIP3   OH279860   2.420   2.524  12.674 -0.2828 -0.0659  0.2743
19482TIP3    H179861   2.444   2.523  12.581  0.0034 -2.3835  0.3416
19482TIP3    H279862   2.500   2.553  12.718  0.4388 -1.5611 -0.0129
19483TIP3   OH279863   3.814   1.194   1.364  0.5281  0.2460 -0.5202
19483TIP3    H179864   3.855   1.269   1.407  0.4216  0.1256 -0.2046
19483TIP3    H279865   3.751   1.162   1.428  0.6007 -0.1355 -0.6417
19484TIP3   OH279866   2.917   1.470  12.893  0.0722 -0.2876 -0.4898
19484TIP3    H179867   3.009   1.474  12.918 -0.3922  2.9214  0.9590
19484TIP3    H279868   2.918   1.446  12.800  2.4261  0.7158 -0.7615
19485TIP3   OH279869   5.619   2.143   2.699  0.0344 -0.5388  0.3506
19485TIP3    H179870   5.647   2.071   2.641  1.5701  0.3356 -0.0359
19485TIP3    H279871   5.699   2.169   2.744 -0.5868  0.7024  0.7452
19486TIP3   OH279872   1.452   6.364  16.784  0.0951  0.4160  0.0220
19486TIP3    H179873   1.493   6.278  16.799  0.6266  0.9289  1.6212
19486TIP3    H279874   1.402   6.353  16.703 -1.8537 -2.1315  1.5135
19487TIP3   OH279875   5.346   6.231  16.715  0.5002 -0.4749 -0.4806
19487TIP3    H179876   5.389   6.194  16.792 -1.2553  1.1637  1.3454
19487TIP3    H279877   5.269   6.176  16.702  0.2582 -0.1521 -0.4312
19488TIP3   OH279878   3.206   0.005   2.936  0.1250 -0.0329 -0.3057
19488TIP3    H179879   3.164   0.074   2.884 -0.9130 -0.8479 -0.5691
19488TIP3    H279880   3.283   0.047   2.973 -0.0376  1.0399 -1.1434
19489TIP3   OH279881   0.411   4.711  14.246 -0.0867 -0.6474 -0.2390
19489TIP3    H179882   0.394   4.785  14.305 -1.5755 -1.2933  0.1638
19489TIP3    H279883   0.491   4.671  14.280  0.4747  0.4968 -0.1848
19490TIP3   OH279884   1.493   1.231   1.785  0.3322 -0.5316  0.0502
19490TIP3    H179885   1.493   1.135   1.791  2.4516 -0.5324  0.5052
19490TIP3    H279886   1.542   1.260   1.863  1.0023  0.8425 -0.8601
19491TIP3   OH279887   5.767   6.217  16.584 -0.3007  0.1571 -0.3357
19491TIP3    H179888   5.697   6.183  16.528  0.2601 -1.8966  0.1718
19491TIP3    H279889   5.833   6.248  16.523 -0.2530 -0.8856 -0.8339
19492TIP3   OH279890   2.035   5.086   3.277  0.1269 -0.2715 -0.1124
19492TIP3    H179891   2.097   5.068   3.348  1.0643  0.2225 -0.7896
19492TIP3    H279892   2.070   5.037   3.202 -1.4926 -1.7453  0.0589
19493TIP3   OH279893   1.754   5.246  16.853 -0.1496 -0.1868  0.0516
19493TIP3    H179894   1.803   5.304  16.795 -1.1439 -0.0614 -0.6845
19493TIP3    H279895   1.685   5.210  16.798 -1.6670  0.6391  1.3606
19494TIP3   OH279896   5.751   1.430   1.784 -0.2421 -0.4758  0.1121
19494TIP3    H179897   5.692   1.438   1.859 -0.4715 -0.2314 -0.0903
19494TIP3    H279898   5.796   1.347   1.797 -0.2207 -0.3968  0.5618
19495TIP3   OH279899   4.291   2.886   3.247 -0.0804 -0.6521  0.4896
19495TIP3    H179900   4.203   2.921   3.233 -0.1308 -0.6490  0.8034
19495TIP3    H279901   4.279   2.813   3.308 -0.0037 -1.3694 -0.3455
19496TIP3   OH279902   0.378   0.978   4.299  0.0063 -0.3504 -0.1455
19496TIP3    H179903   0.302   0.921   4.286  0.3035 -0.3554 -2.0067
19496TIP3    H279904   0.434   0.960   4.224  0.6069  1.6094 -0.1911
19497TIP3   OH279905   3.863   1.015   2.222 -1.0980 -0.0725 -0.2125
19497TIP3    H179906   3.859   1.055   2.135  1.6771 -0.0962 -0.3937
19497TIP3    H279907   3.893   0.926   2.206  1.0803  0.4353  0.8706
19498TIP3   OH279908   6.468   6.650  12.526  0.7065  0.8814  0.0700
19498TIP3    H179909   6.529   6.676  12.456 -0.5282  2.2426 -0.5253
19498TIP3    H279910   6.450   6.558  12.509  1.6715  0.7818 -0.4625
19499TIP3   OH279911   6.627   6.089  14.436  0.3549  0.0809 -0.5501
19499TIP3    H179912   6.574   6.042  14.500  0.7525  0.6664  0.2088
19499TIP3    H279913   6.710   6.106  14.480  0.1646  1.6255 -0.7522
19500TIP3   OH279914   0.715   3.365  11.241 -0.2499 -0.4308  0.8748
19500TIP3    H179915   0.683   3.410  11.163 -0.1332  0.3643  1.2752
19500TIP3    H279916   0.792   3.415  11.267 -0.5912 -0.3749  1.7980
19501TIP3   OH279917   5.035   3.025   6.111 -0.0287 -0.4696  0.4728
19501TIP3    H179918   5.052   2.941   6.068  0.9160  0.1081 -0.2984
19501TIP3    H279919   4.952   3.013   6.156 -0.2527 -1.5851 -0.2365
19502TIP3   OH279920   4.055   5.954  12.964  0.1484 -0.5552 -0.1964
19502TIP3    H179921   4.014   5.954  13.051  0.1454 -2.1588 -0.1729
19502TIP3    H279922   4.122   5.885  12.970  1.8205  0.9939 -0.7056
19503TIP3   OH279923   4.009   6.537   0.912  0.7210  0.0209 -0.6624
19503TIP3    H179924   4.100   6.547   0.942  1.2037 -1.3182 -1.6336
19503TIP3    H279925   3.959   6.597   0.967  2.2853  1.2568 -0.5443
19504TIP3   OH279926   3.567   5.926   0.024 -0.3520 -0.1518 -0.0751
19504TIP3    H179927   3.507   5.971  -0.036  0.0550  0.8348  0.2520
19504TIP3    H279928   3.533   5.837   0.030 -1.1420  0.1009 -0.7627
19505TIP3   OH279929   4.038   3.959   2.961  0.2187 -0.4515 -0.1962
19505TIP3    H179930   4.062   4.006   2.881  2.2500 -0.1780  0.5472
19505TIP3    H279931   3.945   3.980   2.975  0.3708  1.0478 -1.4030
19506TIP3   OH279932   5.905   3.421  12.118  0.4432  0.0524 -0.1511
19506TIP3    H179933   5.902   3.514  12.099  0.1110  0.2189  0.7216
19506TIP3    H279934   5.879   3.379  12.035  1.1114  0.7062 -0.7009
19507TIP3   OH279935   0.157   1.116   1.874 -0.7665  0.4645 -0.1290
19507TIP3    H179936   0.063   1.127   1.869 -0.6348  2.1407  0.7136
19507TIP3    H279937   0.180   1.065   1.797 -2.4639 -0.7588  0.1534
19508TIP3   OH279938   2.851   4.735   5.734  0.4309  0.5461 -0.4138
19508TIP3    H179939   2.811   4.783   5.806  1.2851  0.7067 -0.0374
19508TIP3    H279940   2.882   4.804   5.674  0.0079  0.4225 -0.7769
19509TIP3   OH279941   5.471   0.998  16.239 -0.6931 -0.3980 -0.3100
19509TIP3    H179942   5.423   1.036  16.166  0.3172  0.1671 -0.6997
19509TIP3    H279943   5.551   1.051  16.245 -0.2286 -1.1720  0.4508
19510TIP3   OH279944   6.549   0.816  17.206 -0.0644  0.2659  0.4065
19510TIP3    H179945   6.487   0.744  17.214 -0.5560  0.4205 -1.7394
19510TIP3    H279946   6.528   0.857  17.121  2.5402  0.6858 -0.0773
19511TIP3   OH279947   3.557   4.442   2.845  0.1764  0.1601  0.8483
19511TIP3    H179948   3.517   4.356   2.860  1.7573 -0.7804 -0.1841
19511TIP3    H279949   3.492   4.490   2.794 -1.1739 -0.0271  2.3702
19512TIP3   OH279950   3.057   4.610   3.737  0.2772  0.0401 -0.0235
19512TIP3    H179951   3.129   4.673   3.746 -1.0765  1.6152  0.0448
19512TIP3    H279952   2.986   4.660   3.697 -1.0487 -1.2912  0.6164
19513TIP3   OH279953   0.394   6.557   4.009 -0.4251 -0.6357 -0.7891
19513TIP3    H179954   0.311   6.593   3.979 -0.5665  0.3069  0.6907
19513TIP3    H279955   0.450   6.634   4.022  0.4295 -1.2080 -1.0162
19514TIP3   OH279956   0.284   0.941   1.455 -0.8655 -0.0933  0.1559
19514TIP3    H179957   0.377   0.925   1.470 -0.9663 -1.2543 -0.3981
19514TIP3    H279958   0.278   0.970   1.364 -1.0189  0.3108  0.2897
19515TIP3   OH279959   3.964   6.202  14.315 -0.3234 -0.6276 -0.1611
19515TIP3    H179960   4.002   6.115  14.308 -0.8064 -0.7833 -0.9283
19515TIP3    H279961   3.968   6.237  14.226 -0.7066 -0.1220  0.0187
19516TIP3   OH279962   4.297   4.449  16.722 -0.3758  0.0263  0.0886
19516TIP3    H179963   4.299   4.376  16.784 -0.6414  0.3956  0.5365
19516TIP3    H279964   4.388   4.476  16.713 -0.0934 -1.3979 -1.3112
19517TIP3   OH279965   3.026   5.465   0.510  0.1443 -0.2755 -0.3565
19517TIP3    H179966   3.006   5.510   0.592  2.0752  0.0204 -0.0268
19517TIP3    H279967   3.109   5.421   0.526  0.7472  0.1069 -2.2724
19518TIP3   OH279968   1.189   4.696   2.856  0.0291 -0.1013  0.3441
19518TIP3    H179969   1.207   4.769   2.798 -1.7667 -0.0204 -0.1335
19518TIP3    H279970   1.189   4.734   2.944 -0.1735  0.3303  0.1570
19519TIP3   OH279971   2.197   3.552  16.892 -0.6750 -0.1626  0.0631
19519TIP3    H179972   2.135   3.577  16.824 -1.1857 -0.0005  0.5881
19519TIP3    H279973   2.282   3.580  16.859 -0.9739  0.2787 -0.3282
19520TIP3   OH279974   3.434   6.112  17.035 -0.3834 -0.2379  0.0976
19520TIP3    H179975   3.366   6.144  17.094  0.1207  0.2129  0.4371
19520TIP3    H279976   3.479   6.191  17.005 -0.2062 -0.5134 -0.3660
19521TIP3   OH279977   5.145   5.640   4.800  0.0957  0.0990  0.2863
19521TIP3    H179978   5.193   5.587   4.864 -2.4289  0.0399  2.1985
19521TIP3    H279979   5.163   5.731   4.825 -0.3736  0.0812  0.6938
19522TIP3   OH279980   4.319   1.282   2.891  0.5561  0.1164 -0.2887
19522TIP3    H179981   4.290   1.268   2.801 -0.9147 -0.9831  0.3443
19522TIP3    H279982   4.241   1.309   2.938  1.3389  0.7757  0.6599
19523TIP3   OH279983   1.533   2.475  13.615  0.1528 -0.6167 -0.4973
19523TIP3    H179984   1.483   2.422  13.677 -0.3251  0.9453  0.4816
19523TIP3    H279985   1.623   2.442  13.622 -0.1469 -1.3178  0.0796
19524TIP3   OH279986   0.262   1.527  13.187  0.0681 -0.1407  0.1933
19524TIP3    H179987   0.349   1.489  13.201 -0.2326 -1.0990 -0.4847
19524TIP3    H279988   0.218   1.465  13.129 -1.4094 -0.1442  1.2999
19525TIP3   OH279989   5.191   6.441   2.541 -0.6888  0.1551 -0.1984
19525TIP3    H179990   5.172   6.368   2.481  1.4407 -0.3623 -0.2845
19525TIP3    H279991   5.163   6.519   2.493  1.5928 -0.1918 -2.1924
19526TIP3   OH279992   0.365   4.568  12.498  0.3839 -0.2872 -0.2154
19526TIP3    H179993   0.456   4.593  12.512  0.9143 -1.6053 -1.2562
19526TIP3    H279994   0.323   4.647  12.465  0.9499  0.5649  1.0678
19527TIP3   OH279995   1.801   4.536   5.829  0.0991  0.2319 -0.3116
19527TIP3    H179996   1.815   4.542   5.924 -2.8570  1.2800  0.0969
19527TIP3    H279997   1.825   4.622   5.796  0.4948  0.0744 -0.4397
19528TIP3   OH279998   4.923   2.252  11.520  0.0435  0.6072  0.3233
19528TIP3    H179999   4.969   2.179  11.478 -2.0786 -1.2502  1.1234
19528TIP3    H280000   4.948   2.247  11.612  0.8138  1.6510  0.1860
19529TIP3   OH280001   5.047   3.428  11.975 -0.2229 -0.6883 -0.6060
19529TIP3    H180002   5.068   3.518  11.951 -0.4660  0.2259  2.4308
19529TIP3    H280003   5.130   3.381  11.969 -0.0089 -0.1722 -1.7538
19530TIP3   OH280004   3.846   6.468  14.806  0.3398 -0.3248 -0.2220
19530TIP3    H180005   3.775   6.433  14.752 -0.0298  2.4456 -1.6177
19530TIP3    H280006   3.912   6.498  14.744  1.6617 -0.6055  1.0031
19531TIP3   OH280007   1.421   4.037  12.790 -0.0128 -0.1628 -0.0110
19531TIP3    H180008   1.410   4.124  12.828 -0.6167 -0.3466  0.2348
19531TIP3    H280009   1.440   4.053  12.698  2.6626  0.3405  0.5630
19532TIP3   OH280010   0.168   0.231  12.021  0.8795  0.6516  0.1763
19532TIP3    H180011   0.249   0.200  12.062  1.0844 -0.3877 -0.9753
19532TIP3    H280012   0.132   0.293  12.084  0.5041 -1.8783  2.5628
19533TIP3   OH280013   4.850   4.823  12.518  0.3288 -0.7748 -0.0171
19533TIP3    H180014   4.938   4.847  12.492 -0.1099  1.8851  0.7818
19533TIP3    H280015   4.857   4.802  12.611  0.3672 -1.9999 -0.2858
19534TIP3   OH280016   2.207   2.061   5.100 -0.2943 -0.1404 -0.0647
19534TIP3    H180017   2.234   2.030   5.187  2.1702  0.0794 -0.7141
19534TIP3    H280018   2.120   2.098   5.114 -0.8729 -2.0869  1.8779
19535TIP3   OH280019   6.273   6.282  11.813 -0.2433 -0.2214 -0.1649
19535TIP3    H180020   6.193   6.281  11.759 -0.9772 -1.5026  0.9278
19535TIP3    H280021   6.297   6.190  11.822  1.0187  0.1152  0.0613
19536TIP3   OH280022   3.149   5.210  11.311  0.2646  0.4422 -0.4519
19536TIP3    H180023   3.118   5.131  11.355 -0.1124 -0.1235 -1.7337
19536TIP3    H280024   3.099   5.214  11.230 -0.6721  2.7133  0.1815
19537TIP3   OH280025   5.800   6.659  14.641 -0.2406  1.0392  0.3213
19537TIP3    H180026   5.791   6.578  14.691 -1.0230  1.7934  1.4333
19537TIP3    H280027   5.867   6.709  14.688  0.2239  1.0514 -0.3483
19538TIP3   OH280028   1.632   0.526  16.803 -0.4519  0.1788  0.5749
19538TIP3    H180029   1.679   0.456  16.848 -1.3547 -0.2051  0.9558
19538TIP3    H280030   1.572   0.561  16.869  0.3400  1.6610  0.5307
19539TIP3   OH280031   3.507   0.768   5.521  0.2668  0.0675  0.0635
19539TIP3    H180032   3.521   0.861   5.544  0.7665 -0.4995  2.2158
19539TIP3    H280033   3.439   0.739   5.583  0.7301 -1.2155 -0.0236
19540TIP3   OH280034   4.368   4.988   3.269 -0.1486 -0.1281 -0.2111
19540TIP3    H180035   4.302   5.056   3.261  0.5653  0.7313  1.0532
19540TIP3    H280036   4.358   4.935   3.189 -1.7625  0.4961 -0.4394
19541TIP3   OH280037   5.813   1.844   0.080 -0.5913  0.1989  0.3681
19541TIP3    H180038   5.734   1.868   0.031 -0.3678  1.3442  0.5416
19541TIP3    H280039   5.857   1.928   0.096  0.8589 -0.4707 -0.0668
19542TIP3   OH280040   2.716   1.281  13.945 -0.5534 -0.2907  0.0199
19542TIP3    H180041   2.727   1.192  13.978  1.7096 -0.1836 -0.4166
19542TIP3    H280042   2.759   1.336  14.011 -0.8713  0.3861 -0.3340
19543TIP3   OH280043   2.047   5.291   0.618  0.4099  0.4204 -0.1068
19543TIP3    H180044   2.125   5.250   0.655  0.2969  1.1189  0.9247
19543TIP3    H280045   1.997   5.218   0.582  1.4991 -0.0407 -0.7090
19544TIP3   OH280046   0.776   0.406   5.993 -0.0326 -0.5644 -0.4058
19544TIP3    H180047   0.820   0.344   6.052 -1.6423 -0.4787  0.9085
19544TIP3    H280048   0.748   0.478   6.049 -1.4231 -0.3829 -1.3101
19545TIP3   OH280049   1.659   1.632  11.814 -0.7193 -0.6704 -0.1604
19545TIP3    H180050   1.577   1.583  11.808  0.5413 -2.7962 -0.5551
19545TIP3    H280051   1.653   1.680  11.896 -1.9579 -1.5844  0.2887
19546TIP3   OH280052   4.307   2.606   3.718 -0.2891 -0.2202  0.0371
19546TIP3    H180053   4.334   2.696   3.703  0.1633 -0.3188  0.2662
19546TIP3    H280054   4.337   2.558   3.641  0.2166 -0.3346  0.3030
19547TIP3   OH280055   5.042   3.552  13.402 -0.1771  0.0320  0.2029
19547TIP3    H180056   5.126   3.594  13.419  0.5520 -1.2312 -0.1984
19547TIP3    H280057   5.065   3.470  13.357 -1.7144  0.4634 -1.4017
19548TIP3   OH280058   5.750   0.881  15.312 -0.3051  0.0359  0.2959
19548TIP3    H180059   5.814   0.949  15.291  0.1855 -0.3245  0.6286
19548TIP3    H280060   5.715   0.907  15.397  1.3498 -1.2050  1.3842
19549TIP3   OH280061   3.868   5.237   4.299  0.0298 -0.1098 -0.7331
19549TIP3    H180062   3.883   5.326   4.267  0.9613  0.8058  2.0740
19549TIP3    H280063   3.948   5.189   4.278  1.3507  0.9623  1.7198
19550TIP3   OH280064   2.732   5.261  10.930  0.6140  0.1770 -0.6188
19550TIP3    H180065   2.646   5.275  10.891 -1.0770 -1.0236  2.4742
19550TIP3    H280066   2.766   5.349  10.947 -0.5961  0.6469 -0.6254
19551TIP3   OH280067   6.047   1.431  12.122  0.4308 -0.5152  0.3751
19551TIP3    H180068   6.030   1.493  12.193  0.3493 -1.8257  1.5491
19551TIP3    H280069   6.024   1.346  12.160  0.4303 -1.2388 -1.2278
19552TIP3   OH280070   3.601   2.732   3.550 -0.3207  0.1269 -0.2321
19552TIP3    H180071   3.520   2.744   3.500 -0.4308  0.4306  0.0245
19552TIP3    H280072   3.576   2.746   3.641  0.0007  0.1282 -0.1439
19553TIP3   OH280073   6.005   5.311   2.659 -0.0270  0.3622  0.1427
19553TIP3    H180074   5.916   5.290   2.630 -0.2508  0.2403  0.9163
19553TIP3    H280075   5.995   5.337   2.750  0.8781 -0.8148  0.5981
19554TIP3   OH280076   4.513   6.169   3.630  0.0439  0.2770  0.2114
19554TIP3    H180077   4.582   6.179   3.696 -2.2123 -1.6503  2.9652
19554TIP3    H280078   4.519   6.078   3.603  0.3678  0.8306 -1.6335
19555TIP3   OH280079   0.442   6.772   5.708 -0.0649 -0.1235  0.4689
19555TIP3    H180080   0.458   6.681   5.733  0.8670 -0.0511  0.1761
19555TIP3    H280081   0.350   6.787   5.728 -0.1431 -1.0371  0.8159
19556TIP3   OH280082   2.032   5.039  15.108  0.0300 -0.7078 -0.2434
19556TIP3    H180083   2.031   5.053  15.203 -0.4197 -0.7511 -0.2414
19556TIP3    H280084   2.070   4.952  15.097 -2.2506 -1.7983  0.0460
19557TIP3   OH280085   4.170   3.832   3.143  0.2930  0.3175  0.0159
19557TIP3    H180086   4.170   3.910   3.199 -0.4559 -0.4645  1.1477
19557TIP3    H280087   4.144   3.864   3.057  0.6020  1.4140  0.3232
19558TIP3   OH280088   6.551   2.370   2.303 -0.1853  0.0016  0.3145
19558TIP3    H180089   6.541   2.413   2.218  2.4844 -0.7030 -0.4109
19558TIP3    H280090   6.539   2.277   2.285  0.6107 -0.1722  0.6624
19559TIP3   OH280091   2.105   5.390  15.144  1.0727 -0.3286 -0.2307
19559TIP3    H180092   2.188   5.426  15.174  1.1784 -1.5194  0.9282
19559TIP3    H280093   2.124   5.352  15.058  1.7391 -0.7194  0.0960
19560TIP3   OH280094   4.962   5.579  14.034  0.1504 -0.4565  0.2049
19560TIP3    H180095   4.903   5.584  14.109 -1.0638  0.9522 -0.8067
19560TIP3    H280096   4.904   5.586  13.958  1.5336  0.0361 -0.8241
19561TIP3   OH280097   0.947   4.848   1.826  0.0157 -0.0398  0.1932
19561TIP3    H180098   0.913   4.895   1.750 -1.0852 -1.5704 -0.2979
19561TIP3    H280099   1.039   4.830   1.804 -0.4351 -0.9172 -1.0035
19562TIP3   OH280100   1.228   2.834  11.281  0.2498 -0.6181 -0.3303
19562TIP3    H180101   1.187   2.917  11.302  0.6757 -0.8818  1.6081
19562TIP3    H280102   1.318   2.843  11.312  0.7917 -1.1899 -1.6776
19563TIP3   OH280103   1.728   3.000   5.603  0.4795 -0.4041 -0.0917
19563TIP3    H180104   1.639   2.971   5.621  0.5232 -0.2847  0.3276
19563TIP3    H280105   1.746   3.064   5.672  1.0866 -0.8301  0.1454
19564TIP3   OH280106   2.299   5.528   1.105  0.6167 -0.0826 -0.1916
19564TIP3    H180107   2.253   5.492   1.029  0.3934  0.1522 -0.1699
19564TIP3    H280108   2.305   5.455   1.166 -2.2016  0.5819  0.9413
19565TIP3   OH280109   2.919   0.479  12.953 -0.2817 -0.5672  0.4981
19565TIP3    H180110   2.951   0.428  13.028  1.0274 -0.5142 -0.0237
19565TIP3    H280111   2.976   0.454  12.880 -0.7300  0.3481 -0.1797
19566TIP3   OH280112   4.263   0.479  12.574 -0.2709 -0.7312  0.4019
19566TIP3    H180113   4.344   0.468  12.623  0.0276  0.1818  0.1321
19566TIP3    H280114   4.221   0.555  12.615 -0.8416 -1.0087  0.3404
19567TIP3   OH280115   5.807   3.624  14.279  0.2805  0.3999  0.1091
19567TIP3    H180116   5.863   3.577  14.218 -0.1389  2.1629 -1.6627
19567TIP3    H280117   5.867   3.679  14.330  0.4271  0.4069 -0.0726
19568TIP3   OH280118   4.146   3.307   0.985  0.0560  0.3201  0.4481
19568TIP3    H180119   4.077   3.278   1.046  0.2164  0.0980  0.5234
19568TIP3    H280120   4.227   3.280   1.027  0.2135  0.9842  0.5721
19569TIP3   OH280121   0.245   3.697  11.140  0.0904  0.3857 -0.9690
19569TIP3    H180122   0.280   3.706  11.228  1.0628 -2.3480 -1.0274
19569TIP3    H280123   0.150   3.695  11.152  0.1026  2.4224 -0.2704
19570TIP3   OH280124   1.287   3.950   4.405 -0.5053 -0.5267  0.1255
19570TIP3    H180125   1.301   4.041   4.430 -1.2079  0.2305 -2.1329
19570TIP3    H280126   1.245   3.910   4.481  1.3832  0.5782  1.7869
19571TIP3   OH280127   3.033   4.692  14.233 -0.1705  0.8635  0.1774
19571TIP3    H180128   3.099   4.750  14.271 -0.2499  0.3129  1.1892
19571TIP3    H280129   3.016   4.628  14.302  0.5123 -0.8586 -1.2266
19572TIP3   OH280130   6.112   1.680   3.315  0.5332 -0.3457 -0.1985
19572TIP3    H180131   6.204   1.661   3.299  0.3207 -1.1803 -0.4779
19572TIP3    H280132   6.082   1.608   3.371  0.2992  0.4593  0.7226
19573TIP3   OH280133   4.312   3.767  14.342  0.3647  0.0053 -0.9402
19573TIP3    H180134   4.258   3.835  14.383  1.7342  0.2576  0.5215
19573TIP3    H280135   4.319   3.794  14.250  0.2252  1.4114 -0.5543
19574TIP3   OH280136   0.799   4.145   3.677 -0.4094  0.1816  0.4147
19574TIP3    H180137   0.776   4.203   3.749 -0.9917 -0.8984  1.1061
19574TIP3    H280138   0.833   4.066   3.719  0.3899  0.0110 -0.5207
19575TIP3   OH280139   3.221   2.801  16.376 -0.1740 -0.1412 -0.0112
19575TIP3    H180140   3.296   2.860  16.375 -0.7229  0.5506 -0.5003
19575TIP3    H280141   3.212   2.775  16.468  1.4307 -1.2162 -0.1207
19576TIP3   OH280142   5.688   5.329   2.265  0.4570  0.1388  0.3889
19576TIP3    H180143   5.731   5.293   2.187  0.1509 -1.6355  1.0350
19576TIP3    H280144   5.595   5.328   2.244  0.3592 -0.5140  0.8450
19577TIP3   OH280145   6.550   0.618  13.017 -0.4919 -0.3736  0.4479
19577TIP3    H180146   6.570   0.575  12.934 -2.8434 -1.6518  0.5008
19577TIP3    H280147   6.478   0.677  12.996  0.6571  1.2815  1.0514
19578TIP3   OH280148   1.040   1.643  15.434 -0.1984  0.1031  0.4626
19578TIP3    H180149   1.104   1.602  15.377 -0.0530  2.1542 -0.9195
19578TIP3    H280150   0.989   1.570  15.470  2.3213 -1.4869  0.9206
19579TIP3   OH280151   0.019   2.888   0.039  0.1346 -0.1397 -0.2850
19579TIP3    H180152   0.044   2.891   0.131 -0.6750 -2.0296 -0.0022
19579TIP3    H280153  -0.056   2.947   0.032  0.2540  0.0738  0.2407
19580TIP3   OH280154   3.875   6.161  11.526 -0.6274  0.3407 -0.0976
19580TIP3    H180155   3.884   6.241  11.474 -2.7468  1.1086  0.6564
19580TIP3    H280156   3.821   6.103  11.472  0.9262 -0.6096 -0.6524
19581TIP3   OH280157   4.628   4.370   3.085 -0.4858 -0.9083  0.0785
19581TIP3    H180158   4.568   4.400   3.153 -1.6725  0.2512 -1.4486
19581TIP3    H280159   4.705   4.426   3.095 -1.1826  0.1358 -0.3595
19582TIP3   OH280160   0.431   0.128  11.367  0.2034  0.7477  0.0816
19582TIP3    H180161   0.467   0.170  11.446 -0.9336  1.4166  0.2442
19582TIP3    H280162   0.377   0.196  11.326 -1.9899 -0.6733  0.5748
19583TIP3   OH280163   5.336   0.440   2.148  0.3189  0.8633  0.3317
19583TIP3    H180164   5.293   0.524   2.167  0.2889  1.3345 -1.6567
19583TIP3    H280165   5.417   0.443   2.198  0.1323  1.9122  0.5872
19584TIP3   OH280166   2.179   1.905   4.139 -0.7173  0.1990  0.2951
19584TIP3    H180167   2.140   1.818   4.144  1.2083 -0.7174 -0.2427
19584TIP3    H280168   2.105   1.964   4.124 -1.9288 -1.4523 -0.2861
19585TIP3   OH280169   6.760   0.442  14.563 -0.0691 -0.2602 -0.4617
19585TIP3    H180170   6.699   0.398  14.622  2.1817 -1.6072  0.9449
19585TIP3    H280171   6.817   0.493  14.621  0.6187  0.3593 -1.6716
19586TIP3   OH280172   6.477   5.081   3.289  0.3345 -0.4157 -0.0098
19586TIP3    H180173   6.425   5.157   3.316  0.5281 -0.1692 -0.3267
19586TIP3    H280174   6.475   5.084   3.193 -1.4066 -1.9933 -0.0575
19587TIP3   OH280175   6.128   1.705  16.752 -0.6551  0.6337  0.5232
19587TIP3    H180176   6.149   1.611  16.755  0.7510  0.8771 -0.7797
19587TIP3    H280177   6.213   1.748  16.754 -1.2686  1.8680  0.3945
19588TIP3   OH280178   5.634   6.683  13.588  0.2838  0.0095  0.4265
19588TIP3    H180179   5.650   6.700  13.681  1.6125  0.9708  0.0271
19588TIP3    H280180   5.634   6.588  13.581  2.1467 -0.0533  1.0700
19589TIP3   OH280181   0.703   6.781  16.949 -0.2311 -0.1685 -0.0611
19589TIP3    H180182   0.705   6.847  17.018 -0.3169 -0.2300 -0.0015
19589TIP3    H280183   0.684   6.831  16.869  1.3943  0.1211 -0.2899
19590TIP3   OH280184   5.151   6.093   4.132  0.1438  0.8013  0.1823
19590TIP3    H180185   5.169   6.172   4.082  1.2558 -0.3447 -1.2547
19590TIP3    H280186   5.199   6.023   4.087 -3.1838 -1.2756 -0.3547
19591TIP3   OH280187   3.837   1.221   5.412 -0.3655  0.1599 -0.2313
19591TIP3    H180188   3.801   1.215   5.500 -0.1499 -0.8146 -0.2120
19591TIP3    H280189   3.883   1.138   5.398 -0.4955  0.2585 -1.3018
19592TIP3   OH280190   5.872   3.804  17.153 -0.0219 -0.1077  0.0168
19592TIP3    H180191   5.822   3.758  17.086  2.0333 -0.7066 -1.1698
19592TIP3    H280192   5.869   3.746  17.229 -0.7332 -0.3554 -0.2009
19593TIP3   OH280193   3.954   4.339   4.475  0.3104 -0.3026  0.6797
19593TIP3    H180194   3.912   4.349   4.389  0.0857  0.5735  0.8902
19593TIP3    H280195   4.007   4.417   4.485  1.8886 -1.3231  0.4921
19594TIP3   OH280196   2.206   6.101   1.350 -0.2043  0.0625  0.1384
19594TIP3    H180197   2.214   6.038   1.278 -1.3119 -0.1279  0.1731
19594TIP3    H280198   2.265   6.173   1.326  1.6065 -1.2878  0.4264
19595TIP3   OH280199   0.425   4.524  16.545 -0.6458 -0.1865 -0.0744
19595TIP3    H180200   0.385   4.451  16.593 -1.5130  0.6919  0.5770
19595TIP3    H280201   0.464   4.483  16.468 -2.1551 -1.1968 -0.3415
19596TIP3   OH280202   0.178   4.666   2.545  0.2737  0.4090  0.1120
19596TIP3    H180203   0.273   4.662   2.534  0.0632  0.2031 -2.0001
19596TIP3    H280204   0.146   4.586   2.502 -1.0306  2.0306 -2.0214
19597TIP3   OH280205   1.745   6.605  11.840  0.1450  0.4682  0.0813
19597TIP3    H180206   1.754   6.690  11.797 -0.3547 -0.7111 -2.4557
19597TIP3    H280207   1.652   6.583  11.830  0.1031 -0.0435  1.4099
19598TIP3   OH280208   4.207   0.302   0.318  0.1177 -0.3144 -0.1601
19598TIP3    H180209   4.277   0.362   0.341 -0.2760 -0.3436  1.1653
19598TIP3    H280210   4.216   0.230   0.381 -1.3725 -0.0953  0.3288
19599TIP3   OH280211   4.635   4.206  12.183  0.1011  0.2736 -0.1968
19599TIP3    H180212   4.623   4.151  12.106 -0.8471 -0.5741  0.5544
19599TIP3    H280213   4.604   4.293  12.156  0.2369  0.1049 -0.9120
19600TIP3   OH280214   2.451   3.571   0.618  0.2831 -0.2212 -0.3098
19600TIP3    H180215   2.425   3.629   0.546  3.4108 -0.3302 -1.5849
19600TIP3    H280216   2.463   3.486   0.578  1.0938 -0.5173  0.5412
19601TIP3   OH280217   0.711   0.625  12.978  0.1558  0.6252 -0.1541
19601TIP3    H180218   0.633   0.641  13.031 -0.1255  1.5543 -0.8250
19601TIP3    H280219   0.741   0.713  12.953 -0.0751  0.1937 -2.0450
19602TIP3   OH280220   2.639   4.472   1.717  0.6916  0.0955  0.0658
19602TIP3    H180221   2.643   4.379   1.692 -0.8802  0.2937 -0.9611
19602TIP3    H280222   2.648   4.471   1.812  0.5274 -1.1356  0.0770
19603TIP3   OH280223   4.918   6.341  14.858 -0.3066 -0.8884  0.2813
19603TIP3    H180224   4.972   6.288  14.799 -0.7524  0.0179 -0.9590
19603TIP3    H280225   4.921   6.294  14.941  2.3807 -0.8731  0.2401
19604TIP3   OH280226   1.203   2.195  11.369 -0.0757 -0.2813 -0.0212
19604TIP3    H180227   1.258   2.207  11.447 -0.7269  0.9216  0.2562
19604TIP3    H280228   1.244   2.249  11.302 -1.5015  1.4973  0.4896
19605TIP3   OH280229   3.727   1.739   5.146  0.0323 -0.3086  0.4279
19605TIP3    H180230   3.655   1.691   5.187  0.8534 -0.9972  1.0792
19605TIP3    H280231   3.801   1.727   5.206  0.5358  0.8751  0.0607
19606TIP3   OH280232   1.889   3.092  11.621 -0.0607 -0.0093  0.2132
19606TIP3    H180233   1.819   3.047  11.574 -0.6390  0.3348  0.7301
19606TIP3    H280234   1.946   3.127  11.551 -0.9317  0.5336 -0.2440
19607TIP3   OH280235   2.035   0.041   3.897  0.3276 -0.1354 -0.0788
19607TIP3    H180236   2.102  -0.028   3.891 -0.5168 -1.0356  0.7059
19607TIP3    H280237   1.974   0.009   3.963 -1.6736 -0.0039 -1.8339
19608TIP3   OH280238   2.283   2.803  13.310  0.5144  0.4663 -0.0608
19608TIP3    H180239   2.273   2.734  13.245  0.4404 -0.6791  1.1538
19608TIP3    H280240   2.228   2.875  13.277  0.5577 -0.0498 -1.3007
19609TIP3   OH280241   3.381   5.616  14.313 -0.2582  0.0624 -0.2508
19609TIP3    H180242   3.328   5.541  14.286 -2.4711  2.0085 -1.4032
19609TIP3    H280243   3.446   5.626  14.244 -0.0707 -0.6347 -0.1871
19610TIP3   OH280244   0.074   5.739   1.751  0.6495  0.3065 -0.5825
19610TIP3    H180245   0.126   5.662   1.777  2.6068  1.2356 -1.6257
19610TIP3    H280246   0.096   5.805   1.817 -0.0155  0.3751 -0.4345
19611TIP3   OH280247   1.583   1.206  15.524 -0.4747  0.8512 -0.2441
19611TIP3    H180248   1.582   1.119  15.563 -0.8592  1.5241  1.2794
19611TIP3    H280249   1.670   1.240  15.544  0.0784  0.3760 -1.8357
19612TIP3   OH280250   3.187   5.205   2.465  0.0729  0.2749 -0.4460
19612TIP3    H180251   3.252   5.248   2.409 -0.7460  0.9531 -0.8822
19612TIP3    H280252   3.238   5.170   2.538  1.3389 -1.6175 -2.1818
19613TIP3   OH280253   3.168   3.477   1.522  0.4698 -0.0542 -0.1936
19613TIP3    H180254   3.130   3.552   1.476 -1.4367 -0.1306  1.1975
19613TIP3    H280255   3.192   3.511   1.608 -0.6173 -1.0686  0.5245
19614TIP3   OH280256   0.696   1.021  10.982 -0.3223 -0.1325 -0.0562
19614TIP3    H180257   0.689   0.997  10.890  0.5213 -1.5160  0.2188
19614TIP3    H280258   0.671   1.113  10.986  0.1598  0.0774 -1.7458
19615TIP3   OH280259   1.666   3.045   0.055  0.2024  0.8119 -0.7295
19615TIP3    H180260   1.593   2.996   0.093  0.2212  2.2171  1.2234
19615TIP3    H280261   1.682   3.003  -0.029 -2.3120 -0.0518 -0.8293
19616TIP3   OH280262   5.832   3.345   3.028 -0.3403  0.2757  0.2187
19616TIP3    H180263   5.769   3.332   2.957 -1.3039 -1.1313  1.3120
19616TIP3    H280264   5.795   3.416   3.080 -0.5264  0.1135  0.3065
19617TIP3   OH280265   4.088   0.306   2.400  0.2405  0.1857  0.0483
19617TIP3    H180266   4.020   0.311   2.467  0.0482  1.6174 -0.2461
19617TIP3    H280267   4.050   0.348   2.323  1.0536  0.0153 -0.4574
19618TIP3   OH280268   4.170   0.772  12.824  0.0104 -0.4745  0.1316
19618TIP3    H180269   4.185   0.804  12.913 -1.1553  1.2629 -0.2765
19618TIP3    H280270   4.081   0.737  12.825  0.0369 -0.5583 -0.3240
19619TIP3   OH280271   4.122   2.400  12.978 -0.4062  0.2095  0.4084
19619TIP3    H180272   4.141   2.437  12.891  1.7494  2.4655  1.7312
19619TIP3    H280273   4.121   2.306  12.965  1.4300  0.4478 -1.8393
19620TIP3   OH280274   0.868   6.235   2.719 -0.6362 -0.2771  0.7515
19620TIP3    H180275   0.925   6.159   2.709 -2.5540 -1.6337 -0.1418
19620TIP3    H280276   0.928   6.309   2.729  1.2997 -1.5199 -1.1641
19621TIP3   OH280277   5.541   1.197  16.539  0.2763  0.4668  0.1994
19621TIP3    H180278   5.522   1.245  16.619 -0.5173  1.6815 -0.6914
19621TIP3    H280279   5.591   1.121  16.567 -0.5405  0.5477  1.9111
19622TIP3   OH280280   5.909   5.323   2.022  0.1690  0.0014 -0.3140
19622TIP3    H180281   5.962   5.258   1.975 -0.5401  0.3209 -1.5883
19622TIP3    H280282   5.819   5.301   1.999 -0.2266 -0.1070  1.2712
19623TIP3   OH280283   4.951   5.092   4.338 -0.5997  1.0443  0.1750
19623TIP3    H180284   5.035   5.136   4.326 -0.6172  1.2291  0.7283
19623TIP3    H280285   4.965   5.003   4.305 -0.3543  1.2424 -0.2649
19624TIP3   OH280286   0.473   1.964   4.326 -0.3365 -0.2083 -0.2455
19624TIP3    H180287   0.549   1.914   4.357 -0.9598 -0.7274  0.4679
19624TIP3    H280288   0.419   1.899   4.281 -0.7261  0.0105 -0.0896
19625TIP3   OH280289   1.348   6.752   4.562  0.2337 -0.3978  0.2079
19625TIP3    H180290   1.295   6.750   4.642 -1.2120  0.4696 -0.7022
19625TIP3    H280291   1.289   6.788   4.495  1.7934 -0.0071 -0.9794
19626TIP3   OH280292   1.886   0.734  10.965  0.4253 -0.1366  0.0794
19626TIP3    H180293   1.943   0.670  10.923 -0.8679 -0.7470 -0.7794
19626TIP3    H280294   1.873   0.802  10.899 -1.7649 -1.1902 -0.5972
19627TIP3   OH280295   4.052   1.201  12.770  0.0588  0.2615  0.5371
19627TIP3    H180296   3.993   1.144  12.721  0.7222  0.7136 -0.8134
19627TIP3    H280297   4.063   1.278  12.714  2.3929 -0.0716  0.5084
19628TIP3   OH280298   2.500   5.239  14.986  0.6818 -0.1048 -0.4197
19628TIP3    H180299   2.538   5.181  14.920 -1.4319  0.0140 -1.7807
19628TIP3    H280300   2.514   5.194  15.069  1.5952 -1.2082 -1.1590
19629TIP3   OH280301   0.490   3.369  14.566 -0.0981 -0.0254 -0.0356
19629TIP3    H180302   0.550   3.363  14.492  0.9495 -0.5750  0.8334
19629TIP3    H280303   0.429   3.296  14.554 -0.6439  0.5862 -0.9715
19630TIP3   OH280304   1.067   4.854  11.461  0.2208 -0.3524  0.4252
19630TIP3    H180305   1.034   4.865  11.371 -1.0996  2.4714  1.2076
19630TIP3    H280306   1.121   4.775  11.456 -1.3080 -1.3458 -2.4353
19631TIP3   OH280307   0.789   3.603   5.315 -0.3719  0.1443 -0.2181
19631TIP3    H180308   0.866   3.567   5.272  1.2073  1.0540  1.7630
19631TIP3    H280309   0.736   3.527   5.337  1.3354 -0.7352  0.9553
19632TIP3   OH280310   5.963   3.073  17.222 -0.3422 -0.0556  0.2057
19632TIP3    H180311   5.903   3.126  17.170  0.4062  1.1646  0.5476
19632TIP3    H280312   6.047   3.119  17.215  0.1355 -0.7689  1.1585
19633TIP3   OH280313   3.697   3.893   3.469 -0.4718 -0.2516  0.1888
19633TIP3    H180314   3.769   3.868   3.411  0.2484  1.2217  0.4247
19633TIP3    H280315   3.739   3.910   3.554 -0.8707  1.9505 -0.0197
19634TIP3   OH280316   1.121   1.101  14.359  0.2863  0.4090  0.5911
19634TIP3    H180317   1.150   1.016  14.392 -2.0902 -0.7591 -0.2085
19634TIP3    H280318   1.096   1.150  14.437  1.1992  0.1994  1.0182
19635TIP3   OH280319   0.601   3.068   2.304 -0.0412 -0.4626 -0.0226
19635TIP3    H180320   0.629   3.156   2.279 -1.3192 -0.1723 -0.4297
19635TIP3    H280321   0.638   3.011   2.235  1.2696 -0.3313  0.5499
19636TIP3   OH280322   1.718   3.385  16.285 -0.5216  0.1984  0.1312
19636TIP3    H180323   1.671   3.416  16.208  0.3515 -0.1874 -0.5843
19636TIP3    H280324   1.660   3.321  16.325  0.3144 -2.0257 -2.0742
19637TIP3   OH280325   6.226   3.333   0.375  0.1919  0.2000  0.1596
19637TIP3    H180326   6.181   3.339   0.291 -0.0486 -1.0365  0.1907
19637TIP3    H280327   6.171   3.384   0.435 -0.2861  0.0709 -0.1641
19638TIP3   OH280328   2.433   3.755   5.391 -0.3835  0.4775 -0.2304
19638TIP3    H180329   2.417   3.672   5.345 -0.8377  0.8392 -0.7331
19638TIP3    H280330   2.494   3.802   5.334  0.7772  0.0183  0.6135
19639TIP3   OH280331   2.648   4.524   4.279  0.4969  0.0576 -0.0116
19639TIP3    H180332   2.570   4.563   4.238  1.8770 -1.4061 -4.2038
19639TIP3    H280333   2.615   4.490   4.362 -3.0351  0.7792 -0.9958
19640TIP3   OH280334   3.199   3.420  12.827 -0.4704 -0.0377  0.0166
19640TIP3    H180335   3.195   3.324  12.827 -0.9664 -0.0628  2.5005
19640TIP3    H280336   3.254   3.441  12.903  0.0955  1.6477 -0.8389
19641TIP3   OH280337   5.719   0.128   3.883 -0.4464  0.1601 -0.2292
19641TIP3    H180338   5.644   0.093   3.837 -1.9557  1.3828  1.2378
19641TIP3    H280339   5.746   0.058   3.942  0.0497 -0.5550 -1.2951
19642TIP3   OH280340   1.318   3.243  11.361 -0.6056  0.6973  0.4590
19642TIP3    H180341   1.401   3.234  11.407 -0.1524  2.6552  0.0806
19642TIP3    H280342   1.258   3.183  11.406  0.9081 -0.4998  0.9280
19643TIP3   OH280343   4.934   2.979   5.097 -0.3773 -0.1808  0.2160
19643TIP3    H180344   4.849   2.991   5.055  0.8329 -0.2370 -2.3511
19643TIP3    H280345   4.984   2.925   5.036  1.8759  0.7258  1.1777
19644TIP3   OH280346   0.773   3.029  17.003  0.4207  0.3182  0.0302
19644TIP3    H180347   0.864   3.036  17.034  0.9433  1.5728 -1.6912
19644TIP3    H280348   0.731   3.107  17.037  0.3454  0.4205 -0.2943
19645TIP3   OH280349   3.887   4.899  15.973 -0.6218 -0.3469 -0.0954
19645TIP3    H180350   3.895   4.925  16.064 -2.3963 -1.1170  0.2985
19645TIP3    H280351   3.793   4.884  15.960 -0.6631  1.7585 -2.5984
19646TIP3   OH280352   1.523   3.221  11.598  0.0139  0.1178  0.5417
19646TIP3    H180353   1.588   3.257  11.538 -1.3072  0.9945 -0.3867
19646TIP3    H280354   1.570   3.154  11.648  1.5758  0.6422 -0.2206
19647TIP3   OH280355   1.780   4.175  15.784 -0.4372  0.0359  0.2272
19647TIP3    H180356   1.809   4.094  15.742 -2.6199 -1.7705  2.1248
19647TIP3    H280357   1.798   4.243  15.719  2.0485 -1.8538 -1.1326
19648TIP3   OH280358   3.996   1.651  16.161  0.5330  0.0245 -0.0276
19648TIP3    H180359   3.945   1.587  16.110  2.4402  0.4007 -2.5372
19648TIP3    H280360   3.944   1.731  16.157 -0.3547 -0.5227  0.4226
19649TIP3   OH280361   3.212   3.643   3.085 -0.3698  0.2296  0.0277
19649TIP3    H180362   3.142   3.615   3.144 -0.0844 -0.9811 -0.1854
19649TIP3    H280363   3.210   3.738   3.088  0.6704  0.1975  3.2377
19650TIP3   OH280364   3.018   6.384  12.611  0.4880  0.1545 -0.3456
19650TIP3    H180365   3.010   6.290  12.596  0.8134 -0.1664  1.4523
19650TIP3    H280366   2.955   6.423  12.550 -1.2785 -1.3280  0.4772
19651TIP3   OH280367   5.756   0.805  13.732  0.3601 -0.1924  0.2480
19651TIP3    H180368   5.823   0.740  13.712  0.6644  0.3075 -0.3543
19651TIP3    H280369   5.802   0.874  13.780  0.1181 -0.2196  0.5243
19652TIP3   OH280370   0.541   1.241  15.138  0.5600 -0.4753 -0.1454
19652TIP3    H180371   0.632   1.264  15.160 -0.5528  2.9903  1.0706
19652TIP3    H280372   0.518   1.172  15.200  2.0382 -0.7183  0.1552
19653TIP3   OH280373   4.535   1.943   2.961  0.4364 -0.3018  0.1014
19653TIP3    H180374   4.465   1.940   3.026  0.0199  2.3895 -0.1459
19653TIP3    H280375   4.489   1.947   2.877  0.7647  2.7440 -0.0134
19654TIP3   OH280376   5.335   3.338   5.442 -0.0071 -0.1182 -0.5795
19654TIP3    H180377   5.398   3.267   5.450  0.3453  0.2598  0.0870
19654TIP3    H280378   5.389   3.414   5.417 -0.2264  0.1532 -0.2306
19655TIP3   OH280379   1.806   3.669   5.881 -0.2753  0.3190 -0.2987
19655TIP3    H180380   1.883   3.643   5.831 -0.7759  0.4557 -1.1537
19655TIP3    H280381   1.836   3.671   5.972  0.0829 -2.0274 -0.3370
19656TIP3   OH280382   3.758   4.705  11.440 -0.3185 -0.0268 -0.0992
19656TIP3    H180383   3.718   4.757  11.370  1.5475  0.0273 -1.1749
19656TIP3    H280384   3.703   4.721  11.517 -0.6787  2.3033 -0.8139
19657TIP3   OH280385   2.813   1.377   1.622  0.1755 -0.2222  0.4106
19657TIP3    H180386   2.764   1.341   1.696 -0.4483  0.2038  0.2059
19657TIP3    H280387   2.857   1.301   1.583 -0.2467 -0.5924  0.6535
19658TIP3   OH280388   5.001   4.190  16.602  0.1736  0.2704 -0.4305
19658TIP3    H180389   5.001   4.211  16.508  1.5426  0.6709 -0.3468
19658TIP3    H280390   5.084   4.146  16.617 -0.9856 -1.7695  0.1953
19659TIP3   OH280391   3.214   0.962  11.890 -0.5382 -0.0761 -0.8549
19659TIP3    H180392   3.220   0.914  11.973 -0.5171  0.4629 -0.5477
19659TIP3    H280393   3.155   1.035  11.908  1.0686  1.2092 -0.7650
19660TIP3   OH280394   2.803   4.474  10.601  0.5362 -0.5075  0.0208
19660TIP3    H180395   2.762   4.412  10.540  1.4021 -1.7223  0.6647
19660TIP3    H280396   2.886   4.434  10.624  1.6758  1.5039 -0.5148
19661TIP3   OH280397   2.514   0.627  13.833 -0.2186  0.4568  0.6672
19661TIP3    H180398   2.594   0.667  13.799 -0.1975  0.1982  0.4168
19661TIP3    H280399   2.457   0.617  13.757  0.1410 -0.8681  0.5596
19662TIP3   OH280400   0.496   4.859   0.592  0.2257  0.2863  0.2089
19662TIP3    H180401   0.403   4.838   0.600  0.7961 -2.4496  0.3486
19662TIP3    H280402   0.528   4.858   0.682  0.6088  0.0379  0.0716
19663TIP3   OH280403   0.734   6.005   3.243 -0.0418 -0.0719  0.3446
19663TIP3    H180404   0.652   6.049   3.267 -0.5238 -0.9078  0.2467
19663TIP3    H280405   0.752   5.947   3.316  0.0169 -0.5090 -0.0155
19664TIP3   OH280406   0.920   0.908   3.142 -0.3385  0.5609 -0.2926
19664TIP3    H180407   0.870   0.884   3.220  1.6280  1.2018  1.2116
19664TIP3    H280408   0.920   0.828   3.088  0.2117 -0.6207  1.4116
19665TIP3   OH280409   3.272   4.440   4.368  0.3619  0.4653  0.0838
19665TIP3    H180410   3.313   4.498   4.432  0.5421  1.0928 -0.5986
19665TIP3    H280411   3.295   4.477   4.283  0.3341 -0.5126 -0.3554
19666TIP3   OH280412   6.600   0.971   3.584  0.6881 -0.1628  0.0230
19666TIP3    H180413   6.651   0.921   3.519  0.7794 -0.4511  0.3166
19666TIP3    H280414   6.650   1.052   3.595  0.4657  0.0605 -0.5596
19667TIP3   OH280415   4.093   0.252  12.904  0.0097  0.2070 -0.1837
19667TIP3    H180416   4.003   0.262  12.872 -0.8067  1.6502  2.4412
19667TIP3    H280417   4.114   0.337  12.942  2.2428 -0.3443 -0.1554
19668TIP3   OH280418   6.190   1.273  13.596 -0.1180  0.6126 -0.5872
19668TIP3    H180419   6.165   1.365  13.602  1.0852  0.9210 -0.1842
19668TIP3    H280420   6.257   1.262  13.664 -2.2527 -1.2418  1.3199
19669TIP3   OH280421   2.603   0.403   6.435  0.1881 -0.3954  0.0368
19669TIP3    H180422   2.614   0.311   6.411  1.1388 -0.1692 -0.4141
19669TIP3    H280423   2.687   0.428   6.474 -0.9848 -0.4768  2.6893
19670TIP3   OH280424   1.264   4.588   2.316  0.0135  0.4432  1.5842
19670TIP3    H180425   1.223   4.514   2.273 -1.0531  1.3964  0.9322
19670TIP3    H280426   1.322   4.626   2.250 -0.9538  1.3723  1.2536
19671TIP3   OH280427   4.318   3.249  13.304 -0.4634 -0.2200 -0.1103
19671TIP3    H180428   4.330   3.324  13.363  0.1889  1.4414 -2.3197
19671TIP3    H280429   4.397   3.247  13.251 -0.5402 -2.4156 -0.1844
19672TIP3   OH280430   0.362   2.921   2.360  0.8521 -0.0163  0.3407
19672TIP3    H180431   0.457   2.929   2.371  0.9330 -2.1861  1.6161
19672TIP3    H280432   0.350   2.882   2.273  1.0906  1.0351 -0.1612
19673TIP3   OH280433   6.711   1.029  16.259 -0.0663 -0.0345  0.1015
19673TIP3    H180434   6.616   1.027  16.255 -0.0660  0.1349  0.0203
19673TIP3    H280435   6.739   0.971  16.187 -0.1163 -0.6233  0.5493
19674TIP3   OH280436   3.972   3.259  14.248  0.4844 -0.3394  0.3623
19674TIP3    H180437   3.946   3.239  14.337 -1.8236 -1.6814 -0.5861
19674TIP3    H280438   3.897   3.304  14.210  0.5071 -1.8950 -1.6130
19675TIP3   OH280439   3.748   1.294  14.135  0.5062  0.2674 -0.8577
19675TIP3    H180440   3.712   1.219  14.181 -0.4221  1.0709 -0.2683
19675TIP3    H280441   3.843   1.281  14.139  0.3734 -0.5121 -0.1544
19676TIP3   OH280442   3.555   2.395  15.608  0.1958 -0.2087  0.4982
19676TIP3    H180443   3.474   2.446  15.603  0.3241 -0.0895 -0.3508
19676TIP3    H280444   3.623   2.459  15.626  0.4595  0.0324 -1.2552
19677TIP3   OH280445   0.602   2.471   5.169  0.0836 -0.0428  0.3010
19677TIP3    H180446   0.666   2.408   5.201  0.4921  0.2086 -0.0085
19677TIP3    H280447   0.556   2.500   5.247  0.4992 -0.0630  0.5569
19678TIP3   OH280448   4.547   3.247  15.572  0.5778  0.2631  0.0644
19678TIP3    H180449   4.473   3.269  15.628  1.3342  0.4497  0.9942
19678TIP3    H280450   4.594   3.329  15.559  0.9700  0.0305 -0.0150
19679TIP3   OH280451   2.719   0.932   3.316  0.5918 -0.2918 -0.7486
19679TIP3    H180452   2.647   0.987   3.285  1.4826  0.5506 -1.3594
19679TIP3    H280453   2.684   0.844   3.316 -1.8085  0.5477  2.9470
19680TIP3   OH280454   5.857   3.017   3.421  0.0279  0.2406  0.3044
19680TIP3    H180455   5.895   3.011   3.333  0.5603 -1.1308  0.6059
19680TIP3    H280456   5.779   3.070   3.410  2.0778  3.2411 -0.3353
19681TIP3   OH280457   5.398   4.547  15.993  0.5641  0.1248  0.0820
19681TIP3    H180458   5.391   4.543  15.898  1.3056  1.0735 -0.0202
19681TIP3    H280459   5.309   4.532  16.025  0.1220  0.9206 -0.7876
19682TIP3   OH280460   6.247   2.804   5.645 -0.2361 -0.1162 -0.8695
19682TIP3    H180461   6.290   2.744   5.705 -2.5712 -1.8438 -0.8898
19682TIP3    H280462   6.295   2.794   5.563  0.2436 -0.9193 -0.4990
19683TIP3   OH280463   5.073   2.121  12.058 -0.0011 -0.6897 -0.0662
19683TIP3    H180464   5.165   2.103  12.075 -0.6465 -1.3369  3.1366
19683TIP3    H280465   5.065   2.216  12.063  0.7865 -0.4889 -2.1923
19684TIP3   OH280466   2.478   6.473   5.972  0.1744  0.3868  0.0403
19684TIP3    H180467   2.405   6.512   6.020 -1.5881 -0.7055 -1.6691
19684TIP3    H280468   2.437   6.422   5.902  2.5782 -0.3198 -0.9341
19685TIP3   OH280469   0.075   1.097   0.828 -0.3217  0.0793  0.3050
19685TIP3    H180470   0.149   1.037   0.835 -0.5809 -0.1901  0.7260
19685TIP3    H280471   0.036   1.076   0.743  0.0220  0.1543  0.1249
19686TIP3   OH280472   5.388   3.123   4.202 -0.2634 -0.9732  0.2743
19686TIP3    H180473   5.350   3.193   4.256  3.0482  1.9676 -1.0027
19686TIP3    H280474   5.451   3.080   4.259 -0.8777 -1.6241  0.4628
19687TIP3   OH280475   1.208   2.176  14.010  0.2703 -0.2235  0.3417
19687TIP3    H180476   1.182   2.136  13.927 -1.5238 -0.0508  0.8127
19687TIP3    H280477   1.238   2.102  14.064 -1.1645 -0.6874  0.5061
19688TIP3   OH280478   3.828   4.545  12.647 -0.0922  0.1648  0.3422
19688TIP3    H180479   3.894   4.493  12.602 -1.8042 -2.1680  0.4158
19688TIP3    H280480   3.775   4.582  12.576  0.2018  0.5426  0.3206
19689TIP3   OH280481   4.332   2.954  15.753  0.3469 -0.6586  0.4116
19689TIP3    H180482   4.362   2.888  15.816 -0.9331 -0.6984  0.9981
19689TIP3    H280483   4.387   2.941  15.676  1.6118 -0.9283  1.3457
19690TIP3   OH280484   0.709   2.901  13.907 -0.0630 -0.1279  0.1564
19690TIP3    H180485   0.628   2.853  13.894 -0.5407  0.7821 -0.3409
19690TIP3    H280486   0.696   2.982  13.857  0.2472  1.0504  1.9493
19691TIP3   OH280487   6.277   3.829   0.921  0.1195 -0.2486 -0.4535
19691TIP3    H180488   6.371   3.831   0.941  0.0802  3.2906 -0.1753
19691TIP3    H280489   6.237   3.789   0.998  1.3214 -0.8353 -0.1208
19692TIP3   OH280490   1.791   4.766  16.429 -0.0469  0.0305  0.1698
19692TIP3    H180491   1.799   4.859  16.452 -0.4724  0.1331 -0.1008
19692TIP3    H280492   1.704   4.742  16.459 -1.1787  0.5145 -2.5669
19693TIP3   OH280493   4.094   0.198   5.252  0.0020  0.0995 -0.6244
19693TIP3    H180494   4.008   0.237   5.238 -0.5770 -2.2360 -3.9899
19693TIP3    H280495   4.144   0.267   5.296 -2.2679  3.0562 -2.4778
19694TIP3   OH280496   6.732   3.182  11.385 -0.4133  0.0690 -0.1084
19694TIP3    H180497   6.689   3.224  11.460  0.0247 -0.8552  0.6785
19694TIP3    H280498   6.665   3.125  11.348 -0.6867  0.6640 -0.5331
19695TIP3   OH280499   4.692   3.700   6.315  0.3354 -0.1850  0.3409
19695TIP3    H180500   4.710   3.620   6.365 -0.7195  0.0826  1.1750
19695TIP3    H280501   4.604   3.726   6.344  0.5077  1.0447 -0.2452
19696TIP3   OH280502   4.156   0.621  11.464  0.0201 -0.0030  0.1039
19696TIP3    H180503   4.120   0.681  11.529  1.9510  1.0456  0.2537
19696TIP3    H280504   4.243   0.601  11.497  1.3741  1.2243 -2.5539
19697TIP3   OH280505   2.022   0.329  14.126  0.1706  0.0351 -0.4459
19697TIP3    H180506   1.939   0.309  14.082 -0.2196  0.2370  0.2005
19697TIP3    H280507   1.997   0.382  14.201  0.7104 -1.2831  0.6941
19698TIP3   OH280508   4.745   6.267   5.060  0.4096 -0.4112 -0.7323
19698TIP3    H180509   4.814   6.233   5.003  1.0697  1.6925 -1.2345
19698TIP3    H280510   4.738   6.203   5.130  2.1147 -1.2026 -1.2602
19699TIP3   OH280511   5.587   2.672   5.235 -0.0992  0.2350 -0.1925
19699TIP3    H180512   5.649   2.665   5.162 -1.2149 -1.2214 -1.0439
19699TIP3    H280513   5.521   2.735   5.206  0.4076  0.9957  0.2896
19700TIP3   OH280514   5.911   1.948   1.895 -0.1253 -0.1209  0.0692
19700TIP3    H180515   5.936   1.961   1.803  1.5047  0.7068  0.6246
19700TIP3    H280516   5.849   2.019   1.913 -1.7558 -1.2848 -0.8708
19701TIP3   OH280517   1.398   0.138  15.149 -0.5468 -0.3124 -0.3494
19701TIP3    H180518   1.459   0.065  15.157  0.9687  0.7126 -2.0624
19701TIP3    H280519   1.444   0.212  15.190 -0.9728  0.2652 -0.8999
19702TIP3   OH280520   4.231   4.753  16.886  0.3579  0.0207  0.1939
19702TIP3    H180521   4.226   4.657  16.883  0.3810  0.0484 -1.0398
19702TIP3    H280522   4.324   4.771  16.899  0.4182 -0.1239 -0.0263
19703TIP3   OH280523   6.428   4.327  11.124  0.4914  0.5437 -0.3152
19703TIP3    H180524   6.439   4.256  11.061  1.5375  1.2438 -0.9383
19703TIP3    H280525   6.368   4.292  11.190  0.4564 -0.6680 -0.9799
19704TIP3   OH280526   1.643   0.076  12.540 -0.4259  0.2140 -0.0410
19704TIP3    H180527   1.553   0.104  12.526  0.0578  1.3258 -0.9997
19704TIP3    H280528   1.674   0.127  12.614 -0.3772  0.3060 -0.1242
19705TIP3   OH280529   1.267   2.752  13.664 -0.6599  0.0979 -0.3370
19705TIP3    H180530   1.200   2.817  13.684  0.7041  1.1342  0.9272
19705TIP3    H280531   1.290   2.715  13.749  1.0619  0.4304 -0.6485
19706TIP3   OH280532   6.425   4.356  13.789  0.0865  0.3031  0.5939
19706TIP3    H180533   6.386   4.382  13.705  0.1980 -0.3886  0.3237
19706TIP3    H280534   6.365   4.289  13.823  0.0343  0.5923  1.0775
19707TIP3   OH280535   2.727   1.591   4.288 -0.0788  0.0399 -0.0200
19707TIP3    H180536   2.689   1.676   4.268 -1.4118 -0.5044  0.0911
19707TIP3    H280537   2.784   1.572   4.214 -2.0326 -0.2629 -1.4869
19708TIP3   OH280538   3.962   5.822  11.516  0.2947 -0.0085  0.1931
19708TIP3    H180539   4.022   5.888  11.481 -1.1953  1.4387  0.2685
19708TIP3    H280540   3.876   5.866  11.516 -0.6541 -1.8164  0.6342
19709TIP3   OH280541   4.788   4.030  14.446  0.0670 -0.0023  0.0176
19709TIP3    H180542   4.809   3.966  14.379 -1.2167 -0.6028  0.1730
19709TIP3    H280543   4.826   3.994  14.526  0.0142 -0.1854 -0.0403
19710TIP3   OH280544   2.525   6.056   0.340  0.1143  0.2033  0.3295
19710TIP3    H180545   2.502   5.999   0.413  0.9860  1.2481  1.4341
19710TIP3    H280546   2.441   6.086   0.306 -0.3292 -1.1562  0.1900
19711TIP3   OH280547   0.635   5.747   2.288  0.0161  0.2535  0.0674
19711TIP3    H180548   0.729   5.734   2.279  0.2410  2.2029 -0.4607
19711TIP3    H280549   0.601   5.659   2.307  2.0444 -0.3087  1.2922
19712TIP3   OH280550   0.149   4.148  17.175  0.0703 -0.4374 -0.3689
19712TIP3    H180551   0.151   4.054  17.188 -2.4176 -0.2890  1.5493
19712TIP3    H280552   0.059   4.167  17.149  0.2781  1.5107  0.2384
19713TIP3   OH280553   5.113   1.982   6.558  0.2250 -0.6066  0.6283
19713TIP3    H180554   5.155   2.010   6.640 -0.8477 -3.6334  2.2864
19713TIP3    H280555   5.183   1.938   6.510  0.3442 -0.6894  0.8749
19714TIP3   OH280556   0.033   2.495  11.978  0.4176  0.3303 -0.1152
19714TIP3    H180557   0.007   2.437  11.906 -1.2525  1.0090 -0.0897
19714TIP3    H280558   0.047   2.580  11.936  0.2365  0.5324  0.2315
19715TIP3   OH280559   1.785   1.763   6.881  0.3401 -0.0890 -0.5407
19715TIP3    H180560   1.822   1.696   6.823 -0.1495 -0.9930  0.1670
19715TIP3    H280561   1.762   1.835   6.823 -0.6792 -1.2117 -1.5691
19716TIP3   OH280562   5.276   1.389  15.590 -0.3549 -0.1415  0.8923
19716TIP3    H180563   5.233   1.458  15.540 -2.3669 -1.8094  0.2369
19716TIP3    H280564   5.352   1.364  15.537  0.0181  1.1091  0.8258
19717TIP3   OH280565   0.955   0.962   3.792  0.1456 -0.1156  0.1391
19717TIP3    H180566   1.014   0.896   3.756  0.8170  0.2881  0.4921
19717TIP3    H280567   0.867   0.932   3.767  0.5988  0.2018 -1.9161
19718TIP3   OH280568   3.980   6.771  13.323 -0.2313  0.0978 -0.6730
19718TIP3    H180569   3.986   6.690  13.273 -0.0928 -1.0082  1.1216
19718TIP3    H280570   4.071   6.794  13.342 -0.2910  0.4427 -0.7982
19719TIP3   OH280571   1.887   1.884   4.048  0.4591  0.2836  0.4072
19719TIP3    H180572   1.860   1.968   4.010  2.1006  1.1180  1.0226
19719TIP3    H280573   1.860   1.889   4.139 -1.2379 -0.6943 -0.0274
19720TIP3   OH280574   2.550   3.676  14.556 -0.1653  0.5420  0.0358
19720TIP3    H180575   2.479   3.654  14.496 -0.7122  0.7621  0.6040
19720TIP3    H280576   2.630   3.665  14.504 -0.4925 -1.5914 -0.0559
19721TIP3   OH280577   0.112   0.283  13.856  0.2529  0.2452 -0.4933
19721TIP3    H180578   0.178   0.338  13.815 -0.5918  1.4456 -0.2800
19721TIP3    H280579   0.029   0.328  13.839 -0.7081 -1.9807 -2.0510
19722TIP3   OH280580   4.958   4.656  14.906  0.6703 -0.3163  0.0249
19722TIP3    H180581   4.991   4.567  14.907  0.5758 -0.4007 -2.1552
19722TIP3    H280582   4.905   4.661  14.827  0.4936  1.6019  0.2410
19723TIP3   OH280583   5.709   3.253  14.671 -0.4242 -0.1484  0.2641
19723TIP3    H180584   5.784   3.232  14.616 -1.3404 -2.1376 -0.2698
19723TIP3    H280585   5.722   3.345  14.695  1.7243 -0.2249 -0.5027
19724TIP3   OH280586   6.732   5.232  14.990 -0.2977 -0.1094  0.0557
19724TIP3    H180587   6.776   5.311  14.958  0.7600 -0.4628  0.6218
19724TIP3    H280588   6.639   5.254  14.986  0.0052  1.3764  0.7271
19725TIP3   OH280589   4.022   3.255  13.339 -0.0373  0.0341  0.2822
19725TIP3    H180590   4.000   3.327  13.398  0.2974 -0.1494  0.6326
19725TIP3    H280591   4.005   3.290  13.251 -1.7962 -0.1231  0.5323
19726TIP3   OH280592   0.673   4.542   2.154  0.2617 -0.4035 -0.0764
19726TIP3    H180593   0.710   4.578   2.073 -0.7783 -0.2132 -0.4657
19726TIP3    H280594   0.612   4.609   2.183 -2.0475 -2.0483 -1.0417
19727TIP3   OH280595   0.620   0.876  11.314 -0.5595  0.3913 -0.1843
19727TIP3    H180596   0.683   0.940  11.280  0.7810 -0.9240 -0.2025
19727TIP3    H280597   0.607   0.815  11.242 -0.9838  0.0040  0.2239
19728TIP3   OH280598   0.158   6.380  12.334  0.0171 -0.4405  0.1689
19728TIP3    H180599   0.143   6.366  12.240 -0.6033 -1.6261  0.4393
19728TIP3    H280600   0.179   6.293  12.368  0.7936  0.0813  1.0372
19729TIP3   OH280601   6.157   5.865  12.866  0.1702 -0.5746 -0.1406
19729TIP3    H180602   6.106   5.845  12.788 -2.8311  1.2368  1.2760
19729TIP3    H280603   6.183   5.780  12.901 -2.7950 -1.6155 -0.3493
19730TIP3   OH280604   4.074   1.600  17.065  0.6384 -0.1555  0.0636
19730TIP3    H180605   4.083   1.654  16.987  0.4103  0.2780  0.3360
19730TIP3    H280606   4.106   1.514  17.039 -0.9179 -0.4457 -0.9812
19731TIP3   OH280607   2.350   0.395   3.277 -0.2570  0.0860  0.1108
19731TIP3    H180608   2.442   0.397   3.304 -0.3771  0.5404  0.4807
19731TIP3    H280609   2.301   0.424   3.354 -0.3995  4.2878 -1.3931
19732TIP3   OH280610   3.936   1.902   2.873  0.1403  0.3829 -0.0466
19732TIP3    H180611   3.901   1.813   2.876 -0.6647  0.6357 -1.5353
19732TIP3    H280612   3.869   1.952   2.826  0.6455  1.7483  0.6636
19733TIP3   OH280613   4.951   2.492   0.616 -0.1338  0.3103 -0.2967
19733TIP3    H180614   4.881   2.553   0.638  1.4183  1.8209  0.5590
19733TIP3    H280615   5.031   2.545   0.616  1.4582 -1.9736  1.7922
19734TIP3   OH280616   3.374   6.356   2.925 -1.1304  0.3801  0.0057
19734TIP3    H180617   3.410   6.445   2.936 -2.6250  1.1211 -0.9403
19734TIP3    H280618   3.283   6.363   2.954 -1.1460 -0.9550  0.3112
19735TIP3   OH280619   0.993   1.629   3.740 -0.3403 -0.5107 -0.0405
19735TIP3    H180620   0.986   1.555   3.679 -0.9137 -1.0235  0.6417
19735TIP3    H280621   0.930   1.693   3.707 -1.8265 -1.4475  0.9317
19736TIP3   OH280622   3.267   5.241   2.039 -0.0233  0.3212  0.0144
19736TIP3    H180623   3.202   5.190   1.991 -1.5041  0.2475  2.0145
19736TIP3    H280624   3.315   5.289   1.972 -1.0004 -0.9490 -1.6247
19737TIP3   OH280625   5.052   4.834   1.537 -0.2182  0.3461 -0.2392
19737TIP3    H180626   5.142   4.850   1.566  0.3748 -0.0242 -1.7954
19737TIP3    H280627   5.042   4.891   1.460 -1.7124  1.2622  0.6103
19738TIP3   OH280628   4.228   4.623   2.336  0.0628 -0.6995 -0.0112
19738TIP3    H180629   4.185   4.671   2.265 -0.2811 -2.2484 -0.8711
19738TIP3    H280630   4.315   4.662   2.343 -0.5450  0.6807 -0.0559
19739TIP3   OH280631   2.444   1.611   3.311  0.4273  0.6801 -0.7306
19739TIP3    H180632   2.533   1.592   3.340 -1.0711 -2.6236  2.1439
19739TIP3    H280633   2.402   1.649   3.388 -1.4924 -0.8650 -0.9710
19740TIP3   OH280634   6.306   2.667   1.883  0.5778  0.2227  0.2230
19740TIP3    H180635   6.288   2.641   1.792  0.2945  0.0303  0.3334
19740TIP3    H280636   6.221   2.691   1.918  0.8766  1.6007  0.0356
19741TIP3   OH280637   0.730   6.748   3.539 -0.1517  0.8574  0.0553
19741TIP3    H180638   0.643   6.709   3.545 -0.2086  0.8927 -0.5219
19741TIP3    H280639   0.719   6.837   3.573 -0.0463  0.4241  1.2633
19742TIP3   OH280640   3.353   2.403  13.213  0.6477 -0.5025 -0.0262
19742TIP3    H180641   3.307   2.328  13.176 -1.3867  0.6636  0.0342
19742TIP3    H280642   3.338   2.397  13.307  1.5666 -0.7315  0.1027
19743TIP3   OH280643   1.529   4.600   1.034  0.0756 -0.5163 -0.1338
19743TIP3    H180644   1.437   4.626   1.032 -0.7445 -3.3634 -2.9997
19743TIP3    H280645   1.529   4.518   1.084  1.1811 -0.1936  0.4058
19744TIP3   OH280646   1.516   6.083   4.615 -0.2105  0.4106 -0.1999
19744TIP3    H180647   1.568   6.006   4.638  0.5222  1.1865  0.8017
19744TIP3    H280648   1.493   6.122   4.700 -0.9707  1.0352 -0.6865
19745TIP3   OH280649   0.185   2.245   0.821 -0.4535  0.1893  0.8929
19745TIP3    H180650   0.269   2.218   0.859 -0.2225 -1.6086 -0.8145
19745TIP3    H280651   0.200   2.335   0.790  1.1869 -0.5111 -0.3835
19746TIP3   OH280652   0.958   2.701  16.389  0.2301  0.2798  0.2304
19746TIP3    H180653   1.001   2.672  16.469  1.1503  0.0615 -0.3375
19746TIP3    H280654   0.958   2.797  16.396 -0.1988  0.2404  0.7550
19747TIP3   OH280655   4.895   4.905   0.558 -0.2328  0.3375  0.0521
19747TIP3    H180656   4.936   4.981   0.517 -0.3801 -0.1623 -1.0493
19747TIP3    H280657   4.949   4.831   0.531  0.4232  0.1381  1.8393
19748TIP3   OH280658   0.778   1.502  14.836  0.4420 -0.3546  0.1063
19748TIP3    H180659   0.850   1.561  14.857 -0.2348  0.6424 -0.2952
19748TIP3    H280660   0.701   1.560  14.828 -0.2513 -1.2978 -0.1948
19749TIP3   OH280661   4.920   4.322   5.187  0.1849 -0.2784  0.7381
19749TIP3    H180662   4.891   4.306   5.277  0.9344 -0.6859  0.9096
19749TIP3    H280663   4.853   4.380   5.150 -2.0627 -3.0042  0.4033
19750TIP3   OH280664   0.662   2.129  13.479  0.2112 -0.2691 -0.0126
19750TIP3    H180665   0.745   2.168  13.450 -0.2249  2.0973  1.6986
19750TIP3    H280666   0.609   2.121  13.400  1.5019 -0.3363 -0.8757
19751TIP3   OH280667   6.615   2.610   2.387 -0.3084  0.3680  0.3633
19751TIP3    H180668   6.566   2.671   2.332  0.0561  0.1239 -0.2330
19751TIP3    H280669   6.600   2.525   2.347  0.6218  0.2920  0.1703
19752TIP3   OH280670   0.598   4.188   1.383 -0.2620  0.7606  0.5860
19752TIP3    H180671   0.653   4.151   1.314 -1.2007  0.3685  0.0370
19752TIP3    H280672   0.528   4.124   1.395 -0.0714  0.7924  1.9556
19753TIP3   OH280673   3.792   0.952  13.834 -0.1804 -0.5825  0.1091
19753TIP3    H180674   3.748   1.020  13.884  1.9388  3.1934 -2.8741
19753TIP3    H280675   3.723   0.912  13.780 -0.7056  2.7534 -1.8198
19754TIP3   OH280676   0.901   5.322  16.443  0.1686 -0.1699  0.2244
19754TIP3    H180677   0.969   5.265  16.407 -0.1079 -0.2963 -0.0940
19754TIP3    H280678   0.823   5.268  16.447 -0.3791  0.4972 -1.1298
19755TIP3   OH280679   3.654   4.807  16.498 -0.6519  0.0533 -0.1856
19755TIP3    H180680   3.679   4.783  16.408  1.0773  0.6824  0.1118
19755TIP3    H280681   3.581   4.868  16.487 -0.5912 -0.0408 -1.1627
19756TIP3   OH280682   2.953   4.392   6.553 -0.5889  0.1424  0.1932
19756TIP3    H180683   2.960   4.357   6.642 -0.2520  0.4350  0.2821
19756TIP3    H280684   3.021   4.346   6.504 -2.3195 -1.7937 -0.5036
19757TIP3   OH280685   6.290   4.465  13.560 -0.3285 -0.2707  0.1114
19757TIP3    H180686   6.290   4.416  13.478 -2.1955  0.3858 -0.3171
19757TIP3    H280687   6.204   4.447  13.599 -0.6753  1.8711  0.4041
19758TIP3   OH280688   0.505   1.731  10.842  0.1710  0.0607 -0.2669
19758TIP3    H180689   0.454   1.810  10.862 -1.1777 -0.5582 -1.1555
19758TIP3    H280690   0.508   1.728  10.746 -1.1094 -1.7444 -0.2928
19759TIP3   OH280691   3.902   2.866   2.085  0.5167  0.0591  0.4254
19759TIP3    H180692   3.876   2.887   1.995  1.1805  2.3975  0.7365
19759TIP3    H280693   3.995   2.885   2.088  0.8527 -1.6429  1.1776
19760TIP3   OH280694   3.370   4.607  11.983 -0.5389  0.1804  0.2498
19760TIP3    H180695   3.349   4.608  11.890  0.8471  0.6798 -0.0621
19760TIP3    H280696   3.449   4.553  11.990 -0.1209  0.8725  1.0135
19761TIP3   OH280697   4.946   3.273  15.522 -0.0673 -0.1903 -0.1728
19761TIP3    H180698   5.028   3.229  15.500  0.8335  0.5996  1.4576
19761TIP3    H280699   4.920   3.234  15.606  0.3560  1.7951  0.9324
19762TIP3   OH280700   2.282   0.357   2.614 -0.2869  0.5506 -0.1893
19762TIP3    H180701   2.338   0.301   2.562 -1.9452 -0.8888 -0.4747
19762TIP3    H280702   2.263   0.307   2.693  0.3402  1.7913  0.7744
19763TIP3   OH280703   2.099   0.431  11.010 -0.0274 -0.3518 -0.6968
19763TIP3    H180704   2.138   0.497  11.067 -0.3781 -0.6176 -0.1529
19763TIP3    H280705   2.059   0.482  10.939 -0.5742  0.0377 -0.1143
19764TIP3   OH280706   2.451   0.480   4.560 -0.1784  0.4921 -0.0848
19764TIP3    H180707   2.404   0.525   4.630 -2.6054 -0.3907 -1.0531
19764TIP3    H280708   2.422   0.523   4.480 -0.0057 -0.6327 -0.7716
19765TIP3   OH280709   5.803   4.254  10.586  0.6054 -0.4623 -0.2003
19765TIP3    H180710   5.804   4.252  10.682 -1.4142  0.8383 -0.1300
19765TIP3    H280711   5.834   4.342  10.564 -1.5729  0.2164 -0.6471
19766TIP3   OH280712   1.564   2.638   3.690 -0.0953  0.2422 -0.2732
19766TIP3    H180713   1.543   2.556   3.734 -0.7175  0.3270 -0.4000
19766TIP3    H280714   1.656   2.654   3.710 -0.6180  0.7974  1.8282
19767TIP3   OH280715   6.289   6.127  11.111  0.4821 -0.4945  0.2353
19767TIP3    H180716   6.304   6.066  11.183  1.3794  1.8120  2.0740
19767TIP3    H280717   6.194   6.143  11.113  0.3640 -1.1764  0.2784
19768TIP3   OH280718   5.085   5.654  14.348 -0.0133 -0.3563 -0.1303
19768TIP3    H180719   5.135   5.731  14.322 -0.8690 -0.2547 -1.5423
19768TIP3    H280720   5.122   5.583  14.295  1.1536 -1.0639  1.5674
19769TIP3   OH280721   5.246   5.230  11.683 -0.0985  0.1864  0.3513
19769TIP3    H180722   5.224   5.141  11.654  0.9521 -0.2554  0.8966
19769TIP3    H280723   5.231   5.284  11.606  1.2557 -0.7703 -0.6086
19770TIP3   OH280724   4.822   3.627  16.011 -0.1904  0.3847  0.3304
19770TIP3    H180725   4.741   3.678  16.020 -0.2669 -0.0199  1.9732
19770TIP3    H280726   4.850   3.644  15.921 -0.7409  2.5594  0.5311
19771TIP3   OH280727   6.177   4.377   4.729 -0.5828  1.1671 -0.0821
19771TIP3    H180728   6.168   4.469   4.703 -0.2759  0.9354 -1.0032
19771TIP3    H280729   6.260   4.373   4.777 -1.1825  1.6055  1.0148
19772TIP3   OH280730   2.228   0.047  17.112 -0.6159  1.2516 -0.4012
19772TIP3    H180731   2.251   0.134  17.145  0.6448  1.3242 -1.4560
19772TIP3    H280732   2.139   0.032  17.145  0.0910  1.8861  1.8709
19773TIP3   OH280733   1.192   0.352  15.256 -0.2720  0.1545 -0.7173
19773TIP3    H180734   1.177   0.266  15.216 -0.3747 -0.3511  0.3758
19773TIP3    H280735   1.158   0.415  15.193 -3.5559 -0.7674  0.0095
19774TIP3   OH280736   3.449   0.117  16.024 -0.2861  0.0318  0.0527
19774TIP3    H180737   3.476   0.073  16.105 -0.2103 -1.3519 -0.7018
19774TIP3    H280738   3.356   0.134  16.036 -0.3340 -0.4054  0.3367
19775TIP3   OH280739   2.811   3.901  14.526  0.4959 -0.2555 -0.1254
19775TIP3    H180740   2.803   3.882  14.619 -1.1797 -0.6461 -0.3375
19775TIP3    H280741   2.830   3.816  14.485  3.3689  0.2425  0.0720
19776TIP3   OH280742   6.267   2.566  11.622  0.9962 -0.1084 -0.8032
19776TIP3    H180743   6.269   2.615  11.540 -0.9922 -0.7976 -1.2872
19776TIP3    H280744   6.174   2.554  11.640  1.4306 -0.6960  1.1195
19777TIP3   OH280745   0.073   2.235  12.986 -0.4385  0.2400 -0.0466
19777TIP3    H180746   0.133   2.263  13.055  3.0383 -0.1932 -2.7381
19777TIP3    H280747   0.024   2.315  12.964  1.9286  1.6338 -0.4384
19778TIP3   OH280748   3.531   0.418   5.624  0.2933  0.0946 -0.5166
19778TIP3    H180749   3.441   0.429   5.592  1.2905  1.3345 -3.0180
19778TIP3    H280750   3.577   0.496   5.593  2.2316 -0.4545  0.8635
19779TIP3   OH280751   3.324   2.399   3.906  0.4320  0.3761  0.0346
19779TIP3    H180752   3.252   2.345   3.935  0.2059 -0.4896 -2.0712
19779TIP3    H280753   3.361   2.436   3.986 -1.7039  0.0341  1.1882
19780TIP3   OH280754   3.010   1.879   4.920  0.1134 -0.8722  0.6319
19780TIP3    H180755   3.051   1.848   5.000  2.6902  1.1859  0.2049
19780TIP3    H280756   2.959   1.955   4.946  1.0042 -0.1623  0.3375
19781TIP3   OH280757   4.805   3.478  16.815  0.3238 -0.2220 -0.1723
19781TIP3    H180758   4.750   3.534  16.760  0.6491 -0.5012 -0.7994
19781TIP3    H280759   4.773   3.390  16.799  1.7944 -0.5418 -1.5984
19782TIP3   OH280760   6.766   4.374  13.312 -0.3017 -0.0235  0.4210
19782TIP3    H180761   6.680   4.412  13.296 -0.2135 -0.2039 -0.5629
19782TIP3    H280762   6.761   4.337  13.400 -1.1820  0.0962  0.4231
19783TIP3   OH280763   4.735   3.792  13.808  0.6160 -0.4210 -0.1229
19783TIP3    H180764   4.801   3.733  13.771  0.8990 -0.6505  0.7139
19783TIP3    H280765   4.737   3.869  13.752  1.8419 -0.2943  0.0842
19784TIP3   OH280766   6.532   2.470   4.528 -0.5170  0.2128  0.2073
19784TIP3    H180767   6.463   2.506   4.473 -0.7935  0.4518  0.7048
19784TIP3    H280768   6.531   2.376   4.510 -1.5425  0.0960  0.8503
19785TIP3   OH280769   2.934   0.795  14.549  0.0465  0.2233  0.1986
19785TIP3    H180770   2.978   0.842  14.620 -2.0927  0.7418  1.2050
19785TIP3    H280771   2.899   0.716  14.591  0.8823 -0.6969 -0.8145
19786TIP3   OH280772   1.479   5.245   4.972  0.1535 -0.2218 -0.7673
19786TIP3    H180773   1.504   5.161   5.010  0.6383  0.4151  0.3294
19786TIP3    H280774   1.561   5.281   4.937  0.5258  1.1659  1.4684
19787TIP3   OH280775   0.912   3.266  13.008 -0.7967  0.6970  0.4246
19787TIP3    H180776   0.868   3.318  12.941  0.6009  0.7040 -0.5060
19787TIP3    H280777   0.940   3.186  12.963  0.0304  0.6365  1.0304
19788TIP3   OH280778   1.227   5.482  11.594 -0.2815  0.1684 -0.1835
19788TIP3    H180779   1.319   5.456  11.584 -0.8081 -1.8706 -0.0213
19788TIP3    H280780   1.186   5.457  11.511 -0.5275  1.8220 -0.5620
19789TIP3   OH280781   6.218   2.223  12.511 -0.3708 -0.0900 -0.0234
19789TIP3    H180782   6.144   2.182  12.466 -0.4863 -0.9846  0.9467
19789TIP3    H280783   6.212   2.190  12.601  0.8375  0.3287  0.2211
19790TIP3   OH280784   1.314   1.623  12.368  0.4485  0.1160 -0.4929
19790TIP3    H180785   1.318   1.547  12.311  0.2802  0.5808 -1.1198
19790TIP3    H280786   1.236   1.608  12.422  0.5692 -0.2837 -0.4268
19791TIP3   OH280787   3.091   0.186  14.756  0.2189  0.3316 -0.0051
19791TIP3    H180788   3.144   0.118  14.797  0.5617 -0.2270 -1.3422
19791TIP3    H280789   3.012   0.139  14.726  0.1122  0.6761 -0.2578
19792TIP3   OH280790   0.229   2.060  16.495  0.5405 -0.0594 -0.1087
19792TIP3    H180791   0.143   2.034  16.528  0.2146 -0.2084 -1.0682
19792TIP3    H280792   0.271   2.102  16.570  0.4237 -1.8224  0.9661
19793TIP3   OH280793   5.139   4.251   2.608  0.2520  0.6722  0.4299
19793TIP3    H180794   5.066   4.235   2.548 -0.2722  1.4594  0.8510
19793TIP3    H280795   5.133   4.180   2.672 -0.2602  0.8487  0.5771
19794TIP3   OH280796   4.065   5.583   1.606  0.1489  0.1885  0.1220
19794TIP3    H180797   4.015   5.603   1.527 -0.0941 -0.9993 -0.0323
19794TIP3    H280798   4.022   5.505   1.642  1.9271 -0.8929 -0.0432
19795TIP3   OH280799   3.202   3.020   3.380 -0.0371 -1.2631 -0.1673
19795TIP3    H180800   3.243   3.000   3.296  3.2712 -1.4442  1.4119
19795TIP3    H280801   3.149   3.098   3.362 -1.5158 -2.8242 -2.9708
19796TIP3   OH280802   6.576   3.223  11.974 -0.1507  0.1674  0.2814
19796TIP3    H180803   6.558   3.182  12.059  2.8171 -0.1545  0.8165
19796TIP3    H280804   6.550   3.156  11.910  1.8938 -1.4667  1.0866
19797TIP3   OH280805   3.748   6.722   2.385 -0.0489  0.4743 -0.5971
19797TIP3    H180806   3.721   6.775   2.311 -0.2131  0.7315 -0.3569
19797TIP3    H280807   3.679   6.735   2.450 -0.3627 -0.4541 -0.7335
19798TIP3   OH280808   0.087   0.586   1.443 -0.0491 -0.1581 -0.7034
19798TIP3    H180809   0.147   0.584   1.368  0.6309 -0.3892 -0.1621
19798TIP3    H280810   0.139   0.624   1.514 -0.4330 -0.6876 -0.1280
19799TIP3   OH280811   5.197   3.944   0.540 -0.2690  0.2498  0.3672
19799TIP3    H180812   5.263   3.886   0.577  0.0995  0.9403  0.7946
19799TIP3    H280813   5.207   3.934   0.445  0.0331 -0.1079  0.4366
19800TIP3   OH280814   0.028   6.072  13.029  0.6333  0.0318  0.0649
19800TIP3    H180815   0.120   6.098  13.018  0.3208  0.9849 -0.3574
19800TIP3    H280816  -0.019   6.155  13.034 -0.2432 -0.4640  0.0111
19801TIP3   OH280817   0.879   3.056   6.040 -0.4750  0.6866 -0.3594
19801TIP3    H180818   0.952   3.064   5.978 -0.1821 -1.7010 -0.3572
19801TIP3    H280819   0.922   3.043   6.125 -0.8852  2.8480  0.1948
19802TIP3   OH280820   6.547   2.997   5.375 -0.0502  0.0589  0.5201
19802TIP3    H180821   6.616   2.960   5.430  1.4986  1.2734 -0.5620
19802TIP3    H280822   6.534   3.085   5.409  1.8555  1.2897 -1.8509
19803TIP3   OH280823   5.823   0.013  13.433 -0.1324 -0.7533 -0.0951
19803TIP3    H180824   5.774   0.090  13.403  0.4323 -0.2073  0.3684
19803TIP3    H280825   5.760  -0.039  13.481  0.3220  1.1808  2.6936
19804TIP3   OH280826   0.416   4.688  11.961  0.2068 -0.1241  0.3537
19804TIP3    H180827   0.467   4.767  11.942 -0.1168 -0.3779 -1.7163
19804TIP3    H280828   0.327   4.710  11.936  0.2630 -1.4116 -1.0801
19805TIP3   OH280829   5.914   3.572   5.554 -0.6148  0.2448  0.3839
19805TIP3    H180830   5.985   3.620   5.511 -1.4210  1.8040  0.7582
19805TIP3    H280831   5.958   3.502   5.603  0.6939  1.3547  0.8276
19806TIP3   OH280832   1.964   2.405  16.645 -0.5844 -0.0258 -0.4537
19806TIP3    H180833   2.018   2.466  16.595 -4.5778  4.6420  0.5899
19806TIP3    H280834   1.893   2.380  16.585 -1.5031  0.0138  0.5918
19807TIP3   OH280835   4.842   6.454   0.320 -0.2823  0.5955  0.4593
19807TIP3    H180836   4.930   6.488   0.340  0.0665 -0.7098  1.2506
19807TIP3    H280837   4.858   6.382   0.259 -0.7107 -0.1694  1.2290
19808TIP3   OH280838   6.217   1.096   4.906  0.1980  0.9921  0.1383
19808TIP3    H180839   6.282   1.033   4.937 -1.4779 -1.8484 -1.8382
19808TIP3    H280840   6.242   1.179   4.946  2.8218 -0.8073  2.3829
19809TIP3   OH280841   6.361   4.770  16.533 -0.1874 -0.5148  0.4009
19809TIP3    H180842   6.273   4.797  16.507 -0.0601  0.7562  1.2699
19809TIP3    H280843   6.346   4.696  16.592 -0.6172 -0.9571 -0.2429
19810TIP3   OH280844   4.706   1.172   1.589 -0.3083 -0.4458 -0.0816
19810TIP3    H180845   4.747   1.117   1.522  1.2900  0.9789 -0.3044
19810TIP3    H280846   4.774   1.187   1.654 -0.9494  0.6356  0.3643
19811TIP3   OH280847   5.799   1.402  11.951  0.2496  0.1372  0.4380
19811TIP3    H180848   5.870   1.452  11.992 -0.0668  0.7537  0.2520
19811TIP3    H280849   5.801   1.317  11.994  2.2809 -0.4879 -0.8440
19812TIP3   OH280850   3.864   4.683  14.855 -1.3066  0.2320  0.6016
19812TIP3    H180851   3.853   4.771  14.891 -0.1661  1.6676 -2.3550
19812TIP3    H280852   3.788   4.669  14.800 -0.6486  0.0646 -0.2767
19813TIP3   OH280853   0.845   1.474   1.515  0.6370  0.4085  0.1398
19813TIP3    H180854   0.924   1.421   1.519  0.5725  0.2522 -0.5476
19813TIP3    H280855   0.776   1.413   1.490  0.1473  0.3918  1.5055
19814TIP3   OH280856   6.324   5.777  14.747 -0.8319 -0.3158 -0.0780
19814TIP3    H180857   6.408   5.778  14.792 -0.5649 -0.5964 -0.5599
19814TIP3    H280858   6.305   5.685  14.733 -2.3488 -0.3464  2.0788
19815TIP3   OH280859   0.787   3.320  12.071  0.3730 -0.3872  0.3368
19815TIP3    H180860   0.698   3.298  12.097  0.6086 -1.0366  0.6099
19815TIP3    H280861   0.789   3.415  12.069 -0.0542 -0.3513  1.3085
19816TIP3   OH280862   4.640   5.695   1.821 -0.0516 -0.2467 -0.5255
19816TIP3    H180863   4.575   5.741   1.768  1.3569  1.3781 -0.8890
19816TIP3    H280864   4.653   5.611   1.777  0.0768  0.5273 -1.9802
19817TIP3   OH280865   5.951   1.980   1.597  0.3371 -0.1918  0.2846
19817TIP3    H180866   5.920   2.053   1.545  0.8968 -0.4929 -0.4755
19817TIP3    H280867   5.941   1.903   1.540  1.9584 -0.3662  0.2154
19818TIP3   OH280868   3.816   4.403   4.215  0.1372 -0.3353 -0.5745
19818TIP3    H180869   3.779   4.324   4.174 -1.3471 -0.0816  0.2278
19818TIP3    H280870   3.745   4.467   4.211  1.3730  1.0054 -1.3010
19819TIP3   OH280871   1.884   1.953   4.712 -0.2830 -0.6878  0.2441
19819TIP3    H180872   1.885   1.858   4.698  2.0661 -0.7176  0.4244
19819TIP3    H280873   1.900   1.964   4.805  0.4383 -0.1144  0.0608
19820TIP3   OH280874   5.817   0.448   3.391  0.1036 -0.1494  0.5001
19820TIP3    H180875   5.804   0.534   3.432  2.1353  0.6289 -0.4322
19820TIP3    H280876   5.784   0.386   3.456 -0.9669  1.3055  1.3811
19821TIP3   OH280877   5.221   0.882   4.534  0.5257 -0.1062  0.2084
19821TIP3    H180878   5.260   0.874   4.447  0.0671 -1.1476  0.0855
19821TIP3    H280879   5.291   0.859   4.594  0.7052  0.1245  0.0874
19822TIP3   OH280880   5.721   5.959  11.651 -0.0902  0.1812 -0.2866
19822TIP3    H180881   5.636   5.952  11.607 -1.5837 -0.2369  2.5659
19822TIP3    H280882   5.746   6.051  11.640 -1.7777  0.7392  0.3350
19823TIP3   OH280883   4.907   4.879   4.648 -0.4319  0.2908  0.0066
19823TIP3    H180884   4.983   4.886   4.590  0.8752 -0.3913  1.5789
19823TIP3    H280885   4.944   4.852   4.732 -2.2666  1.4404  1.2059
19824TIP3   OH280886   2.199   5.369   4.209 -0.4268 -0.6582 -0.1256
19824TIP3    H180887   2.137   5.440   4.226 -1.3165 -1.2446 -0.8376
19824TIP3    H280888   2.236   5.389   4.123  0.5200 -0.2183  0.3721
19825TIP3   OH280889   4.325   6.027   4.060 -0.5216 -0.9297  0.5146
19825TIP3    H180890   4.321   6.103   4.117 -0.1027  0.7933 -1.7140
19825TIP3    H280891   4.257   6.042   3.995  1.4777 -1.0233 -1.6460
19826TIP3   OH280892   5.615   2.891  11.523 -0.6197  0.1068 -0.0876
19826TIP3    H180893   5.704   2.888  11.487 -0.5539  1.3884 -0.0370
19826TIP3    H280894   5.626   2.868  11.615 -0.3407  0.2777 -0.0794
19827TIP3   OH280895   2.755   4.834   3.999 -0.1999  0.6042  0.3548
19827TIP3    H180896   2.754   4.911   3.942 -0.4431 -0.1882 -0.7519
19827TIP3    H280897   2.803   4.861   4.077  2.9056  0.8350 -1.5349
19828TIP3   OH280898   3.503   5.284  12.838  0.2281 -0.5831  0.3025
19828TIP3    H180899   3.526   5.195  12.866 -0.1524 -1.0090 -0.7400
19828TIP3    H280900   3.422   5.274  12.788 -0.3746  0.4843  1.0296
19829TIP3   OH280901   2.250   5.725   2.022  0.0435 -0.1064 -0.1764
19829TIP3    H180902   2.295   5.809   2.033  0.5751 -0.4038 -0.0391
19829TIP3    H280903   2.320   5.664   1.996  0.0991 -1.0467  2.1036
19830TIP3   OH280904   3.600   4.445  11.994 -0.2368  0.3614  0.7238
19830TIP3    H180905   3.660   4.370  11.991 -0.6842  0.0442 -1.6343
19830TIP3    H280906   3.644   4.509  12.049  1.8668 -0.2427 -0.2018
19831TIP3   OH280907   3.573   5.435  13.487 -0.5250 -0.7401 -0.2768
19831TIP3    H180908   3.495   5.438  13.432  1.1390 -2.3814 -2.8178
19831TIP3    H280909   3.575   5.345  13.521  0.2649 -0.7003 -0.2046
19832TIP3   OH280910   3.939   3.160  11.641 -0.5513 -0.1668  0.1209
19832TIP3    H180911   3.944   3.172  11.546  2.0073  1.3341  0.3993
19832TIP3    H280912   3.867   3.216  11.668 -1.0050 -0.2487 -0.8736
19833TIP3   OH280913   0.120   0.498  15.765  0.3212  0.3177 -0.2397
19833TIP3    H180914   0.073   0.526  15.687  1.3350  0.6405 -0.7302
19833TIP3    H280915   0.212   0.515  15.746  0.6502 -0.3753  0.6993
19834TIP3   OH280916   6.750   3.957   2.390 -0.2193 -0.3629  0.6351
19834TIP3    H180917   6.811   3.955   2.317  1.3995  1.2750  1.9025
19834TIP3    H280918   6.669   3.921   2.355  0.8788 -0.6777 -1.6297
19835TIP3   OH280919   4.674   6.392   5.611  0.4870 -0.3243  0.0537
19835TIP3    H180920   4.617   6.318   5.631  0.2518 -0.4054 -0.8708
19835TIP3    H280921   4.637   6.429   5.531  0.0864  1.3209  0.9825
19836TIP3   OH280922   1.158   5.286   3.464 -0.5240 -0.2575  0.0518
19836TIP3    H180923   1.243   5.309   3.501  0.1574  1.1651 -2.3249
19836TIP3    H280924   1.101   5.360   3.485 -0.3616  0.1627 -0.9463
19837TIP3   OH280925   6.426   4.993  14.648 -0.0986 -0.3033 -0.1283
19837TIP3    H180926   6.496   4.942  14.688  0.4896  0.8537  0.3486
19837TIP3    H280927   6.348   4.939  14.658  0.7020 -1.5658 -0.5844
19838TIP3   OH280928   0.900   1.292   4.003 -0.3480  0.3656 -0.0574
19838TIP3    H180929   0.968   1.308   4.068 -2.3624 -0.8109  2.4594
19838TIP3    H280930   0.852   1.375   3.997 -0.9602  0.1011  0.9869
19839TIP3   OH280931   2.806   4.397   5.392 -0.5519  0.4564 -0.0423
19839TIP3    H180932   2.750   4.474   5.388 -0.0366  0.8619  0.5025
19839TIP3    H280933   2.807   4.373   5.484 -2.5836 -1.5971 -0.5093
19840TIP3   OH280934   2.152   4.680  12.343 -0.5617  0.7816  0.2842
19840TIP3    H180935   2.072   4.638  12.312  0.5562 -1.0568 -0.2089
19840TIP3    H280936   2.163   4.649  12.433  1.0468 -1.2346 -0.5573
19841TIP3   OH280937   3.033   0.132   1.876 -0.2103  0.5722  0.5066
19841TIP3    H180938   3.047   0.045   1.915  0.5339  0.0449 -0.9228
19841TIP3    H280939   2.948   0.125   1.833  0.1365  0.3578 -0.1419
19842TIP3   OH280940   3.723   3.752   5.251 -0.1223 -0.1800 -0.1646
19842TIP3    H180941   3.801   3.698   5.243  0.0864  0.1377 -0.2773
19842TIP3    H280942   3.670   3.709   5.319  0.4698 -0.0052  0.4173
19843TIP3   OH280943   4.210   6.127   5.739  0.1785  0.2551 -0.1344
19843TIP3    H180944   4.270   6.052   5.734 -0.0950  0.0685 -0.6264
19843TIP3    H280945   4.123   6.088   5.732 -0.0769  0.3800  1.9260
19844TIP3   OH280946   0.150   5.226  11.445 -0.0970 -0.1977  0.4946
19844TIP3    H180947   0.112   5.312  11.425  0.1291 -0.4795 -1.2729
19844TIP3    H280948   0.163   5.186  11.359  2.1597 -0.9929  1.1918
19845TIP3   OH280949   3.866   3.351  15.790 -0.2675  0.3499 -0.4182
19845TIP3    H180950   3.826   3.438  15.789  0.8877  0.9216  1.1151
19845TIP3    H280951   3.945   3.360  15.737  0.6591  0.6611  0.9783
19846TIP3   OH280952   3.391   4.461   1.709 -0.2853 -0.2843  0.4763
19846TIP3    H180953   3.475   4.471   1.663 -0.7506  0.3117 -0.2581
19846TIP3    H280954   3.415   4.466   1.801  0.4880 -0.0079  0.2743
19847TIP3   OH280955   2.636   3.400   6.017  0.2065 -0.8521 -0.1543
19847TIP3    H180956   2.595   3.486   6.009  3.4243  1.1905  3.7714
19847TIP3    H280957   2.631   3.380   6.111  1.0223 -4.2069 -0.7664
19848TIP3   OH280958   0.921   3.063  12.747 -0.9196  0.2621  0.0466
19848TIP3    H180959   1.006   3.060  12.792  0.1577 -0.8097 -2.0105
19848TIP3    H280960   0.879   2.981  12.770 -1.9454  1.3110  2.0438
19849TIP3   OH280961   4.491   0.665   2.552  0.6259  0.0540  0.0235
19849TIP3    H180962   4.524   0.587   2.596  0.4232  1.0939  2.1236
19849TIP3    H280963   4.416   0.692   2.605  0.0600  1.0879 -1.2743
19850TIP3   OH280964   1.558   4.863   5.279 -0.0462 -0.3483 -0.0434
19850TIP3    H180965   1.469   4.874   5.310 -0.0960  0.9854 -0.5924
19850TIP3    H280966   1.577   4.770   5.290 -1.2042 -0.4827  0.8566
19851TIP3   OH280967   6.554   3.940  12.635 -0.4645  0.4387 -0.1745
19851TIP3    H180968   6.644   3.957  12.662 -0.2332  0.5473 -1.0141
19851TIP3    H280969   6.536   3.851  12.667 -0.6884  1.0982  1.6122
19852TIP3   OH280970   6.301   4.807  13.688  0.4641  0.1559  0.1431
19852TIP3    H180971   6.386   4.833  13.651  0.2796 -0.2441 -0.5625
19852TIP3    H280972   6.246   4.884  13.676 -0.5600 -1.0534 -3.4378
19853TIP3   OH280973   4.709   5.085  15.394  0.0668 -0.1465 -0.2499
19853TIP3    H180974   4.796   5.069  15.358  0.3029  0.6582 -0.0316
19853TIP3    H280975   4.651   5.085  15.318  0.4692  0.8523 -0.5558
19854TIP3   OH280976   2.522   2.711   3.107 -0.1594  0.2255  0.5029
19854TIP3    H180977   2.483   2.736   3.191  1.2618  0.9919  0.9441
19854TIP3    H280978   2.613   2.690   3.128  0.1939  0.3692 -0.8429
19855TIP3   OH280979   1.654   3.122   5.850 -0.2934  0.0098 -0.3343
19855TIP3    H180980   1.676   3.215   5.850 -0.1022 -0.0349 -0.1971
19855TIP3    H280981   1.604   3.109   5.931  1.5818 -0.4479  0.7966
19856TIP3   OH280982   6.660   6.235  17.094 -0.1496 -0.5221  0.5407
19856TIP3    H180983   6.704   6.152  17.109 -0.7594 -0.7816  0.8897
19856TIP3    H280984   6.700   6.295  17.156  0.9366 -0.3286 -0.3440
19857TIP3   OH280985   5.277   3.355  12.313 -0.1711 -0.3132 -0.1504
19857TIP3    H180986   5.212   3.286  12.299 -0.3950 -0.0917 -0.1945
19857TIP3    H280987   5.251   3.395  12.396 -1.1318  0.9332 -1.0240
19858TIP3   OH280988   4.372   4.818  11.282  0.1123  0.3421  0.0259
19858TIP3    H180989   4.401   4.770  11.359  0.2797 -0.5456 -0.5799
19858TIP3    H280990   4.348   4.905  11.315  0.7208  0.1537  0.9786
19859TIP3   OH280991   5.214   5.983  11.606  0.7656 -0.6279 -0.1273
19859TIP3    H180992   5.210   5.887  11.603  0.9150 -0.5668 -2.6085
19859TIP3    H280993   5.123   6.011  11.599  0.7512 -0.5507  0.2938
19860TIP3   OH280994   2.935   5.350  16.739  0.5527 -0.0160 -0.4833
19860TIP3    H180995   2.992   5.349  16.662  0.1065  0.3487 -0.8255
19860TIP3    H280996   2.970   5.281  16.795  2.2238  1.1610 -0.0241
19861TIP3   OH280997   0.126   5.622   1.513  0.8361 -0.5538  0.0410
19861TIP3    H180998   0.218   5.647   1.515  0.8487 -0.6206  0.2839
19861TIP3    H280999   0.087   5.667   1.587  0.6301 -0.3593 -0.1823
19862TIP3   OH281000   1.987   4.689  14.075  0.0566 -0.7421 -0.4662
19862TIP3    H181001   1.954   4.755  14.136  0.5582 -1.1220  0.2172
19862TIP3    H281002   1.983   4.732  13.990 -1.4486 -0.5114 -0.2892
19863TIP3   OH281003   2.539   3.357   4.899 -0.2040 -0.2951 -0.0156
19863TIP3    H181004   2.500   3.347   4.812  0.0423 -1.2565 -0.0230
19863TIP3    H281005   2.632   3.338   4.886 -0.4256 -1.9752  0.7288
19864TIP3   OH281006   4.701   0.451   3.057 -0.2505  0.5199  0.5821
19864TIP3    H181007   4.614   0.430   3.092  0.6698 -2.5718  1.2245
19864TIP3    H281008   4.757   0.457   3.135  0.6023 -0.1576  0.0363
19865TIP3   OH281009   0.541   2.577  14.595  0.5388  0.2849 -0.2657
19865TIP3    H181010   0.517   2.665  14.565  0.8409 -0.2845 -2.2045
19865TIP3    H281011   0.458   2.536  14.618  0.3557  0.9038  0.2183
19866TIP3   OH281012   0.487   2.323   1.856  0.8208  0.3378 -0.1721
19866TIP3    H181013   0.493   2.228   1.845  1.1615  0.6114 -2.5461
19866TIP3    H281014   0.402   2.346   1.818  1.1930  1.1170 -0.5291
19867TIP3   OH281015   2.584   2.232   2.248 -0.4114  0.3865  1.0302
19867TIP3    H181016   2.626   2.240   2.163 -0.2014  0.2085  1.1190
19867TIP3    H281017   2.605   2.144   2.278  0.6536  0.9117  1.8689
19868TIP3   OH281018   2.391   2.489  15.336  0.0490  0.3174  0.1205
19868TIP3    H181019   2.358   2.538  15.260  0.1244  0.9234  0.4754
19868TIP3    H281020   2.474   2.453  15.307  0.2516  0.8501  0.0337
19869TIP3   OH281021   3.233   2.825   4.233  0.1206 -0.6116  0.3490
19869TIP3    H181022   3.198   2.878   4.305  2.2048 -1.3771  1.9638
19869TIP3    H281023   3.262   2.889   4.169  0.7262  0.1778  1.3871
19870TIP3   OH281024   3.606   5.473   4.011  0.0866 -0.2719 -0.1345
19870TIP3    H181025   3.523   5.517   4.027 -0.1424 -1.1645  1.2975
19870TIP3    H281026   3.594   5.428   3.927 -0.5874  0.2632 -0.3286
19871TIP3   OH281027   2.812   0.822   4.360  0.0208 -0.5573 -0.0713
19871TIP3    H181028   2.867   0.751   4.393 -1.4086 -2.0631 -0.7696
19871TIP3    H281029   2.741   0.776   4.313 -0.8764  1.3495 -0.6284
19872TIP3   OH281030   5.151   5.283  13.929 -0.2228 -0.4057  0.3224
19872TIP3    H181031   5.191   5.321  13.851  2.2957  1.6859  2.5592
19872TIP3    H281032   5.057   5.290  13.913  0.2356  1.3174 -1.8689
19873TIP3   OH281033   6.311   1.894   1.306 -0.9902  0.0717  0.1661
19873TIP3    H181034   6.348   1.888   1.394  0.3395 -1.8326 -0.4773
19873TIP3    H281035   6.341   1.978   1.272 -0.8792  0.4767  1.2440
19874TIP3   OH281036   2.174   6.114  16.304  0.0521 -0.1351 -0.0869
19874TIP3    H181037   2.220   6.198  16.303 -0.1916 -0.0101 -2.0951
19874TIP3    H281038   2.224   6.059  16.244 -1.0036 -0.7695 -0.3864
19875TIP3   OH281039   5.976   6.783  14.798 -0.0699  0.5058 -0.4020
19875TIP3    H181040   6.062   6.802  14.760  1.2885 -2.0882  1.2767
19875TIP3    H281041   5.984   6.807  14.890 -0.8549 -0.5763 -0.0416
19876TIP3   OH281042   2.199   3.144   3.259  0.6244  0.0633 -1.3272
19876TIP3    H181043   2.217   3.238   3.258  1.4721 -0.0889 -0.7336
19876TIP3    H281044   2.285   3.103   3.253  0.2956 -0.6783 -1.0001
19877TIP3   OH281045   4.032   2.386   2.314  0.0143 -0.2340 -0.0768
19877TIP3    H181046   4.077   2.426   2.388 -0.8278  0.0622  0.2881
19877TIP3    H281047   3.946   2.429   2.312  0.2538  0.2121 -1.6072
19878TIP3   OH281048   4.138   6.674  16.995 -0.7856  0.5972 -0.1395
19878TIP3    H181049   4.147   6.658  17.089 -0.5759 -0.4764 -0.3323
19878TIP3    H281050   4.137   6.769  16.987  0.5855  0.7118  0.8301
19879TIP3   OH281051   3.826   2.566  10.880 -0.4366 -0.0633  0.9184
19879TIP3    H181052   3.762   2.626  10.841  1.0116  0.0506 -1.3678
19879TIP3    H281053   3.857   2.612  10.958  0.6399  2.2113 -0.7837
19880TIP3   OH281054   2.340   6.275  12.429 -0.1338  0.3433 -0.4193
19880TIP3    H181055   2.369   6.360  12.461  1.0773 -0.3675  0.4086
19880TIP3    H281056   2.307   6.230  12.506 -0.1706 -0.1825 -0.7355
19881TIP3   OH281057   0.482   1.928  15.280 -0.0643  0.1091 -0.0096
19881TIP3    H181058   0.487   1.972  15.364 -0.1577 -0.3331  0.2250
19881TIP3    H281059   0.435   1.990  15.223  1.1096  0.9424 -0.0852
19882TIP3   OH281060   6.072   3.668   3.044 -0.0635 -0.2506  0.5550
19882TIP3    H181061   6.045   3.607   3.113 -1.5463  2.0554  2.0882
19882TIP3    H281062   6.156   3.703   3.075  0.6910 -1.3287 -0.2314
19883TIP3   OH281063   3.167   5.038  15.909 -0.0519  0.4243 -0.8042
19883TIP3    H181064   3.165   4.984  15.830 -1.9197 -0.9672  0.1635
19883TIP3    H281065   3.077   5.067  15.922  0.7485  3.0935 -0.7978
19884TIP3   OH281066   2.851   4.852  11.204 -0.1823 -0.1460  0.5115
19884TIP3    H181067   2.918   4.818  11.145  2.5863  3.3285  1.4193
19884TIP3    H281068   2.787   4.893  11.147  0.5776 -0.0024 -0.2446
19885TIP3   OH281069   3.098   6.117  15.833  0.0867 -0.7299 -0.0231
19885TIP3    H181070   3.131   6.153  15.751 -0.4963  1.9025  0.8661
19885TIP3    H281071   3.162   6.143  15.898  0.0074 -1.9200  0.5448
19886TIP3   OH281072   0.317   2.284  11.815 -0.1686  0.1207  0.0120
19886TIP3    H181073   0.358   2.291  11.901 -1.0903  3.5129  0.2310
19886TIP3    H281074   0.362   2.349  11.761 -0.5951 -0.9365 -1.6632
19887TIP3   OH281075   4.830   6.343   4.165 -0.1760 -0.3919  0.3121
19887TIP3    H181076   4.894   6.408   4.195 -2.0589  1.5391  0.2727
19887TIP3    H281077   4.828   6.352   4.070 -1.6742  0.7436  0.4234
19888TIP3   OH281078   5.343   1.194   0.102 -0.4786  0.9796 -0.0215
19888TIP3    H181079   5.352   1.210   0.008  2.8739 -0.3649 -0.0179
19888TIP3    H281080   5.286   1.117   0.109 -2.5185  2.3867 -0.8058
19889TIP3   OH281081   5.412   0.680  13.256 -0.6461 -0.2523 -0.5841
19889TIP3    H181082   5.328   0.641  13.231 -0.4241 -0.6836 -0.6525
19889TIP3    H281083   5.443   0.721  13.175 -0.8393 -0.0038 -0.5321
19890TIP3   OH281084   6.667   0.510  16.411  0.0851  0.6213 -0.1396
19890TIP3    H181085   6.735   0.452  16.377  0.0525  1.2372 -1.2909
19890TIP3    H281086   6.600   0.510  16.343 -1.3815 -0.5012  1.2811
19891TIP3   OH281087   1.865   0.290  11.312  0.1714  0.6322  0.1438
19891TIP3    H181088   1.939   0.348  11.331  0.9561  0.4688 -2.2515
19891TIP3    H281089   1.833   0.320  11.227 -0.8015 -1.0597 -0.0951
19892TIP3   OH281090   1.461   4.466  11.118 -0.3354 -0.1384  0.5539
19892TIP3    H181091   1.552   4.453  11.146 -0.9846 -0.3787  2.6644
19892TIP3    H281092   1.441   4.388  11.066  0.2940 -0.6710  1.0937
19893TIP3   OH281093   5.979   5.252   2.279 -0.1018  0.0334  0.7356
19893TIP3    H181094   5.914   5.287   2.339 -0.0529 -0.0128  0.8148
19893TIP3    H281095   5.987   5.319   2.211 -0.0989  0.1217  0.8227
19894TIP3   OH281096   2.530   4.027   4.083 -0.0366  0.4447 -0.0346
19894TIP3    H181097   2.614   4.067   4.062 -0.1936  0.3858 -0.7864
19894TIP3    H281098   2.476   4.099   4.117  0.6719  0.2668  1.5045
19895TIP3   OH281099   4.089   4.563   0.216  0.0534 -0.0562  0.3504
19895TIP3    H181100   4.103   4.490   0.155  2.5500  1.3698 -0.8773
19895TIP3    H281101   4.127   4.533   0.298 -1.5392 -1.2265  0.6873
19896TIP3   OH281102   3.519   4.432  10.547 -0.1024 -0.6459  0.0372
19896TIP3    H181103   3.511   4.355  10.604 -0.1934  0.7526  1.9671
19896TIP3    H281104   3.492   4.401  10.461 -0.8245 -2.6022  0.9318
19897TIP3   OH281105   1.163   6.417  16.021 -0.1469 -0.2002 -0.2393
19897TIP3    H181106   1.217   6.472  15.965  1.8003 -1.2566  0.5662
19897TIP3    H281107   1.074   6.426  15.985  0.9927 -0.6362 -3.3162
19898TIP3   OH281108   4.999   6.556  13.991  0.1047 -0.2277 -0.0587
19898TIP3    H181109   4.917   6.605  13.997 -0.5372 -1.4426  1.2314
19898TIP3    H281110   4.983   6.477  14.042  0.7394 -2.3213 -2.9589
19899TIP3   OH281111   4.766   4.874   3.105 -0.0031  0.3560 -0.5120
19899TIP3    H181112   4.732   4.959   3.132  0.2826  1.0698 -2.3500
19899TIP3    H281113   4.851   4.867   3.148  0.1523  1.1839 -0.6806
19900TIP3   OH281114   6.190   3.543  15.453 -0.6113 -0.0945 -0.2902
19900TIP3    H181115   6.172   3.582  15.368  0.6569 -1.6978 -1.3055
19900TIP3    H281116   6.217   3.617  15.508 -1.5781  0.9664 -1.2105
19901TIP3   OH281117   1.107   1.860   0.809 -0.1646 -0.2602 -0.2761
19901TIP3    H181118   1.089   1.933   0.750 -0.0068 -1.2315 -1.5636
19901TIP3    H281119   1.093   1.895   0.897  0.9028  1.5810 -0.8269
19902TIP3   OH281120   6.066   1.299  14.635 -0.1519  0.2849  0.3180
19902TIP3    H181121   6.011   1.233  14.594 -1.0345  0.1358  1.7294
19902TIP3    H281122   6.035   1.382  14.600 -1.4405  0.2183  1.2756
19903TIP3   OH281123   0.097   0.031   2.438  0.5666  0.4892 -0.0479
19903TIP3    H181124   0.101   0.026   2.533  2.6342  3.8112  0.1200
19903TIP3    H281125   0.026   0.092   2.419  1.0842  0.9452 -0.5632
19904TIP3   OH281126   5.821   2.494  12.928 -0.3193  0.1980  0.3908
19904TIP3    H181127   5.823   2.523  12.836  0.3107  0.6914  0.5572
19904TIP3    H281128   5.877   2.416  12.929 -2.8799 -1.7066 -0.2729
19905TIP3   OH281129   5.069   2.497  11.797  0.0399 -0.2537  0.1396
19905TIP3    H181130   5.037   2.406  11.794 -0.1497 -0.1649 -0.7256
19905TIP3    H281131   5.049   2.526  11.886 -0.9792 -0.6780  0.0632
19906TIP3   OH281132   3.676   2.984   1.238 -0.0867  0.7801 -0.1694
19906TIP3    H181133   3.722   2.959   1.318 -0.2596  0.9898 -0.0013
19906TIP3    H281134   3.656   3.077   1.250  0.3855  0.9488 -0.7055
19907TIP3   OH281135   0.682   5.020   2.420 -0.3112 -0.9961  0.7671
19907TIP3    H181136   0.619   5.090   2.401  0.7104 -0.5575 -1.1132
19907TIP3    H281137   0.691   4.973   2.338  0.4376 -2.1920  1.5217
19908TIP3   OH281138   2.631   2.284  14.677 -0.8534  0.1084 -0.1889
19908TIP3    H181139   2.722   2.288  14.707 -1.5689  1.5901  1.8768
19908TIP3    H281140   2.579   2.280  14.757 -2.6190 -1.1719 -1.3448
19909TIP3   OH281141   4.065   3.973  12.904  0.2354  0.4577  0.5188
19909TIP3    H181142   4.141   3.918  12.885 -0.5855 -0.5906  0.1773
19909TIP3    H281143   4.044   4.015  12.821  0.1772  0.3988  0.5043
19910TIP3   OH281144   4.261   6.429   1.786  0.5911  0.1426 -0.0653
19910TIP3    H181145   4.189   6.371   1.811  0.4490 -0.0774 -0.9591
19910TIP3    H281146   4.252   6.438   1.691  0.4424  1.8679  0.0974
19911TIP3   OH281147   4.383   2.878  11.752 -0.6106  0.1283  0.0788
19911TIP3    H181148   4.311   2.829  11.713 -1.4307  0.3006  1.3680
19911TIP3    H281149   4.378   2.964  11.710  1.1794 -0.9929 -2.6071
19912TIP3   OH281150   0.256   5.542  13.293  0.3637 -0.2239  0.0793
19912TIP3    H181151   0.281   5.450  13.284 -0.8831 -0.3002 -3.0402
19912TIP3    H281152   0.313   5.589  13.232 -1.0765  0.6782 -0.5845
19913TIP3   OH281153   2.026   4.981  16.303 -0.0382  0.0769  0.1373
19913TIP3    H181154   2.059   5.056  16.254  0.0863  0.0376  0.1587
19913TIP3    H281155   2.100   4.954  16.358  0.6157 -1.3684 -1.3919
19914TIP3   OH281156   1.248   5.788  10.456 -0.0532  0.7814 -0.7569
19914TIP3    H181157   1.315   5.784  10.525 -0.8507 -1.4490 -0.0553
19914TIP3    H281158   1.297   5.771  10.375  0.0347 -2.7414 -0.0512
19915TIP3   OH281159   3.939   4.702   2.435  0.3675 -0.4188  0.0634
19915TIP3    H181160   3.936   4.761   2.510  1.3349 -0.3473  0.0568
19915TIP3    H281161   4.033   4.693   2.416  0.0904  0.8372 -2.1265
19916TIP3   OH281162   0.887   6.186   4.769 -0.0499  0.4446 -0.3361
19916TIP3    H181163   0.970   6.196   4.723 -0.1291  0.0616 -0.5716
19916TIP3    H281164   0.895   6.103   4.816 -0.4280  0.2326 -0.6416
19917TIP3   OH281165   2.702   2.042   0.499 -0.3953 -0.1676 -0.0807
19917TIP3    H181166   2.628   2.061   0.442  0.9608 -0.1070 -1.8640
19917TIP3    H281167   2.773   2.097   0.465  0.6744 -0.7598  1.1544
19918TIP3   OH281168   2.894   3.702   1.842 -0.2842  0.8921  0.0803
19918TIP3    H181169   2.969   3.762   1.848 -0.0072  0.5364  0.1631
19918TIP3    H281170   2.822   3.751   1.881  0.4198  0.3932  2.0579
19919TIP3   OH281171   3.556   3.236  16.564  0.2311 -0.1494  0.4712
19919TIP3    H181172   3.644   3.271  16.546  1.3710 -1.5922  3.0322
19919TIP3    H281173   3.571   3.146  16.593 -2.2549 -0.9898 -0.7201
19920TIP3   OH281174   5.105   3.198  14.707  0.6384 -0.4636 -0.5790
19920TIP3    H181175   5.025   3.189  14.656  0.0472  0.5494  0.1655
19920TIP3    H281176   5.113   3.292  14.725  1.4713 -0.6618  0.1638
19921TIP3   OH281177   2.887   1.810   4.640  0.3190  0.2516 -0.3912
19921TIP3    H181178   2.893   1.888   4.584  0.5430  0.7166  0.2667
19921TIP3    H281179   2.887   1.845   4.729 -0.1352 -0.4748 -0.1039
19922TIP3   OH281180   1.727   3.258   3.984 -0.6595 -0.0045  0.3247
19922TIP3    H181181   1.792   3.321   3.951  0.0575 -0.6240  0.5289
19922TIP3    H281182   1.775   3.208   4.050 -1.8361  0.6432  1.6804
19923TIP3   OH281183   1.342   4.455  11.709  0.0115 -0.4755  0.5091
19923TIP3    H181184   1.391   4.519  11.657 -1.4293  0.0744 -0.1931
19923TIP3    H281185   1.330   4.380  11.651 -0.3748 -0.4240  0.5209
19924TIP3   OH281186   0.785   3.724   1.167  0.5112 -0.0434  0.1698
19924TIP3    H181187   0.761   3.786   1.098  0.7815  1.0558  1.0577
19924TIP3    H281188   0.852   3.669   1.126 -0.8444 -0.7858 -1.1287
19925TIP3   OH281189   5.611   4.419  11.718  0.1656 -0.6453 -0.0402
19925TIP3    H181190   5.539   4.474  11.750  1.1925  0.2086  0.8506
19925TIP3    H281191   5.679   4.428  11.785  1.7929 -0.0326 -1.7526
19926TIP3   OH281192   5.812   0.210  14.313  0.5229  0.4614 -0.3007
19926TIP3    H181193   5.878   0.158  14.358  1.7482  0.0282 -2.5381
19926TIP3    H281194   5.734   0.155  14.314  1.5641 -1.0789 -1.8952
19927TIP3   OH281195   4.788   2.363   5.048  0.7735  0.4779 -0.0521
19927TIP3    H181196   4.802   2.455   5.073  0.3309  0.6661 -0.4917
19927TIP3    H281197   4.734   2.368   4.969  0.3097 -0.1740  0.2190
19928TIP3   OH281198   4.180   0.386  15.882 -0.1976 -0.1919  0.1417
19928TIP3    H181199   4.177   0.377  15.977 -2.1207  1.9502  0.3509
19928TIP3    H281200   4.263   0.345  15.856  1.7827  1.7451  3.0516
19929TIP3   OH281201   6.542   0.105   6.474 -0.5932 -0.1252  0.6036
19929TIP3    H181202   6.554   0.189   6.430  2.4078  0.2146  1.9879
19929TIP3    H281203   6.534   0.126   6.566  0.6767 -1.3832  1.0206
19930TIP3   OH281204   0.283   2.056   1.951  0.3159 -0.3391  0.1153
19930TIP3    H181205   0.311   1.971   1.985 -0.2976 -1.2967 -1.7251
19930TIP3    H281206   0.342   2.074   1.878  0.1073  0.5666  0.1624
19931TIP3   OH281207   4.882   3.350  14.433 -0.7013 -0.0938 -0.4870
19931TIP3    H181208   4.872   3.294  14.511 -1.5331 -0.8173 -1.0952
19931TIP3    H281209   4.815   3.417  14.442 -0.7925 -0.1725 -0.5748
19932TIP3   OH281210   2.229   3.370   6.220 -0.2247 -0.2851  0.0121
19932TIP3    H181211   2.236   3.438   6.153  2.8575  1.7518  2.2380
19932TIP3    H281212   2.144   3.384   6.260 -0.2643  1.2976 -0.5838
19933TIP3   OH281213   5.341   6.168  12.992  0.3906  0.3712 -0.1683
19933TIP3    H181214   5.347   6.264  12.993  1.8365  0.2942  1.1170
19933TIP3    H281215   5.281   6.147  13.063  3.2224  0.1890  2.2538
19934TIP3   OH281216   1.298   4.191   3.234 -0.0987  0.4446 -0.4999
19934TIP3    H181217   1.264   4.252   3.167 -1.2255  0.0599 -0.2958
19934TIP3    H281218   1.291   4.240   3.316  1.9848  1.1920 -0.7389
19935TIP3   OH281219   2.571   2.389   0.566 -0.4502  0.1435 -0.3688
19935TIP3    H181220   2.605   2.403   0.478 -1.3103  1.3370 -0.5197
19935TIP3    H281221   2.484   2.429   0.564 -0.4984  0.1102  1.0006
19936TIP3   OH281222   1.942   4.079   1.775  0.0816  0.1943  0.5789
19936TIP3    H181223   1.974   4.151   1.722  0.3546 -0.0606  0.3938
19936TIP3    H281224   1.854   4.106   1.802 -1.6941 -1.3513 -3.3160
19937TIP3   OH281225   6.514   2.407  15.929 -0.0613  0.0496 -0.3575
19937TIP3    H181226   6.572   2.333  15.916 -0.2842 -0.2320  0.2192
19937TIP3    H281227   6.546   2.474  15.869  0.6012 -0.2483 -0.3369
19938TIP3   OH281228   0.612   4.418   2.557  0.2065 -0.6036  0.1345
19938TIP3    H181229   0.643   4.509   2.551  0.9131 -0.8109  0.5398
19938TIP3    H281230   0.528   4.418   2.511 -0.2027  0.4372  0.8647
19939TIP3   OH281231   2.275   6.367  12.181 -0.4910 -0.8106 -0.8725
19939TIP3    H181232   2.276   6.333  12.271 -0.8066 -2.8539 -1.6282
19939TIP3    H281233   2.223   6.447  12.187  3.7611  1.9418  1.7344
19940TIP3   OH281234   5.802   5.908   0.248  0.0432  0.8537 -0.0811
19940TIP3    H181235   5.742   5.908   0.173  0.7654  0.5994 -0.6589
19940TIP3    H281236   5.744   5.910   0.324 -0.6894  4.4108 -0.6371
19941TIP3   OH281237   0.773   1.897  13.534  0.2820  0.0326  0.1455
19941TIP3    H181238   0.816   1.883  13.450 -0.8139 -1.9578 -0.1126
19941TIP3    H281239   0.729   1.981  13.525 -0.3773 -0.4708 -1.5228
19942TIP3   OH281240   2.131   3.379  11.650 -0.4510  0.3772  0.1555
19942TIP3    H181241   2.113   3.294  11.691  1.1931 -0.4620 -0.8096
19942TIP3    H281242   2.110   3.443  11.718 -0.1202 -0.8823  1.4701
19943TIP3   OH281243   0.427   1.704  12.349 -0.4895  0.0162 -0.0698
19943TIP3    H181244   0.332   1.691  12.356 -0.6625 -0.5623 -2.9673
19943TIP3    H281245   0.458   1.627  12.301  1.4985  0.0772  1.0614
19944TIP3   OH281246   1.674   6.611  10.187  0.3412  0.6108 -0.0851
19944TIP3    H181247   1.638   6.543  10.243  2.4618 -0.0590  0.5181
19944TIP3    H281248   1.759   6.631  10.226  0.7911  1.8713 -1.6655
19945TIP3   OH281249   3.943   5.201  12.600 -0.1798 -0.3198  0.0343
19945TIP3    H181250   3.926   5.293  12.619  0.3699 -0.4022  1.0084
19945TIP3    H281251   3.977   5.200  12.511 -0.8459  0.3447 -0.2261
19946TIP3   OH281252   3.855   0.446   1.124 -0.0049 -0.6143 -0.3430
19946TIP3    H181253   3.795   0.518   1.145  0.8010 -0.3054  0.9355
19946TIP3    H281254   3.930   0.488   1.081 -0.3107 -0.9080 -1.1854
19947TIP3   OH281255   4.730   1.978  11.328  0.4739  0.5818  0.0204
19947TIP3    H181256   4.734   2.035  11.252 -0.1862  1.0990  0.3726
19947TIP3    H281257   4.806   1.919  11.318  1.3370  1.7110 -0.1742
19948TIP3   OH281258   0.910   2.175  11.600  0.2569  0.4285 -0.5429
19948TIP3    H181259   0.929   2.227  11.678 -0.3022 -0.1755 -0.0005
19948TIP3    H281260   0.844   2.226  11.553 -1.7242 -0.6813  0.9521
19949TIP3   OH281261   3.410   2.628   4.077 -0.1242  0.1612  0.0523
19949TIP3    H181262   3.493   2.633   4.124 -0.0654 -1.7951  0.1843
19949TIP3    H281263   3.346   2.664   4.137  0.5727  1.3738  0.0794
19950TIP3   OH281264   4.859   0.669   1.203  0.0306 -0.0015 -0.0043
19950TIP3    H181265   4.768   0.697   1.202 -0.0303 -0.2214 -0.9350
19950TIP3    H281266   4.908   0.743   1.170  0.1029 -0.1981 -0.3362
19951TIP3   OH281267   3.875   2.169  14.019  0.3353  0.0837  0.7147
19951TIP3    H181268   3.864   2.196  14.110 -1.8706 -0.1403  0.5295
19951TIP3    H281269   3.807   2.103  14.005  0.0099  0.8394 -1.3955
19952TIP3   OH281270   5.346   2.038   4.010  0.2913 -0.3821  0.2836
19952TIP3    H181271   5.303   2.018   4.093 -0.7921 -0.7889 -0.3570
19952TIP3    H281272   5.294   2.111   3.974 -1.5012 -2.5395 -1.6988
19953TIP3   OH281273   5.883   6.288   0.826  0.5634  0.3882 -0.1606
19953TIP3    H181274   5.874   6.300   0.732  0.6994 -0.1968 -0.2496
19953TIP3    H281275   5.804   6.327   0.864  0.1844  0.0133 -0.5631
19954TIP3   OH281276   0.107   4.763   1.630 -0.0502  0.5867  0.2297
19954TIP3    H181277   0.114   4.741   1.723 -0.3858  0.1425  0.1534
19954TIP3    H281278   0.179   4.716   1.589 -1.1837 -0.9760 -0.0330
19955TIP3   OH281279   2.158   5.437   1.546  0.1231 -0.1340  0.0555
19955TIP3    H181280   2.092   5.401   1.606  1.3599 -1.9461  0.3517
19955TIP3    H281281   2.230   5.464   1.603 -0.7646  2.8361 -0.1650
19956TIP3   OH281282   5.617   5.347  10.922  0.3021  0.2277  0.0445
19956TIP3    H181283   5.559   5.415  10.887  1.2224  1.2017  0.4021
19956TIP3    H281284   5.673   5.323  10.849 -0.1324 -0.2705 -0.1270
19957TIP3   OH281285   4.279   1.460  16.399  0.5678  0.1975  0.1165
19957TIP3    H181286   4.229   1.459  16.481  1.1168 -1.4891  0.4561
19957TIP3    H281287   4.257   1.544  16.358 -0.3195  0.7131  1.6153
19958TIP3   OH281288   2.463   5.769  15.758  0.8530 -0.5832 -0.2983
19958TIP3    H181289   2.494   5.808  15.839  1.4714 -1.0908 -0.2864
19958TIP3    H281290   2.393   5.709  15.785 -0.5400  0.9523 -0.3795
19959TIP3   OH281291   0.622   0.433  15.245  0.1302  0.0771  0.1197
19959TIP3    H181292   0.636   0.423  15.339  0.9226 -0.2193 -0.0277
19959TIP3    H281293   0.625   0.343  15.211 -1.0739  0.0934 -0.0671
19960TIP3   OH281294   6.227   1.260   1.022 -0.0101 -0.3284  0.1507
19960TIP3    H181295   6.147   1.237   0.975  0.2023  0.0049 -0.3823
19960TIP3    H281296   6.246   1.183   1.076 -0.8524 -0.2921  0.5149
19961TIP3   OH281297   6.206   5.163  14.856  0.0532 -0.3426  0.7746
19961TIP3    H181298   6.181   5.164  14.763  0.3114 -1.5398  0.6893
19961TIP3    H281299   6.162   5.240  14.893 -0.1058  0.1076 -0.3231
19962TIP3   OH281300   1.380   6.362   6.104  0.3604 -0.0103  0.3445
19962TIP3    H181301   1.377   6.449   6.143 -2.3333 -0.3149  0.9309
19962TIP3    H281302   1.364   6.378   6.011  0.9890  0.2115  0.2723
19963TIP3   OH281303   5.435   5.572   3.526 -0.2904 -0.2244 -0.0229
19963TIP3    H181304   5.450   5.652   3.475 -2.6196 -0.6808 -1.4911
19963TIP3    H281305   5.484   5.587   3.608  1.2707  1.6645 -1.2457
19964TIP3   OH281306   0.229   0.389   1.929 -0.9393  0.0084  0.4549
19964TIP3    H181307   0.188   0.403   2.014 -0.8889 -0.9164  0.6339
19964TIP3    H281308   0.283   0.310   1.941  0.2517  0.7365 -0.0004
19965TIP3   OH281309   4.138   5.880  16.414  0.2466  0.5613  0.3741
19965TIP3    H181310   4.188   5.816  16.465  1.3768  0.7440 -0.4874
19965TIP3    H281311   4.114   5.948  16.477  2.4025  1.2448  0.4791
19966TIP3   OH281312   4.517   3.442  15.923 -0.1882  0.1540  0.4272
19966TIP3    H181313   4.485   3.531  15.909  0.6017  0.1553 -1.4650
19966TIP3    H281314   4.458   3.387  15.871 -0.2416 -0.3606  1.0264
19967TIP3   OH281315   2.356   6.658  13.560  0.1601  0.1705 -0.2891
19967TIP3    H181316   2.314   6.667  13.646  0.6189 -0.7922  0.0460
19967TIP3    H281317   2.408   6.578  13.567 -1.6268 -1.1857 -2.2348
19968TIP3   OH281318   1.152   2.050  15.859 -0.3622  0.2915 -0.0960
19968TIP3    H181319   1.082   2.092  15.810 -1.0649  0.9229  1.3974
19968TIP3    H281320   1.135   1.957  15.852 -0.2272  0.3555 -1.3621
19969TIP3   OH281321   2.896   4.587  16.681  0.2738  0.9567  0.1260
19969TIP3    H181322   2.801   4.571  16.675  0.5345 -0.0240 -1.6545
19969TIP3    H281323   2.928   4.515  16.735 -0.0891  1.6860  1.3281
19970TIP3   OH281324   1.944   2.808   4.700  0.6364  0.0834 -0.1261
19970TIP3    H181325   1.878   2.870   4.729  1.3222  0.3961  0.8075
19970TIP3    H281326   1.929   2.799   4.606 -1.9485 -1.3258  0.3704
19971TIP3   OH281327   6.396   5.148   0.779  0.3698 -0.3440 -0.0648
19971TIP3    H181328   6.319   5.172   0.831 -0.3846 -0.6969 -0.9957
19971TIP3    H281329   6.470   5.160   0.838 -0.2560  1.4981  0.3810
19972TIP3   OH281330   2.580   5.461   0.590  0.1532  0.0690 -0.6368
19972TIP3    H181331   2.568   5.382   0.642  2.8219  0.8688  1.3006
19972TIP3    H281332   2.520   5.525   0.628 -1.3535 -0.7228 -1.6331
19973TIP3   OH281333   1.947   6.750  15.741  0.3386  0.1777 -0.4793
19973TIP3    H181334   1.959   6.841  15.714 -2.0603  0.2649 -1.4388
19973TIP3    H281335   1.981   6.699  15.668  0.7225  0.3322 -0.4064
19974LIG     O181336   4.862   4.633  16.733 -0.6643  0.1360  0.2148
19974LIG     O281337   5.113   4.703  16.344 -0.1477 -0.0096 -0.5844
19974LIG     N181338   5.052   4.879  16.468  0.1217 -0.6115 -0.1564
19974LIG     N281339   4.869   4.929  16.778 -0.0602  0.3304  0.1098
19974LIG     N381340   5.006   4.666  16.541  0.0558 -0.2446 -0.4982
19974LIG     N481341   4.967   5.058  16.613 -0.9127 -0.1191 -0.3671
19974LIG     C181342   4.925   4.844  16.680 -0.2376  0.3272 -0.2849
19974LIG     C281343   4.984   4.928  16.584 -0.2146 -0.3997 -0.7826
19974LIG     C381344   4.927   4.710  16.656 -0.2967 -0.2111 -0.3639
19974LIG     C481345   5.061   4.749  16.443  0.3381 -0.3412 -0.2577
19974LIG     C581346   4.901   5.060  16.726  0.3938 -0.3769  0.3915
19974LIG     C681347   5.086   4.957  16.353 -0.3858 -0.1087 -0.0520
19974LIG     C781348   4.789   4.889  16.894 -0.2826  0.3013  1.3354
19974LIG     C881349   5.007   4.516  16.527  0.2664 -0.5339 -0.0921
19974LIG     H181350   4.886   5.148  16.789 -0.0487  0.0453 -0.2961
19974LIG     H281351   5.101   5.060  16.391  0.6300 -0.8787  1.6579
19974LIG     H381352   5.000   4.971  16.283  1.0387  1.1698 -1.5860
19974LIG     H481353   5.178   4.938  16.295 -0.3737  1.0980 -0.4336
19974LIG     H581354   4.839   4.850  16.985  1.7765 -0.1213  0.0514
19974LIG     H681355   4.740   4.796  16.858  2.4029 -0.6077 -0.1166
19974LIG     H781356   4.721   4.974  16.920 -0.9901 -0.1899  1.1191
19974LIG     H881357   4.927   4.474  16.461 -0.8596  1.3369  0.0324
19974LIG     H981358   4.993   4.468  16.626 -0.9536  4.1210  2.1381
19974LIG    H1081359   5.106   4.487  16.487  1.1440  0.6952  1.1376
   6.78697   6.78697  17.23950
